Title
43170
    1CHL1    C3    1   0.754   1.634   5.817 -0.1014  0.5528 -0.2619
    1CHL1    H3    2   0.721   1.528   5.820 -1.4797  0.9729  0.1177
    1CHL1    O3    3   0.743   1.683   5.948 -0.4345  0.4084  0.1027
    1CHL1   H3'    4   0.777   1.612   6.003  0.4964  0.7882  0.0267
    1CHL1    C4    5   0.896   1.646   5.769 -0.0952  0.2656 -0.6550
    1CHL1   H4A    6   0.930   1.751   5.782 -0.2072  0.1171  1.0816
    1CHL1   H4B    7   0.965   1.604   5.845 -0.7972  2.7332  1.4947
    1CHL1    C5    8   0.904   1.586   5.630  0.2547 -0.5922 -0.3372
    1CHL1    C6    9   0.986   1.485   5.595 -0.3353  0.5187 -0.3924
    1CHL1    H6   10   1.057   1.442   5.667  1.9551  1.1014 -2.1799
    1CHL1    C7   11   0.997   1.441   5.449  0.4084  0.1830  0.3136
    1CHL1   H7A   12   1.104   1.431   5.424  0.2796 -2.1343  0.4585
    1CHL1   H7B   13   0.945   1.346   5.423 -0.9317  0.8159  0.5719
    1CHL1    C8   14   0.945   1.548   5.352 -0.0984  0.3588  0.2676
    1CHL1    H8   15   1.018   1.632   5.348 -0.1400  0.4620  1.4119
    1CHL1   C14   16   0.942   1.485   5.210  0.5994 -0.3746  0.1183
    1CHL1   H14   17   0.873   1.399   5.226 -1.7147  1.4245  0.3615
    1CHL1   C15   18   1.068   1.427   5.149  0.8232  0.3522  0.1264
    1CHL1  H15A   19   1.154   1.498   5.149  0.7617  0.5254 -2.4698
    1CHL1  H15B   20   1.099   1.343   5.216 -3.0419 -1.6104 -0.2811
    1CHL1   C16   21   1.032   1.389   5.009 -0.8244 -0.3288  0.3626
    1CHL1  H16A   22   1.108   1.427   4.938  0.5922 -0.4860  1.7410
    1CHL1  H16B   23   1.025   1.280   4.994  0.1038 -0.6509  1.9845
    1CHL1   C17   24   0.889   1.452   4.993 -0.1859  0.2374  0.0640
    1CHL1   H17   25   0.820   1.371   5.026  0.5687  1.1048  4.2151
    1CHL1   C13   26   0.866   1.561   5.101 -0.0270  0.3170  0.0766
    1CHL1   C18   27   0.949   1.692   5.066  0.1203 -0.6258 -0.0185
    1CHL1  H18A   28   0.903   1.758   4.989 -1.4461 -0.1698  1.2625
    1CHL1  H18B   29   0.967   1.758   5.153 -0.3502  0.1255 -0.4755
    1CHL1  H18C   30   1.053   1.662   5.042 -0.3570 -1.9111 -0.5999
    1CHL1   C12   31   0.726   1.590   5.139 -0.1632  0.2151  0.0592
    1CHL1  H12A   32   0.670   1.638   5.056 -1.7241  0.9650  1.4830
    1CHL1  H12B   33   0.664   1.498   5.150 -1.2447  0.5661 -2.4326
    1CHL1   C11   34   0.727   1.660   5.271  0.2430  0.6353 -0.1018
    1CHL1  H11A   35   0.786   1.753   5.253  0.1178  0.7027 -0.1654
    1CHL1  H11B   36   0.621   1.682   5.299  0.8389  1.6041  1.5257
    1CHL1    C9   37   0.801   1.587   5.387 -0.5580 -0.0675  0.4633
    1CHL1    H9   38   0.736   1.497   5.403 -0.4243 -0.5478 -1.4014
    1CHL1   C10   39   0.812   1.656   5.522 -0.5844 -0.1145 -0.3476
    1CHL1   C19   40   0.853   1.808   5.503  0.8029  0.5140 -0.0428
    1CHL1  H19A   41   0.868   1.861   5.600 -0.0431 -0.0173  0.3917
    1CHL1  H19B   42   0.948   1.824   5.448  0.8949 -0.2663 -0.1167
    1CHL1  H19C   43   0.771   1.851   5.441 -1.0710 -1.9435  0.5803
    1CHL1    C1   44   0.662   1.649   5.583 -0.0515  0.4790  0.1312
    1CHL1   H1A   45   0.597   1.710   5.517 -0.3870  0.3392  0.3347
    1CHL1   H1B   46   0.620   1.546   5.584  2.3736 -0.5974  0.0447
    1CHL1    C2   47   0.653   1.704   5.728 -0.3241 -0.8577 -0.0604
    1CHL1   H2A   48   0.550   1.672   5.754  0.4331 -4.0738 -0.5520
    1CHL1   H2B   49   0.671   1.813   5.726 -0.1433 -0.8956 -0.8586
    1CHL1   C20   50   0.838   1.487   4.849 -0.1570  0.2670  0.0268
    1CHL1   H20   51   0.770   1.575   4.857 -1.0809 -0.2752 -1.4642
    1CHL1   C21   52   0.752   1.367   4.800 -0.0057 -0.0167 -0.0716
    1CHL1  H21A   53   0.811   1.273   4.807 -0.9965 -0.6810 -0.3546
    1CHL1  H21B   54   0.731   1.393   4.694 -1.4982 -1.1675 -0.0988
    1CHL1  H21C   55   0.655   1.361   4.854 -0.1556 -1.7901 -0.4800
    1CHL1   C22   56   0.945   1.529   4.748 -0.3094 -0.1324 -0.1570
    1CHL1  H22A   57   1.011   1.605   4.796 -1.5756  0.9020  0.0126
    1CHL1  H22B   58   1.007   1.439   4.730  1.4460  0.7868  0.9317
    1CHL1   C23   59   0.893   1.581   4.615 -0.0012 -0.0172 -0.5637
    1CHL1  H23A   60   0.975   1.616   4.549  2.6489 -2.5022  1.1854
    1CHL1  H23B   61   0.842   1.506   4.551  0.3821 -0.2304 -0.6234
    1CHL1   C24   62   0.802   1.701   4.627 -0.3201  0.0559 -0.5691
    1CHL1  H24A   63   0.717   1.665   4.690  1.1058 -1.0076  0.8472
    1CHL1  H24B   64   0.864   1.772   4.686 -0.5432 -1.8487  2.1699
    1CHL1   C25   65   0.766   1.780   4.497  0.2494  0.5262  0.5730
    1CHL1   H25   66   0.859   1.797   4.439 -0.1575  0.1204 -0.2097
    1CHL1   C26   67   0.676   1.694   4.410  0.4676  0.2277 -0.3732
    1CHL1  H26A   68   0.714   1.590   4.398 -1.9080 -0.7532  0.1232
    1CHL1  H26B   69   0.583   1.671   4.467  1.3333 -2.4766  0.1186
    1CHL1  H26C   70   0.655   1.741   4.312  0.7385 -1.3583 -1.2353
    1CHL1   C27   71   0.694   1.913   4.515  0.5995 -0.2524 -0.3717
    1CHL1  H27A   72   0.599   1.897   4.571 -0.0622 -3.2301 -2.1043
    1CHL1  H27B   73   0.751   1.993   4.567 -1.5966 -0.0579  1.9128
    1CHL1  H27C   74   0.667   1.956   4.416  1.1525  1.4519  0.1801
    2CHL1    C3   75   3.237   3.443   5.738 -0.0945 -0.1066 -0.3311
    2CHL1    H3   76   3.246   3.337   5.704 -0.1423 -0.0062 -0.6593
    2CHL1    O3   77   3.209   3.447   5.871 -0.2534 -0.5119  0.4997
    2CHL1   H3'   78   3.220   3.541   5.890 -1.6100 -0.4237  0.9661
    2CHL1    C4   79   3.370   3.518   5.710 -0.2073 -0.2512 -0.2276
    2CHL1   H4A   80   3.363   3.619   5.754  0.3555 -0.7431  1.0279
    2CHL1   H4B   81   3.458   3.470   5.757 -0.8197 -1.5631 -0.3524
    2CHL1    C5   82   3.390   3.514   5.556  0.3166  0.3227 -1.3371
    2CHL1    C6   83   3.501   3.467   5.504  0.3105 -0.3755  0.1757
    2CHL1    H6   84   3.579   3.427   5.571 -0.6995 -0.8125  1.1141
    2CHL1    C7   85   3.530   3.474   5.356  0.4849  0.0865 -0.1288
    2CHL1   H7A   86   3.634   3.509   5.336 -0.4331  2.1996 -1.4810
    2CHL1   H7B   87   3.521   3.368   5.325  1.2373  0.0975 -0.4229
    2CHL1    C8   88   3.440   3.555   5.271 -0.0985 -0.2057  0.7410
    2CHL1    H8   89   3.472   3.661   5.281 -1.2828  0.5083 -2.0232
    2CHL1   C14   90   3.447   3.515   5.126 -0.9270 -0.3981 -0.4226
    2CHL1   H14   91   3.419   3.408   5.116  1.1011 -1.1761  1.2902
    2CHL1   C15   92   3.583   3.537   5.057  0.2147 -0.2284  0.1292
    2CHL1  H15A   93   3.618   3.638   5.087 -2.5574  1.3598 -1.5173
    2CHL1  H15B   94   3.653   3.458   5.091  1.7676  1.0319 -0.0572
    2CHL1   C16   95   3.559   3.537   4.911 -0.3405 -0.6937  0.3349
    2CHL1  H16A   96   3.603   3.632   4.873  0.6636 -0.2984  2.3614
    2CHL1  H16B   97   3.600   3.451   4.855  2.6570  0.4034  0.6659
    2CHL1   C17   98   3.402   3.551   4.901  0.1978  0.3405 -0.7281
    2CHL1   H17   99   3.369   3.445   4.894 -0.2969  0.4970 -0.7660
    2CHL1   C13  100   3.354   3.591   5.036  0.1936 -0.3793  0.3581
    2CHL1   C18  101   3.378   3.743   5.042 -0.1895 -1.0094 -0.3868
    2CHL1  H18A  102   3.342   3.792   5.135  1.0238  0.1443 -0.4844
    2CHL1  H18B  103   3.484   3.773   5.024 -0.5196  0.4224 -0.1098
    2CHL1  H18C  104   3.304   3.785   4.971 -0.6518 -1.9753 -0.4959
    2CHL1   C12  105   3.208   3.551   5.073  0.3753 -0.3206 -0.0087
    2CHL1  H12A  106   3.127   3.593   5.010  1.1085  1.0959 -0.0349
    2CHL1  H12B  107   3.206   3.441   5.055  1.8348 -0.3156 -0.3248
    2CHL1   C11  108   3.189   3.586   5.226 -0.2954 -0.5651 -0.3450
    2CHL1  H11A  109   3.173   3.696   5.232 -1.0707 -0.5841 -1.7111
    2CHL1  H11B  110   3.090   3.549   5.260  0.1096  0.6823  2.4482
    2CHL1    C9  111   3.297   3.527   5.321  0.1883 -0.7414 -0.4103
    2CHL1    H9  112   3.282   3.417   5.321 -3.2851 -0.3753 -0.0644
    2CHL1   C10  113   3.276   3.568   5.466  0.4826  0.5394 -0.5752
    2CHL1   C19  114   3.278   3.713   5.495 -0.5156 -0.5421  0.1698
    2CHL1  H19A  115   3.212   3.767   5.423  0.1276 -0.7480 -0.5984
    2CHL1  H19B  116   3.252   3.746   5.597  0.3981  0.4784  0.0936
    2CHL1  H19C  117   3.378   3.758   5.475 -1.8684  2.7763  0.3033
    2CHL1    C1  118   3.139   3.508   5.516  0.2306  0.3140 -0.6012
    2CHL1   H1A  119   3.049   3.554   5.470  0.1126 -0.5733 -1.2854
    2CHL1   H1B  120   3.138   3.404   5.479  0.6480 -0.1002  0.5004
    2CHL1    C2  121   3.123   3.512   5.667  0.3741  0.2234 -0.8099
    2CHL1   H2A  122   3.028   3.458   5.687  0.0120  1.7768  2.1604
    2CHL1   H2B  123   3.115   3.614   5.711  4.2323 -0.7236  2.7110
    2CHL1   C20  124   3.363   3.627   4.766 -0.0421 -0.0967 -0.7411
    2CHL1   H20  125   3.414   3.725   4.765  0.9290 -0.5893 -1.0130
    2CHL1   C21  126   3.213   3.636   4.759 -0.1547 -0.7167  0.0557
    2CHL1  H21A  127   3.179   3.717   4.828  0.5526 -0.8611  0.5859
    2CHL1  H21B  128   3.164   3.541   4.789 -1.1381  0.2303  1.6413
    2CHL1  H21C  129   3.183   3.675   4.659  1.0767  0.1977  0.0156
    2CHL1   C22  130   3.412   3.551   4.645  0.6435  0.0333  0.1562
    2CHL1  H22A  131   3.523   3.557   4.650  0.7366  0.3284 -1.7075
    2CHL1  H22B  132   3.380   3.445   4.656 -1.7029  0.8366  1.9905
    2CHL1   C23  133   3.377   3.620   4.513  0.0362 -0.1443  0.2939
    2CHL1  H23A  134   3.268   3.627   4.494  0.3148 -0.9626 -1.9062
    2CHL1  H23B  135   3.415   3.724   4.519  2.2854 -0.6396 -2.8607
    2CHL1   C24  136   3.427   3.559   4.379 -0.1340  0.8290 -0.1107
    2CHL1  H24A  137   3.420   3.628   4.292  2.5630  2.5614  0.9310
    2CHL1  H24B  138   3.537   3.551   4.384 -0.0720 -0.5823 -2.2861
    2CHL1   C25  139   3.366   3.414   4.358 -0.2091  0.3233  0.3127
    2CHL1   H25  140   3.431   3.347   4.417  0.0988  0.3036 -0.0436
    2CHL1   C26  141   3.225   3.399   4.405 -0.1939 -0.2104  0.2058
    2CHL1  H26A  142   3.180   3.301   4.377 -0.7959  0.3643 -0.9393
    2CHL1  H26B  143   3.229   3.404   4.515 -0.8878 -0.5207  0.2521
    2CHL1  H26C  144   3.158   3.480   4.369  0.7983 -0.6078 -2.8914
    2CHL1   C27  145   3.379   3.386   4.207 -0.1613  0.3226  0.4691
    2CHL1  H27A  146   3.483   3.407   4.176 -0.1569  0.3006  0.4680
    2CHL1  H27B  147   3.364   3.281   4.174  2.6810 -0.1115  0.3556
    2CHL1  H27C  148   3.306   3.451   4.154 -0.0336  1.7108  1.9366
    3CHL1    C3  149   2.480   2.895   5.818 -0.3010  0.1153  0.0663
    3CHL1    H3  150   2.401   2.961   5.777  0.5246  1.0166 -0.1273
    3CHL1    O3  151   2.462   2.890   5.961 -0.0770 -0.5464  0.1536
    3CHL1   H3'  152   2.532   2.831   5.987  0.5776 -0.0718 -0.4821
    3CHL1    C4  153   2.469   2.754   5.760 -0.3308 -0.2328  0.4900
    3CHL1   H4A  154   2.556   2.700   5.803 -0.9857 -1.8642 -0.1877
    3CHL1   H4B  155   2.375   2.706   5.797 -0.0179 -2.4997 -1.4336
    3CHL1    C5  156   2.470   2.761   5.607 -0.6488 -0.6225 -0.0669
    3CHL1    C6  157   2.366   2.725   5.529  1.0594 -0.1700 -0.5705
    3CHL1    H6  158   2.274   2.688   5.577  1.3071  0.2379  0.2185
    3CHL1    C7  159   2.361   2.738   5.382  1.0720 -0.9092  0.4688
    3CHL1   H7A  160   2.321   2.648   5.330 -0.6656 -0.1086  0.3639
    3CHL1   H7B  161   2.304   2.827   5.351  3.3754  0.1943 -0.8908
    3CHL1    C8  162   2.499   2.766   5.313  0.4510  0.1249 -0.6841
    3CHL1    H8  163   2.541   2.663   5.320 -0.6060 -0.3159 -0.6247
    3CHL1   C14  164   2.480   2.816   5.170  0.0480  0.4953 -0.5566
    3CHL1   H14  165   2.444   2.920   5.186  0.0219  0.2310  1.3492
    3CHL1   C15  166   2.378   2.733   5.088  0.5892  0.2302 -0.1765
    3CHL1  H15A  167   2.376   2.627   5.121 -0.7080  0.4151  0.4056
    3CHL1  H15B  168   2.278   2.776   5.106  0.3886 -0.6113  0.8525
    3CHL1   C16  169   2.431   2.744   4.946 -0.3652  1.0254 -0.3097
    3CHL1  H16A  170   2.445   2.640   4.908 -1.8130 -0.2292  2.2820
    3CHL1  H16B  171   2.348   2.786   4.886 -0.0732  2.1317  0.0393
    3CHL1   C17  172   2.559   2.834   4.954 -0.1648 -0.0402 -0.6519
    3CHL1   H17  173   2.524   2.939   4.946 -0.8719 -0.2650 -0.5567
    3CHL1   C13  174   2.619   2.812   5.099  0.3487  0.1530  0.6850
    3CHL1   C18  175   2.679   2.669   5.105  0.3544  0.1882  0.8501
    3CHL1  H18A  176   2.601   2.604   5.060  1.5862  0.2851 -1.5285
    3CHL1  H18B  177   2.771   2.659   5.044 -0.9654 -1.2637 -0.9969
    3CHL1  H18C  178   2.694   2.631   5.209  1.7029 -1.5134  0.0666
    3CHL1   C12  179   2.696   2.928   5.171  0.1033  0.8144 -0.6848
    3CHL1  H12A  180   2.799   2.939   5.130 -0.4317  0.9406 -2.0558
    3CHL1  H12B  181   2.661   3.032   5.153  1.4210  2.0974  3.1290
    3CHL1   C11  182   2.712   2.906   5.327  0.0133  0.2335 -0.0521
    3CHL1  H11A  183   2.783   2.821   5.333 -0.2371  0.1144  1.5167
    3CHL1  H11B  184   2.750   3.001   5.371 -2.5360  0.9014  0.8995
    3CHL1    C9  185   2.582   2.863   5.396 -0.8764  0.2302 -0.3549
    3CHL1    H9  186   2.528   2.961   5.389  0.2187  0.7943 -1.3072
    3CHL1   C10  187   2.593   2.826   5.546 -0.9114 -0.1101  0.2183
    3CHL1   C19  188   2.723   2.725   5.564 -0.0638 -0.5297  0.2462
    3CHL1  H19A  189   2.820   2.776   5.544 -0.3103  0.0045  0.3938
    3CHL1  H19B  190   2.731   2.680   5.666  0.6429  0.7150  0.7647
    3CHL1  H19C  191   2.712   2.636   5.499  0.3763  0.6928 -1.5826
    3CHL1    C1  192   2.624   2.962   5.625 -0.6426 -0.4486 -0.0252
    3CHL1   H1A  193   2.729   2.988   5.597 -1.3282  0.9605 -1.4901
    3CHL1   H1B  194   2.565   3.050   5.590 -1.2519 -0.4855  0.8901
    3CHL1    C2  195   2.613   2.959   5.780  0.4203  0.1722 -0.0188
    3CHL1   H2A  196   2.628   3.054   5.835  0.8448  0.8353 -1.2237
    3CHL1   H2B  197   2.696   2.894   5.817  0.7711 -1.3134 -3.0372
    3CHL1   C20  198   2.651   2.813   4.832  0.3083  0.0261  0.9444
    3CHL1   H20  199   2.682   2.706   4.835  0.3168  0.0484  2.2794
    3CHL1   C21  200   2.774   2.908   4.847 -0.3210 -0.4917  0.1889
    3CHL1  H21A  201   2.852   2.851   4.903 -1.4152 -1.5814  0.6530
    3CHL1  H21B  202   2.737   2.995   4.905  0.5374  0.1996 -0.2606
    3CHL1  H21C  203   2.815   2.942   4.750 -0.3974  0.8277  0.5970
    3CHL1   C22  204   2.578   2.841   4.693  0.7415  0.2231 -0.6161
    3CHL1  H22A  205   2.472   2.808   4.691  0.9869 -0.5990 -0.5469
    3CHL1  H22B  206   2.578   2.952   4.690 -3.4756  0.4516  0.8446
    3CHL1   C23  207   2.636   2.779   4.566  0.4659  0.3810  0.3232
    3CHL1  H23A  208   2.743   2.809   4.567  0.0361  1.9891  1.7151
    3CHL1  H23B  209   2.642   2.668   4.565  2.1561  0.4469 -0.1931
    3CHL1   C24  210   2.580   2.824   4.428 -0.3138  0.4598 -0.0287
    3CHL1  H24A  211   2.470   2.807   4.439 -0.0840 -1.4541 -0.3278
    3CHL1  H24B  212   2.584   2.932   4.403 -0.0563  1.6612  4.4643
    3CHL1   C25  213   2.631   2.744   4.305 -0.3850 -0.1741  0.2382
    3CHL1   H25  214   2.630   2.636   4.332 -0.7002  0.2444  2.0408
    3CHL1   C26  215   2.538   2.770   4.185 -0.1458  0.1885 -0.2181
    3CHL1  H26A  216   2.588   2.829   4.105  0.5558 -0.6745 -0.4377
    3CHL1  H26B  217   2.496   2.676   4.145 -1.4571  0.8855 -0.5191
    3CHL1  H26C  218   2.449   2.826   4.221  0.3836  0.7692  0.2128
    3CHL1   C27  219   2.779   2.777   4.275 -0.2600  0.4415  0.2402
    3CHL1  H27A  220   2.825   2.721   4.192  1.8052  1.2845  0.7515
    3CHL1  H27B  221   2.787   2.885   4.249 -0.9787  0.7574  1.2912
    3CHL1  H27C  222   2.846   2.765   4.363  1.4246 -1.9303 -1.2515
    4CHL1    C3  223   2.194   1.780   6.039 -0.3094 -0.7439 -0.4553
    4CHL1    H3  224   2.087   1.754   6.056 -0.5825  0.6803  0.1539
    4CHL1    O3  225   2.245   1.779   6.171 -0.3472 -0.0394  0.0919
    4CHL1   H3'  226   2.337   1.752   6.171 -0.6212 -1.0521  1.0258
    4CHL1    C4  227   2.259   1.686   5.942  0.6060  0.1660  0.8195
    4CHL1   H4A  228   2.369   1.696   5.943  0.7996 -1.5611  0.9749
    4CHL1   H4B  229   2.241   1.579   5.968  0.9733 -1.0175 -3.0759
    4CHL1    C5  230   2.211   1.695   5.795 -0.2499 -0.2476  0.2710
    4CHL1    C6  231   2.164   1.592   5.729 -0.5387  0.1168  0.0077
    4CHL1    H6  232   2.157   1.494   5.779 -0.4668  0.6326  1.0486
    4CHL1    C7  233   2.114   1.595   5.592  0.9508  0.4035 -0.1450
    4CHL1   H7A  234   2.138   1.495   5.548  1.9540  1.0393 -1.0855
    4CHL1   H7B  235   2.007   1.614   5.574  0.7291 -0.9629 -0.4079
    4CHL1    C8  236   2.177   1.712   5.512 -0.0684 -0.1980 -0.3592
    4CHL1    H8  237   2.284   1.688   5.495  0.2711 -0.6807  2.0358
    4CHL1   C14  238   2.094   1.726   5.382  0.2162 -0.2335 -0.1488
    4CHL1   H14  239   1.988   1.744   5.411  0.5409  0.6564  0.5435
    4CHL1   C15  240   2.096   1.610   5.284 -0.4476  0.6536  0.1756
    4CHL1  H15A  241   2.201   1.578   5.269 -0.7438  0.5946 -2.0867
    4CHL1  H15B  242   2.036   1.525   5.324  0.9899 -0.9264 -0.8832
    4CHL1   C16  243   2.041   1.674   5.154 -0.9920 -0.0816  0.1395
    4CHL1  H16A  244   2.114   1.650   5.073 -1.8096 -0.1528 -0.5939
    4CHL1  H16B  245   1.943   1.628   5.129  0.0445 -3.4072  1.6530
    4CHL1   C17  246   2.035   1.826   5.178  0.0662 -0.0479 -0.1929
    4CHL1   H17  247   1.929   1.844   5.206 -0.3628  0.6420 -2.1369
    4CHL1   C13  248   2.134   1.846   5.299  0.5325  0.0838  0.3212
    4CHL1   C18  249   2.275   1.834   5.237 -0.5079 -0.1850 -1.0368
    4CHL1  H18A  250   2.293   1.764   5.152 -0.7362 -0.6067 -0.7410
    4CHL1  H18B  251   2.317   1.929   5.198  0.6467 -0.9169 -1.6237
    4CHL1  H18C  252   2.340   1.797   5.319  0.0975  1.5846 -0.6912
    4CHL1   C12  253   2.121   1.979   5.381 -0.1753  0.7773  0.0295
    4CHL1  H12A  254   2.165   2.059   5.318 -0.1453 -0.8029 -2.0891
    4CHL1  H12B  255   2.014   1.999   5.401 -0.4634 -0.8284  0.2682
    4CHL1   C11  256   2.204   1.969   5.505  0.6599 -0.7116 -0.0368
    4CHL1  H11A  257   2.310   1.971   5.473  0.5277 -0.5819 -0.4797
    4CHL1  H11B  258   2.197   2.056   5.574  2.3704 -2.2551  2.2038
    4CHL1    C9  259   2.167   1.839   5.586  0.6606 -0.5333 -0.3153
    4CHL1    H9  260   2.058   1.849   5.604  0.0661 -0.8709 -3.2498
    4CHL1   C10  261   2.224   1.835   5.731  0.9280  0.5896  0.3845
    4CHL1   C19  262   2.376   1.867   5.717  0.4521 -0.0774  0.2242
    4CHL1  H19A  263   2.388   1.972   5.682 -0.4405 -0.7468 -2.2825
    4CHL1  H19B  264   2.427   1.849   5.815  0.1795 -1.1913  0.1756
    4CHL1  H19C  265   2.411   1.801   5.635 -0.2376 -1.4157  0.9576
    4CHL1    C1  266   2.159   1.939   5.823  1.0441  0.5361  0.0716
    4CHL1   H1A  267   2.190   2.039   5.786  0.4653  0.9244  0.6145
    4CHL1   H1B  268   2.048   1.937   5.823  1.0549 -0.2276 -0.3711
    4CHL1    C2  269   2.204   1.926   5.976 -0.5502 -0.4998 -0.2057
    4CHL1   H2A  270   2.139   1.997   6.033 -0.5011  0.8997 -1.8102
    4CHL1   H2B  271   2.312   1.953   5.983  0.2729 -3.1207 -1.7760
    4CHL1   C20  272   2.077   1.900   5.045  0.9066 -1.0267  0.5106
    4CHL1   H20  273   2.186   1.896   5.025  1.2603  1.8811  1.3582
    4CHL1   C21  274   2.046   2.048   5.063 -0.9809  0.1028  0.0445
    4CHL1  H21A  275   2.102   2.100   5.143 -0.2905  0.6747 -0.7877
    4CHL1  H21B  276   1.939   2.075   5.076  0.0220  4.3951  0.8815
    4CHL1  H21C  277   2.080   2.102   4.972 -1.7166 -2.0757 -1.6009
    4CHL1   C22  278   2.012   1.848   4.909 -0.6256  0.0792  0.1711
    4CHL1  H22A  279   2.046   1.744   4.893 -0.0422 -0.0447  1.9624
    4CHL1  H22B  280   1.901   1.846   4.916 -0.6671  1.4250  0.1499
    4CHL1   C23  281   2.054   1.919   4.785  0.1426 -1.0462 -0.5644
    4CHL1  H23A  282   2.009   2.021   4.784  2.0366 -0.0802  1.5165
    4CHL1  H23B  283   2.162   1.945   4.798 -0.3490  1.2686 -0.6060
    4CHL1   C24  284   2.029   1.844   4.652 -0.6040  0.5948  0.0988
    4CHL1  H24A  285   2.090   1.751   4.650 -1.2033  0.1986  0.0057
    4CHL1  H24B  286   1.925   1.806   4.643 -0.2090 -0.3867 -0.4745
    4CHL1   C25  287   2.061   1.937   4.532 -0.1410 -0.2991 -0.1085
    4CHL1   H25  288   2.003   2.031   4.547 -1.1832 -1.2778  2.7372
    4CHL1   C26  289   2.210   1.967   4.534  0.0971  0.2207 -0.3330
    4CHL1  H26A  290   2.241   2.003   4.635  1.4613 -0.6031 -0.4361
    4CHL1  H26B  291   2.268   1.874   4.520 -1.0791 -0.5879  0.0398
    4CHL1  H26C  292   2.243   2.044   4.461  0.6499 -0.0936 -0.4143
    4CHL1   C27  293   2.023   1.890   4.395  0.7073  0.6156 -0.0847
    4CHL1  H27A  294   2.034   1.779   4.399  0.0118  0.5474  0.1925
    4CHL1  H27B  295   1.919   1.924   4.377  0.7012  1.0201  0.6781
    4CHL1  H27C  296   2.094   1.937   4.324  0.4127  1.4304  0.1532
    5CHL1    C3  297   2.065   4.597   6.195 -0.0543 -0.2791 -0.7140
    5CHL1    H3  298   2.049   4.701   6.158  0.5176  0.9462  2.1611
    5CHL1    O3  299   2.098   4.610   6.334  0.3080 -0.2334  0.2765
    5CHL1   H3'  300   2.131   4.524   6.360  0.0963 -0.9797 -1.7116
    5CHL1    C4  301   1.938   4.516   6.179 -0.0547  0.3328  0.3630
    5CHL1   H4A  302   1.945   4.419   6.233  0.4109 -0.7519 -1.5600
    5CHL1   H4B  303   1.862   4.585   6.222  1.4011  2.7552 -0.7290
    5CHL1    C5  304   1.910   4.472   6.036 -0.3145 -0.6625  0.7963
    5CHL1    C6  305   1.794   4.509   5.974  0.1335  0.3048 -0.0390
    5CHL1    H6  306   1.711   4.551   6.033  0.4691 -0.3561  0.9267
    5CHL1    C7  307   1.754   4.465   5.841 -0.0221  0.7207  0.6730
    5CHL1   H7A  308   1.650   4.427   5.841  0.2115  0.0549  0.9017
    5CHL1   H7B  309   1.738   4.546   5.767 -0.2149 -0.5766 -0.7522
    5CHL1    C8  310   1.848   4.369   5.764 -0.2081 -0.4810 -0.3667
    5CHL1    H8  311   1.812   4.273   5.807 -1.5935 -0.7477 -2.0423
    5CHL1   C14  312   1.831   4.368   5.608  0.0027 -0.2134 -0.9096
    5CHL1   H14  313   1.856   4.473   5.581  1.7023 -0.4063 -0.1882
    5CHL1   C15  314   1.690   4.355   5.545  0.1934  0.0047  0.0930
    5CHL1  H15A  315   1.629   4.269   5.580 -0.7723  1.4048  2.0204
    5CHL1  H15B  316   1.621   4.439   5.566  0.9245  0.5102  0.5179
    5CHL1   C16  317   1.723   4.340   5.395 -0.3885  0.3169  0.2340
    5CHL1  H16A  318   1.655   4.261   5.356 -0.9310  0.3908  1.0156
    5CHL1  H16B  319   1.703   4.430   5.333 -0.9323 -1.4915 -2.3727
    5CHL1   C17  320   1.871   4.299   5.390 -0.5043  0.1119  0.1939
    5CHL1   H17  321   1.916   4.394   5.354  2.0088 -0.4230  1.6334
    5CHL1   C13  322   1.921   4.279   5.530 -0.9650  0.4153 -0.7914
    5CHL1   C18  323   1.901   4.130   5.579 -0.5861 -0.1518 -0.6605
    5CHL1  H18A  324   1.806   4.095   5.533 -0.6851  1.0398 -1.4126
    5CHL1  H18B  325   1.987   4.072   5.538 -0.2178  0.1295 -0.2887
    5CHL1  H18C  326   1.905   4.127   5.690  0.1736 -2.0299 -0.6993
    5CHL1   C12  327   2.064   4.330   5.563  0.7425 -0.4774  0.0526
    5CHL1  H12A  328   2.132   4.281   5.490 -0.4394 -0.5079 -1.0711
    5CHL1  H12B  329   2.069   4.438   5.537  0.7082 -0.3535  0.5503
    5CHL1   C11  330   2.091   4.327   5.714 -0.1042  0.4061 -0.3309
    5CHL1  H11A  331   2.104   4.222   5.749 -0.0947 -0.9630 -3.9783
    5CHL1  H11B  332   2.191   4.373   5.728 -0.3672  0.5388  1.3793
    5CHL1    C9  333   1.994   4.406   5.803  0.2120  0.6346  0.1094
    5CHL1    H9  334   2.009   4.510   5.769 -2.2871  0.9273 -0.2341
    5CHL1   C10  335   2.020   4.410   5.955  0.4740  0.4156 -0.3403
    5CHL1   C19  336   2.030   4.266   6.009  0.1426 -0.0051 -0.9068
    5CHL1  H19A  337   2.071   4.272   6.113  1.2449 -1.6461 -1.2142
    5CHL1  H19B  338   1.937   4.206   6.005 -0.1734  0.0306  2.5407
    5CHL1  H19C  339   2.110   4.212   5.954  0.7797  0.1713 -0.1809
    5CHL1    C1  340   2.150   4.502   5.980 -0.2072 -0.4617  0.2577
    5CHL1   H1A  341   2.233   4.454   5.924 -0.7586 -0.2746 -0.7406
    5CHL1   H1B  342   2.138   4.602   5.934  0.0884  0.1352  1.4342
    5CHL1    C2  343   2.179   4.530   6.125 -0.2409 -0.5222 -0.6397
    5CHL1   H2A  344   2.267   4.598   6.130  0.1656 -1.0943  0.3221
    5CHL1   H2B  345   2.217   4.445   6.186  0.8158  2.0192  2.6281
    5CHL1   C20  346   1.915   4.195   5.279  0.4376  0.5609 -0.8186
    5CHL1   H20  347   1.884   4.093   5.307  0.2957  0.6187 -0.7609
    5CHL1   C21  348   2.061   4.189   5.256 -0.0518 -0.7314  0.0875
    5CHL1  H21A  349   2.096   4.291   5.230  2.9618 -1.4088  1.0555
    5CHL1  H21B  350   2.070   4.120   5.169  2.7635 -0.6693  0.2456
    5CHL1  H21C  351   2.127   4.143   5.333  2.2725  2.1615 -0.0186
    5CHL1   C22  352   1.843   4.221   5.139  0.6967 -0.6103  0.0423
    5CHL1  H22A  353   1.887   4.149   5.067 -0.3949 -1.8437  0.5657
    5CHL1  H22B  354   1.736   4.194   5.151 -0.0684  1.4801 -1.4386
    5CHL1   C23  355   1.861   4.366   5.080 -0.3995  0.3395 -0.0441
    5CHL1  H23A  356   1.821   4.436   5.156 -0.1832 -1.6684  2.0354
    5CHL1  H23B  357   1.972   4.376   5.083 -0.4459  0.7786  0.2898
    5CHL1   C24  358   1.806   4.379   4.932 -0.0998 -0.4207  0.0042
    5CHL1  H24A  359   1.857   4.322   4.852  1.5940  1.3022 -0.2277
    5CHL1  H24B  360   1.703   4.336   4.933  0.1360 -1.0586 -1.3821
    5CHL1   C25  361   1.797   4.526   4.879 -1.2465 -0.3584 -0.2671
    5CHL1   H25  362   1.904   4.555   4.877 -1.5960  1.0506  0.5253
    5CHL1   C26  363   1.736   4.549   4.740 -0.4043 -0.4214 -0.2923
    5CHL1  H26A  364   1.629   4.517   4.733 -0.1533 -1.2615 -0.4621
    5CHL1  H26B  365   1.746   4.656   4.713 -0.8305 -0.7535 -1.8951
    5CHL1  H26C  366   1.800   4.486   4.675  1.4911  1.5615 -0.4580
    5CHL1   C27  367   1.723   4.620   4.971  0.2627 -0.5660 -0.3407
    5CHL1  H27A  368   1.766   4.633   5.073  2.3072  1.0625 -1.3302
    5CHL1  H27B  369   1.723   4.722   4.927 -1.7358  0.2495  1.3989
    5CHL1  H27C  370   1.617   4.590   4.984 -0.6776  1.7448 -1.8953
    6CHL1    C3  371   1.659   1.739   6.071  0.1898 -0.3577  0.0651
    6CHL1    H3  372   1.600   1.832   6.083 -0.2277 -0.5033 -0.7408
    6CHL1    O3  373   1.702   1.691   6.201 -0.0667 -0.3468  0.0453
    6CHL1   H3'  374   1.618   1.680   6.247  0.8126 -1.1082  1.5327
    6CHL1    C4  375   1.581   1.617   6.018  0.1576 -0.1741  0.9253
    6CHL1   H4A  376   1.643   1.526   6.031  0.8124  0.3060  1.2315
    6CHL1   H4B  377   1.491   1.599   6.081 -1.6597  1.1957 -1.1236
    6CHL1    C5  378   1.535   1.630   5.873  0.2524  0.2753 -0.1763
    6CHL1    C6  379   1.413   1.594   5.824 -0.8242 -0.3658  0.1357
    6CHL1    H6  380   1.340   1.543   5.889 -1.0564  0.8126  0.8272
    6CHL1    C7  381   1.388   1.591   5.680 -0.1040 -0.1474  0.5375
    6CHL1   H7A  382   1.353   1.490   5.652  4.3505 -1.8269  0.2439
    6CHL1   H7B  383   1.303   1.649   5.638 -1.1261 -1.8396  0.1783
    6CHL1    C8  384   1.506   1.620   5.582  0.2678 -0.1367 -1.1668
    6CHL1    H8  385   1.558   1.522   5.579  0.0885 -0.6110  3.5760
    6CHL1   C14  386   1.464   1.662   5.440  0.0119  0.1115 -0.4289
    6CHL1   H14  387   1.425   1.765   5.452  0.9542  0.6280 -1.5663
    6CHL1   C15  388   1.348   1.582   5.374  0.6014  0.1715 -0.3082
    6CHL1  H15A  389   1.360   1.474   5.399  0.4420  0.5610  1.6413
    6CHL1  H15B  390   1.254   1.623   5.416  2.9112  3.0371  2.5720
    6CHL1   C16  391   1.377   1.606   5.227  0.1175 -0.1216 -0.2893
    6CHL1  H16A  392   1.396   1.507   5.180 -1.3199 -1.5421  1.8963
    6CHL1  H16B  393   1.292   1.663   5.185 -0.6184 -1.2563 -0.3814
    6CHL1   C17  394   1.499   1.702   5.214 -0.2534 -0.1128  0.4690
    6CHL1   H17  395   1.460   1.804   5.231 -2.8887 -0.7473 -1.1525
    6CHL1   C13  396   1.578   1.669   5.344 -0.0371  0.3395 -0.4824
    6CHL1   C18  397   1.654   1.531   5.333 -0.0216  0.4247  0.2621
    6CHL1  H18A  398   1.717   1.498   5.419  0.4530  1.4333  0.3165
    6CHL1  H18B  399   1.582   1.448   5.319  0.8056 -0.2134 -0.3447
    6CHL1  H18C  400   1.718   1.537   5.242 -1.6390  0.9945 -0.8793
    6CHL1   C12  401   1.672   1.779   5.397 -0.7998 -0.4623 -0.7671
    6CHL1  H12A  402   1.767   1.784   5.341  0.6344  0.3428  1.5909
    6CHL1  H12B  403   1.611   1.871   5.385 -0.8869 -0.4552 -0.2928
    6CHL1   C11  404   1.712   1.764   5.548 -0.9451 -0.6772 -0.0353
    6CHL1  H11A  405   1.773   1.672   5.536 -1.8671 -1.5725  1.8146
    6CHL1  H11B  406   1.770   1.856   5.568  0.1058 -0.4959 -3.2232
    6CHL1    C9  407   1.604   1.723   5.646  0.1262  0.4892 -0.2185
    6CHL1    H9  408   1.555   1.821   5.664  0.9510  0.7602  0.6521
    6CHL1   C10  409   1.652   1.678   5.781  0.9350  0.1832 -0.0800
    6CHL1   C19  410   1.749   1.564   5.768 -0.0530  0.7758  0.4756
    6CHL1  H19A  411   1.836   1.597   5.707  0.1527  0.4674  0.5958
    6CHL1  H19B  412   1.793   1.532   5.865  2.0651 -0.1861 -0.7195
    6CHL1  H19C  413   1.700   1.477   5.720  1.9079  0.4597 -1.0823
    6CHL1    C1  414   1.727   1.800   5.847 -0.0010  0.8139 -0.4034
    6CHL1   H1A  415   1.819   1.832   5.793 -0.5848  2.6019 -0.4132
    6CHL1   H1B  416   1.669   1.894   5.836  0.1469  0.7167 -2.4730
    6CHL1    C2  417   1.779   1.777   5.987  0.0400  0.4927  0.0574
    6CHL1   H2A  418   1.827   1.867   6.031  0.0939  0.6802 -0.3794
    6CHL1   H2B  419   1.845   1.687   5.979 -0.6041  0.0856 -0.7549
    6CHL1   C20  420   1.575   1.704   5.079  0.2877 -0.3332  0.0105
    6CHL1   H20  421   1.679   1.739   5.098 -0.4963  1.6466  0.8990
    6CHL1   C21  422   1.528   1.826   4.997  0.3998  1.1289 -0.1889
    6CHL1  H21A  423   1.592   1.841   4.907  0.2685  2.7331 -0.0438
    6CHL1  H21B  424   1.526   1.915   5.064 -1.4413  0.5051  0.6432
    6CHL1  H21C  425   1.425   1.814   4.957 -0.8665 -0.3925  3.1728
    6CHL1   C22  426   1.577   1.576   4.995  0.4942  0.3687 -0.1940
    6CHL1  H22A  427   1.618   1.498   5.062 -0.2105  0.4931  0.4022
    6CHL1  H22B  428   1.472   1.548   4.969  1.4368 -1.2503 -2.5808
    6CHL1   C23  429   1.661   1.577   4.865 -0.2688  0.1160 -0.7973
    6CHL1  H23A  430   1.621   1.656   4.798 -2.1971  0.3519  0.5468
    6CHL1  H23B  431   1.759   1.606   4.909 -0.0142  0.8073 -1.7965
    6CHL1   C24  432   1.689   1.446   4.791  0.3775 -0.4581 -0.1440
    6CHL1  H24A  433   1.727   1.381   4.873 -0.6404  0.7667  1.3632
    6CHL1  H24B  434   1.604   1.381   4.759 -0.1033 -0.3672  0.8989
    6CHL1   C25  435   1.789   1.452   4.674  0.7433  0.4644  0.0735
    6CHL1   H25  436   1.760   1.544   4.618  0.3172  0.7268  0.7190
    6CHL1   C26  437   1.935   1.461   4.719 -0.1723  0.1805  0.0856
    6CHL1  H26A  438   1.988   1.476   4.622  0.4713  0.0482  0.4122
    6CHL1  H26B  439   1.955   1.551   4.781  0.6360 -1.2810  2.0139
    6CHL1  H26C  440   1.972   1.364   4.758 -1.4517 -1.7184 -3.0241
    6CHL1   C27  441   1.768   1.326   4.583  0.0395 -0.8466 -0.8425
    6CHL1  H27A  442   1.816   1.236   4.626  1.3007 -0.1663 -0.7829
    6CHL1  H27B  443   1.664   1.307   4.548  0.2772  1.9753 -3.5356
    6CHL1  H27C  444   1.825   1.338   4.489  3.2524  1.1898  1.1589
    7CHL1    C3  445   1.830   2.829   6.018 -0.1118  0.4445 -0.0059
    7CHL1    H3  446   1.721   2.852   6.017 -0.1573  1.2664  4.4407
    7CHL1    O3  447   1.877   2.792   6.142 -0.0966  0.2163  0.1442
    7CHL1   H3'  448   1.852   2.700   6.152  3.0653 -0.7696  0.0494
    7CHL1    C4  449   1.850   2.710   5.925  0.5052 -0.0688  0.2347
    7CHL1   H4A  450   1.953   2.673   5.941  0.6755 -0.3928 -1.4141
    7CHL1   H4B  451   1.780   2.630   5.959  1.0655 -0.9231 -0.5712
    7CHL1    C5  452   1.824   2.739   5.786  0.6581  0.1791  0.4138
    7CHL1    C6  453   1.723   2.678   5.718  0.2664  0.3072  0.3834
    7CHL1    H6  454   1.665   2.602   5.771 -3.1380  3.3314  1.4233
    7CHL1    C7  455   1.689   2.698   5.571  0.2883  0.8724 -0.0300
    7CHL1   H7A  456   1.688   2.600   5.519 -0.3478  1.0308 -0.3205
    7CHL1   H7B  457   1.585   2.735   5.560 -0.2202 -1.1638 -4.0650
    7CHL1    C8  458   1.791   2.790   5.503 -0.2146  0.0711 -0.4122
    7CHL1    H8  459   1.880   2.726   5.484 -0.2804 -0.2538  0.3381
    7CHL1   C14  460   1.736   2.846   5.371 -0.2739  0.2986  0.5885
    7CHL1   H14  461   1.645   2.906   5.394 -1.3078 -0.8282 -0.4337
    7CHL1   C15  462   1.698   2.744   5.263  0.5972 -0.0905 -0.1996
    7CHL1  H15A  463   1.776   2.665   5.253  0.5755 -0.0054 -1.0435
    7CHL1  H15B  464   1.597   2.705   5.285  0.3395  0.0095 -1.1721
    7CHL1   C16  465   1.691   2.820   5.128  0.2464  0.4232  0.3539
    7CHL1  H16A  466   1.728   2.750   5.051  1.7045 -0.2625  1.6331
    7CHL1  H16B  467   1.588   2.841   5.092  0.5166  1.6114  0.2290
    7CHL1   C17  468   1.769   2.954   5.162 -0.0992  0.5894  0.5635
    7CHL1   H17  469   1.692   3.029   5.189  0.1925  2.1756 -2.6049
    7CHL1   C13  470   1.839   2.937   5.293 -0.2021 -0.1503  0.5024
    7CHL1   C18  471   1.975   2.856   5.270  0.1343  0.0743  1.1440
    7CHL1  H18A  472   2.016   2.832   5.371 -0.4033 -1.3581  1.0485
    7CHL1  H18B  473   1.972   2.756   5.223 -0.1923 -0.4020  2.1391
    7CHL1  H18C  474   2.050   2.920   5.220  0.3243 -1.2807 -0.3730
    7CHL1   C12  475   1.855   3.062   5.383  0.2688 -0.2908 -0.0237
    7CHL1  H12A  476   1.922   3.139   5.339 -3.2188  2.0416 -1.7345
    7CHL1  H12B  477   1.754   3.109   5.389  0.7828  0.6920  3.5711
    7CHL1   C11  478   1.903   3.025   5.522  0.3231  0.6127  0.3934
    7CHL1  H11A  479   2.005   2.988   5.501 -1.2165 -2.2156 -3.1776
    7CHL1  H11B  480   1.904   3.122   5.576 -0.4335  0.0579  1.4435
    7CHL1    C9  481   1.824   2.910   5.593 -0.4242 -0.6098 -0.0939
    7CHL1    H9  482   1.728   2.960   5.616  0.7737  1.1890  1.3172
    7CHL1   C10  483   1.895   2.865   5.728 -0.3594  0.0723  0.1147
    7CHL1   C19  484   2.045   2.835   5.706 -0.1222  0.3237  1.0245
    7CHL1  H19A  485   2.049   2.783   5.609 -1.8844  0.7392  0.6845
    7CHL1  H19B  486   2.107   2.925   5.685  0.6295  0.0784  2.0774
    7CHL1  H19C  487   2.089   2.774   5.788  2.1428  0.7469  0.1827
    7CHL1    C1  488   1.877   2.978   5.824 -0.5907 -0.0571 -0.3307
    7CHL1   H1A  489   1.930   3.066   5.781 -0.4450 -0.4510 -0.9795
    7CHL1   H1B  490   1.772   3.013   5.823 -0.3101  0.8067 -0.6015
    7CHL1    C2  491   1.911   2.945   5.970 -0.6054 -0.6906 -0.4943
    7CHL1   H2A  492   1.885   3.033   6.033 -0.1519  0.6555 -2.1105
    7CHL1   H2B  493   2.020   2.926   5.977  0.3241  3.3653 -1.3007
    7CHL1   C20  494   1.846   3.012   5.041 -0.3029 -0.3733  0.4281
    7CHL1   H20  495   1.943   2.959   5.042 -0.3566 -0.4705  0.7921
    7CHL1   C21  496   1.884   3.161   5.054  0.2990 -0.2049 -0.1904
    7CHL1  H21A  497   1.801   3.227   5.086  2.0335  2.6234 -1.1869
    7CHL1  H21B  498   1.933   3.189   4.958 -0.1431 -1.8252 -0.9395
    7CHL1  H21C  499   1.963   3.162   5.131 -0.9919  2.0029  1.1999
    7CHL1   C22  500   1.775   2.979   4.909 -0.1620 -0.8028  0.1196
    7CHL1  H22A  501   1.812   2.876   4.894  4.1786  0.1993  2.3568
    7CHL1  H22B  502   1.666   3.000   4.915  0.2954  2.0953 -0.2117
    7CHL1   C23  503   1.820   3.060   4.786  0.0223 -0.5639 -0.5611
    7CHL1  H23A  504   1.794   3.168   4.792  0.9096 -0.3392 -0.5855
    7CHL1  H23B  505   1.931   3.055   4.793 -0.0920 -3.6750  0.5097
    7CHL1   C24  506   1.786   2.982   4.659  0.4815 -0.7417 -0.8324
    7CHL1  H24A  507   1.832   2.881   4.650  0.8828 -0.5960 -0.4484
    7CHL1  H24B  508   1.678   2.959   4.668  0.6762 -1.4819 -0.2854
    7CHL1   C25  509   1.799   3.056   4.521  0.0663  0.2288 -0.4933
    7CHL1   H25  510   1.744   3.153   4.523  0.2536  0.3298 -0.2466
    7CHL1   C26  511   1.945   3.083   4.481  0.7768 -0.0488  0.5229
    7CHL1  H26A  512   1.998   3.154   4.547 -0.4685  0.8749  0.5715
    7CHL1  H26B  513   1.995   2.984   4.489  2.4301  0.5727 -1.4147
    7CHL1  H26C  514   1.959   3.122   4.378 -0.9194  3.7692  1.5753
    7CHL1   C27  515   1.741   2.966   4.410  0.1378  0.4012  0.2136
    7CHL1  H27A  516   1.639   3.006   4.393  0.2921  0.2730 -1.1948
    7CHL1  H27B  517   1.800   2.967   4.315  0.2794 -1.6569  0.2298
    7CHL1  H27C  518   1.742   2.862   4.449 -1.5740  0.1569 -0.3217
    8CHL1    C3  519   0.598   1.239   5.974 -0.0164 -0.3741  0.4165
    8CHL1    H3  520   0.595   1.349   5.953  3.6752 -0.2422 -0.0625
    8CHL1    O3  521   0.573   1.207   6.104  0.2320 -0.1479  0.1549
    8CHL1   H3'  522   0.632   1.134   6.123  1.5339  0.8988  0.2773
    8CHL1    C4  523   0.504   1.162   5.881  0.4113  0.0003 -0.3609
    8CHL1   H4A  524   0.498   1.056   5.912  1.5318  0.4893  1.7088
    8CHL1   H4B  525   0.399   1.199   5.886  0.3282 -0.2878  0.0231
    8CHL1    C5  526   0.553   1.155   5.742 -0.2522  0.0986  0.1170
    8CHL1    C6  527   0.474   1.206   5.636  0.1725 -0.0832 -0.1629
    8CHL1    H6  528   0.374   1.246   5.656  0.2558  0.5467 -0.9596
    8CHL1    C7  529   0.518   1.208   5.494 -0.7459  0.0392  0.2284
    8CHL1   H7A  530   0.432   1.194   5.425 -2.2794 -0.3371  2.1231
    8CHL1   H7B  531   0.564   1.307   5.475 -0.1907 -0.3923 -0.7537
    8CHL1    C8  532   0.624   1.099   5.470  0.1396  0.4952  0.4473
    8CHL1    H8  533   0.572   1.001   5.479 -0.4625  0.6226 -1.2200
    8CHL1   C14  534   0.681   1.108   5.326 -0.0642  0.1939  0.8086
    8CHL1   H14  535   0.725   1.209   5.312  0.9245 -0.3342  0.0314
    8CHL1   C15  536   0.579   1.112   5.214  0.0060  0.5993  0.5732
    8CHL1  H15A  537   0.510   1.025   5.217 -0.5466  1.0274  0.4556
    8CHL1  H15B  538   0.515   1.202   5.227 -1.9877 -0.8548  1.4291
    8CHL1   C16  539   0.664   1.086   5.088  0.2517 -0.6336  0.3069
    8CHL1  H16A  540   0.633   0.993   5.037  0.8807 -1.3033  1.1055
    8CHL1  H16B  541   0.656   1.168   5.013 -0.7114  2.0575  3.1437
    8CHL1   C17  542   0.820   1.063   5.135 -0.1450  0.7637 -0.3863
    8CHL1   H17  543   0.852   1.169   5.139  0.1813  0.6295  1.1379
    8CHL1   C13  544   0.800   1.018   5.286 -0.4086  0.4057  0.6104
    8CHL1   C18  545   0.766   0.869   5.285 -0.1081 -0.7296 -0.3607
    8CHL1  H18A  546   0.720   0.857   5.385  0.6893  2.1312  0.4334
    8CHL1  H18B  547   0.687   0.855   5.207  0.4898 -0.5240 -1.0104
    8CHL1  H18C  548   0.853   0.803   5.265  0.2518 -0.1557 -0.6861
    8CHL1   C12  549   0.916   1.047   5.385 -0.5184 -0.4909  0.6246
    8CHL1  H12A  550   1.002   0.978   5.373  1.9247  2.3760  0.5531
    8CHL1  H12B  551   0.960   1.149   5.377  2.7727 -1.9286 -2.0450
    8CHL1   C11  552   0.859   1.029   5.529  0.2019  0.6646  0.7174
    8CHL1  H11A  553   0.833   0.921   5.537 -3.4385  1.2588 -0.9148
    8CHL1  H11B  554   0.936   1.034   5.609  0.6381  0.4734  0.3086
    8CHL1    C9  555   0.736   1.116   5.564 -0.0682  0.0843 -0.6740
    8CHL1    H9  556   0.772   1.219   5.547 -0.0638 -0.2014 -2.5987
    8CHL1   C10  557   0.698   1.106   5.717  0.3002 -0.5048  0.3327
    8CHL1   C19  558   0.705   0.952   5.753 -0.1286  0.0237 -0.0177
    8CHL1  H19A  559   0.675   0.945   5.860  2.6659 -0.2741  0.8326
    8CHL1  H19B  560   0.635   0.895   5.689  0.6814 -1.4741  0.3896
    8CHL1  H19C  561   0.808   0.910   5.754 -0.1147  0.0439 -0.5997
    8CHL1    C1  562   0.791   1.196   5.806  0.1913  0.2093 -0.2469
    8CHL1   H1A  563   0.898   1.169   5.789 -0.0954 -0.8719 -0.4407
    8CHL1   H1B  564   0.782   1.302   5.777 -1.3058  0.2134  0.1682
    8CHL1    C2  565   0.743   1.198   5.960  0.1905 -0.2981  0.7454
    8CHL1   H2A  566   0.814   1.265   6.013 -0.0692  0.7450 -0.1897
    8CHL1   H2B  567   0.752   1.092   5.993  0.4421 -0.9116 -1.1746
    8CHL1   C20  568   0.902   0.980   5.038 -0.1428  0.1459 -0.1070
    8CHL1   H20  569   0.862   0.877   5.033 -2.4992  0.8398  1.8477
    8CHL1   C21  570   1.051   0.977   5.087  0.4159  0.2064 -0.0609
    8CHL1  H21A  571   1.100   1.076   5.081  0.3709  0.1857 -0.8544
    8CHL1  H21B  572   1.109   0.901   5.030 -3.1363 -1.9332 -1.1495
    8CHL1  H21C  573   1.067   0.939   5.191  0.3463  1.5233  0.4492
    8CHL1   C22  574   0.890   1.028   4.891 -0.5384 -0.4438  0.4041
    8CHL1  H22A  575   0.784   1.044   4.862 -0.0590  2.4080 -0.1069
    8CHL1  H22B  576   0.940   1.127   4.897 -0.0590 -0.4850 -1.9788
    8CHL1   C23  577   0.959   0.939   4.783  0.4896 -0.0131 -0.2403
    8CHL1  H23A  578   1.065   0.912   4.801 -0.0523 -0.8355  2.0786
    8CHL1  H23B  579   0.908   0.840   4.791 -0.4848  0.1249 -3.2872
    8CHL1   C24  580   0.961   0.996   4.634 -0.8925 -0.0143 -0.6978
    8CHL1  H24A  581   0.998   0.910   4.574 -1.2621 -0.7878  0.1499
    8CHL1  H24B  582   0.855   1.009   4.602 -1.1321 -0.9390 -0.3071
    8CHL1   C25  583   1.043   1.128   4.606  0.2757  0.8077 -0.0962
    8CHL1   H25  584   0.989   1.207   4.662 -1.0103  1.9562 -2.7537
    8CHL1   C26  585   1.191   1.109   4.644  0.2636 -0.3219  0.0377
    8CHL1  H26A  586   1.193   1.089   4.753 -2.0092 -1.6331 -0.1152
    8CHL1  H26B  587   1.230   1.020   4.590 -0.9833  0.3706 -2.1205
    8CHL1  H26C  588   1.242   1.204   4.617  0.7228 -0.2099  1.2391
    8CHL1   C27  589   1.021   1.171   4.467  0.0531  0.7470  0.3025
    8CHL1  H27A  590   0.914   1.194   4.444  0.4605  0.6138 -1.9378
    8CHL1  H27B  591   1.080   1.258   4.432  0.9939 -0.6395 -1.7012
    8CHL1  H27C  592   1.033   1.086   4.397 -0.3760  1.0299 -0.1286
    9CHL1    C3  593   3.444   1.738   5.948 -0.0143  0.4109  0.0747
    9CHL1    H3  594   3.342   1.696   5.946 -0.1510  0.7303  0.2892
    9CHL1    O3  595   3.487   1.763   6.083 -0.0669 -0.1783  0.0571
    9CHL1   H3'  596   3.413   1.802   6.130 -0.2454  2.0043 -1.8591
    9CHL1    C4  597   3.539   1.617   5.907  0.2081 -0.2368  0.0722
    9CHL1   H4A  598   3.643   1.654   5.913  0.3725 -0.1027 -2.5216
    9CHL1   H4B  599   3.521   1.541   5.986 -1.5204 -0.2396 -0.2838
    9CHL1    C5  600   3.512   1.576   5.766 -0.4965 -0.2113  0.0488
    9CHL1    C6  601   3.486   1.447   5.736 -0.8625  0.1465  0.2729
    9CHL1    H6  602   3.479   1.376   5.820 -3.1464  0.1399  0.1365
    9CHL1    C7  603   3.456   1.398   5.598  0.1923 -0.4967  0.3730
    9CHL1   H7A  604   3.510   1.304   5.572  1.3918  0.6361 -1.4295
    9CHL1   H7B  605   3.347   1.394   5.579  0.2900 -1.6248 -0.0303
    9CHL1    C8  606   3.510   1.499   5.494 -0.3895  0.7349 -0.5710
    9CHL1    H8  607   3.620   1.484   5.488 -0.3796 -0.3773  1.5522
    9CHL1   C14  608   3.451   1.470   5.358 -0.4663  0.8782  0.2653
    9CHL1   H14  609   3.342   1.485   5.362 -0.6648 -0.4857  0.4955
    9CHL1   C15  610   3.469   1.322   5.301  0.6427  0.8165  0.5108
    9CHL1  H15A  611   3.563   1.284   5.346  1.2244  1.1132 -0.4273
    9CHL1  H15B  612   3.385   1.264   5.346  0.9679 -0.1146 -0.0590
    9CHL1   C16  613   3.473   1.332   5.146  0.8816  0.7011 -0.3272
    9CHL1  H16A  614   3.567   1.288   5.107 -0.5473 -3.0458 -0.0202
    9CHL1  H16B  615   3.394   1.274   5.094 -0.0587  0.0523  1.7118
    9CHL1   C17  616   3.444   1.479   5.116  0.0840  0.2307  0.4654
    9CHL1   H17  617   3.334   1.495   5.118 -0.3930 -1.6870 -2.9256
    9CHL1   C13  618   3.500   1.558   5.241 -0.4024 -0.0445  0.0402
    9CHL1   C18  619   3.655   1.560   5.238  0.1374 -0.3088 -0.6363
    9CHL1  H18A  620   3.689   1.455   5.226 -0.8630 -0.8109  0.7086
    9CHL1  H18B  621   3.698   1.606   5.146  0.3001  1.3453  0.2276
    9CHL1  H18C  622   3.704   1.603   5.328  1.0696  1.6522 -2.0131
    9CHL1   C12  623   3.446   1.707   5.268 -0.4188 -0.5557 -0.5149
    9CHL1  H12A  624   3.478   1.771   5.183 -2.0946 -0.1445 -0.8606
    9CHL1  H12B  625   3.336   1.714   5.273 -0.3782 -0.1683 -0.1145
    9CHL1   C11  626   3.490   1.753   5.408 -0.4723 -0.5686 -0.1295
    9CHL1  H11A  627   3.600   1.766   5.400 -0.6150 -0.2749 -2.1117
    9CHL1  H11B  628   3.444   1.852   5.430  1.7062 -0.0604  2.8745
    9CHL1    C9  629   3.471   1.649   5.526 -0.0052  0.6564  0.0689
    9CHL1    H9  630   3.363   1.625   5.528  0.0901  0.2264  0.9685
    9CHL1   C10  631   3.527   1.689   5.667  0.8511 -0.1035  0.1248
    9CHL1   C19  632   3.674   1.717   5.651  0.3686  0.0516 -0.3994
    9CHL1  H19A  633   3.685   1.803   5.582  0.2189  1.0541  0.7879
    9CHL1  H19B  634   3.722   1.747   5.746  0.7371 -0.2468 -0.4877
    9CHL1  H19C  635   3.723   1.629   5.604 -0.9489 -0.7862 -0.2597
    9CHL1    C1  636   3.445   1.816   5.710 -0.1990  0.3597  0.4747
    9CHL1   H1A  637   3.471   1.900   5.641  0.1755  2.1673  2.6759
    9CHL1   H1B  638   3.337   1.799   5.691  0.2021 -0.8252 -0.9031
    9CHL1    C2  639   3.475   1.854   5.859 -0.1793 -0.1734  0.2187
    9CHL1   H2A  640   3.422   1.943   5.896 -2.7475 -2.1023  1.5144
    9CHL1   H2B  641   3.582   1.882   5.873 -0.4820  0.9416  0.3839
    9CHL1   C20  642   3.486   1.519   4.974 -0.7961  0.0813  0.8980
    9CHL1   H20  643   3.597   1.525   4.980 -0.4275  2.8538 -3.7078
    9CHL1   C21  644   3.420   1.653   4.933 -0.0356  0.0316 -0.5549
    9CHL1  H21A  645   3.471   1.739   4.982  0.6641 -1.0072  0.5990
    9CHL1  H21B  646   3.312   1.663   4.958 -0.2467  2.1994 -2.0780
    9CHL1  H21C  647   3.427   1.690   4.828 -0.9591 -0.8311 -0.9344
    9CHL1   C22  648   3.456   1.413   4.861  0.1602 -0.5021 -0.3573
    9CHL1  H22A  649   3.488   1.311   4.891  2.7971 -0.1250 -1.5494
    9CHL1  H22B  650   3.349   1.414   4.832  0.5626  1.9030 -2.0389
    9CHL1   C23  651   3.537   1.444   4.730 -0.6522  0.1027  0.3212
    9CHL1  H23A  652   3.521   1.551   4.707 -3.0398 -0.3426 -0.4050
    9CHL1  H23B  653   3.646   1.430   4.746 -0.6284  1.5501  1.6757
    9CHL1   C24  654   3.506   1.362   4.596  0.0715 -0.1536 -0.4178
    9CHL1  H24A  655   3.514   1.254   4.619  2.8871 -0.0462 -0.5152
    9CHL1  H24B  656   3.401   1.374   4.562 -0.7587 -1.6944  1.3927
    9CHL1   C25  657   3.604   1.378   4.470 -0.3615  0.1234 -0.6261
    9CHL1   H25  658   3.590   1.298   4.393  2.5179  1.0148 -2.2375
    9CHL1   C26  659   3.586   1.521   4.413  0.6624  0.1570  0.4376
    9CHL1  H26A  660   3.484   1.534   4.372  0.6780 -0.7590  0.1017
    9CHL1  H26B  661   3.595   1.595   4.497  1.7946 -0.8424  1.2355
    9CHL1  H26C  662   3.665   1.542   4.338 -0.3124  0.1168 -0.6265
    9CHL1   C27  663   3.754   1.357   4.500  0.1329  0.0261  0.4999
    9CHL1  H27A  664   3.779   1.250   4.513  1.8620  0.2418 -0.6882
    9CHL1  H27B  665   3.816   1.384   4.412  0.4877 -3.3170 -0.4261
    9CHL1  H27C  666   3.786   1.407   4.594  1.9204 -0.3075  0.1046
   10CHL1    C3  667   2.708   4.732   6.193  0.1051 -0.1093  0.2956
   10CHL1    H3  668   2.810   4.697   6.165  0.4636  0.5064  0.8112
   10CHL1    O3  669   2.698   4.775   6.325  0.4094 -0.2059 -0.3313
   10CHL1   H3'  670   2.746   4.858   6.329  0.7887 -0.4565  0.4369
   10CHL1    C4  671   2.700   4.867   6.100 -0.3889  0.0773  0.0733
   10CHL1   H4A  672   2.612   4.922   6.139 -0.6540  0.6760 -1.2955
   10CHL1   H4B  673   2.791   4.925   6.127  0.1772 -1.2447  1.1173
   10CHL1    C5  674   2.688   4.836   5.951  0.1294 -0.4916 -0.1213
   10CHL1    C6  675   2.762   4.894   5.860  0.0079  0.1869  0.3624
   10CHL1    H6  676   2.846   4.961   5.882  0.1644  0.9334 -2.1559
   10CHL1    C7  677   2.749   4.871   5.715 -0.1210  0.1879 -0.2551
   10CHL1   H7A  678   2.758   4.967   5.660 -0.1240  1.0115  1.1453
   10CHL1   H7B  679   2.826   4.800   5.677  0.4077  0.8327 -0.3970
   10CHL1    C8  680   2.607   4.812   5.682  0.0354 -0.5266 -1.1144
   10CHL1    H8  681   2.532   4.892   5.700  0.5308  0.1913 -2.1460
   10CHL1   C14  682   2.593   4.762   5.541 -0.1458 -0.1429 -0.0275
   10CHL1   H14  683   2.650   4.667   5.546  0.1807  0.0421 -0.1679
   10CHL1   C15  684   2.649   4.841   5.421 -0.0422 -0.0199 -0.2846
   10CHL1  H15A  685   2.618   4.947   5.428  3.6856  1.2935 -1.0132
   10CHL1  H15B  686   2.759   4.831   5.435  0.0052  1.3914  0.5679
   10CHL1   C16  687   2.587   4.784   5.301  0.6578 -0.8165 -0.7818
   10CHL1  H16A  688   2.542   4.869   5.245  0.9415 -0.5426 -0.5980
   10CHL1  H16B  689   2.660   4.744   5.226  0.6526 -1.7392 -0.3115
   10CHL1   C17  690   2.477   4.679   5.350  0.2389  0.1382  0.4218
   10CHL1   H17  691   2.532   4.582   5.349 -0.7596 -0.4588 -1.0788
   10CHL1   C13  692   2.456   4.709   5.504  0.0709 -0.3036 -0.0305
   10CHL1   C18  693   2.363   4.831   5.512  0.0448 -0.0606  0.3722
   10CHL1  H18A  694   2.398   4.923   5.459 -1.9454  0.8694  0.5882
   10CHL1  H18B  695   2.259   4.809   5.482 -0.6277  1.6907  1.2714
   10CHL1  H18C  696   2.361   4.858   5.620  0.1147 -2.7122  1.0984
   10CHL1   C12  697   2.421   4.589   5.592 -0.4059  0.0543 -0.2027
   10CHL1  H12A  698   2.322   4.544   5.570 -1.6139  1.5196  1.8850
   10CHL1  H12B  699   2.492   4.508   5.565 -1.2555 -0.4164 -1.0695
   10CHL1   C11  700   2.437   4.623   5.738  1.0106 -0.1046  0.5700
   10CHL1  H11A  701   2.354   4.695   5.755  1.6311  0.8942 -0.4423
   10CHL1  H11B  702   2.420   4.537   5.805  0.8088  0.1419  0.8368
   10CHL1    C9  703   2.572   4.693   5.778 -0.6575 -0.1991 -0.5558
   10CHL1    H9  704   2.654   4.619   5.766 -0.0597  0.4144 -0.3237
   10CHL1   C10  705   2.568   4.742   5.924 -0.5547  0.4090  0.1575
   10CHL1   C19  706   2.437   4.819   5.956 -0.0545 -0.0612  0.3389
   10CHL1  H19A  707   2.420   4.908   5.893 -1.9195 -0.5957  0.0286
   10CHL1  H19B  708   2.349   4.755   5.936 -0.2147  1.1691 -3.6033
   10CHL1  H19C  709   2.428   4.839   6.065  0.1870 -2.4714  0.8740
   10CHL1    C1  710   2.583   4.623   6.008  0.5684  0.3970 -0.5865
   10CHL1   H1A  711   2.500   4.550   5.996  1.4664 -0.6793 -0.3801
   10CHL1   H1B  712   2.672   4.568   5.973 -0.7372 -0.9607 -1.9413
   10CHL1    C2  713   2.594   4.638   6.155 -0.2779  0.0719 -0.6441
   10CHL1   H2A  714   2.598   4.540   6.208 -2.4434  0.2521 -0.0390
   10CHL1   H2B  715   2.499   4.685   6.190 -0.6589 -0.4386 -0.9806
   10CHL1   C20  716   2.365   4.666   5.252 -0.2927 -0.8751 -0.1902
   10CHL1   H20  717   2.320   4.765   5.233 -1.2429 -1.4624 -1.1469
   10CHL1   C21  718   2.264   4.571   5.311 -0.6703  0.3314 -0.2073
   10CHL1  H21A  719   2.310   4.482   5.359 -0.4265 -0.4485 -1.8141
   10CHL1  H21B  720   2.184   4.529   5.246  0.9121 -1.2603 -1.2021
   10CHL1  H21C  721   2.225   4.622   5.402  0.2387 -0.5622  0.7060
   10CHL1   C22  722   2.414   4.614   5.111 -0.4885 -0.8172  0.4137
   10CHL1  H22A  723   2.491   4.683   5.069  0.7622 -0.8234  2.5815
   10CHL1  H22B  724   2.458   4.513   5.127  2.3100 -0.2042 -2.2935
   10CHL1   C23  725   2.297   4.600   5.012  0.0188  0.6717 -0.2201
   10CHL1  H23A  726   2.250   4.505   5.042  2.2029 -0.7054 -0.9155
   10CHL1  H23B  727   2.218   4.679   5.013 -0.0070  0.6766 -1.1676
   10CHL1   C24  728   2.338   4.588   4.859  0.2074 -0.0163  0.3235
   10CHL1  H24A  729   2.416   4.658   4.824  0.1959 -0.1520  0.0242
   10CHL1  H24B  730   2.379   4.485   4.848  1.8457  0.8604 -2.8899
   10CHL1   C25  731   2.220   4.608   4.762  0.4575  0.1463 -0.4691
   10CHL1   H25  732   2.130   4.566   4.811  0.9510 -2.0916 -1.3554
   10CHL1   C26  733   2.210   4.756   4.732  0.0995  0.2848  0.1694
   10CHL1  H26A  734   2.300   4.805   4.692  0.0075 -1.0798 -1.8294
   10CHL1  H26B  735   2.115   4.770   4.677  1.0352 -2.3429 -2.3793
   10CHL1  H26C  736   2.186   4.812   4.825 -0.6276 -2.2193  1.5967
   10CHL1   C27  737   2.249   4.532   4.632 -0.6091  0.4432  0.0586
   10CHL1  H27A  738   2.170   4.536   4.554  1.6221  0.7689 -2.3199
   10CHL1  H27B  739   2.351   4.556   4.595 -0.9983 -0.0132 -1.3932
   10CHL1  H27C  740   2.252   4.427   4.667 -2.0782  1.2168  2.7848
   11CHL1    C3  741   0.002   6.373   6.392 -0.6034 -0.0804 -0.1021
   11CHL1    H3  742   0.102   6.339   6.358  0.7544  2.0984  1.4035
   11CHL1    O3  743   0.016   6.396   6.531 -0.0799  0.8541 -0.3137
   11CHL1   H3'  744   0.022   6.307   6.568 -0.4613  1.0497  0.2385
   11CHL1    C4  745  -0.021   6.503   6.313  0.4921  0.1156 -0.0079
   11CHL1   H4A  746  -0.101   6.565   6.358 -1.0190 -0.7841 -1.3329
   11CHL1   H4B  747   0.078   6.554   6.314  1.7368 -2.1405 -0.1665
   11CHL1    C5  748  -0.051   6.475   6.167  0.3179 -0.3715 -0.0097
   11CHL1    C6  749   0.026   6.534   6.075  0.0567  0.0529 -0.2734
   11CHL1    H6  750   0.103   6.605   6.111 -2.9736  2.8931  1.1933
   11CHL1    C7  751   0.010   6.529   5.927 -0.1206  0.0491 -0.4700
   11CHL1   H7A  752   0.002   6.632   5.888 -1.8669  0.5396  1.0300
   11CHL1   H7B  753   0.098   6.476   5.884 -0.7103 -0.4583 -1.0887
   11CHL1    C8  754  -0.123   6.458   5.894  0.7752  0.0269  0.4766
   11CHL1    H8  755  -0.207   6.530   5.908 -0.1625 -0.9143 -0.1546
   11CHL1   C14  756  -0.101   6.416   5.749  1.2840  0.8333 -0.1889
   11CHL1   H14  757  -0.023   6.338   5.745  0.8757  0.4452 -0.8415
   11CHL1   C15  758  -0.056   6.517   5.644 -0.6077  0.1015  0.3703
   11CHL1  H15A  759  -0.118   6.608   5.635  0.3018  0.7380  0.4319
   11CHL1  H15B  760   0.052   6.545   5.649 -0.7131  0.3521  1.8450
   11CHL1   C16  761  -0.077   6.446   5.510 -0.5415 -0.3366  0.5016
   11CHL1  H16A  762  -0.137   6.510   5.442 -1.2696 -1.5711 -0.0640
   11CHL1  H16B  763   0.009   6.413   5.449 -0.5116 -0.0385  0.3836
   11CHL1   C17  764  -0.177   6.326   5.542 -0.0151 -0.7460 -0.7259
   11CHL1   H17  765  -0.112   6.236   5.541  2.0163  0.6323  0.4074
   11CHL1   C13  766  -0.226   6.350   5.686  0.3351  0.7335  0.0908
   11CHL1   C18  767  -0.340   6.446   5.695 -0.0629 -0.6853  0.7367
   11CHL1  H18A  768  -0.363   6.486   5.796  1.1000 -0.1583  0.8017
   11CHL1  H18B  769  -0.331   6.527   5.620  2.8057 -0.8141  0.8438
   11CHL1  H18C  770  -0.436   6.395   5.671 -0.2585 -0.2101  0.4884
   11CHL1   C12  771  -0.248   6.221   5.776  0.6605  0.1906  1.0780
   11CHL1  H12A  772  -0.334   6.165   5.736  0.8654  0.5522  0.0880
   11CHL1  H12B  773  -0.161   6.154   5.761  1.1090  0.8936  0.4335
   11CHL1   C11  774  -0.257   6.244   5.915  0.0965 -0.0395 -0.2143
   11CHL1  H11A  775  -0.347   6.307   5.929 -0.5652 -1.0063  0.0370
   11CHL1  H11B  776  -0.283   6.148   5.965 -2.2715 -0.5244 -2.1659
   11CHL1    C9  777  -0.148   6.337   5.983  0.5402 -0.5193 -0.2337
   11CHL1    H9  778  -0.054   6.277   5.982  1.5014  0.8454  1.4251
   11CHL1   C10  779  -0.154   6.376   6.131  0.5009 -0.0927  0.1321
   11CHL1   C19  780  -0.298   6.435   6.168 -0.4102 -0.1627  0.4198
   11CHL1  H19A  781  -0.318   6.426   6.277  0.1827  1.7925  0.7323
   11CHL1  H19B  782  -0.318   6.541   6.140  0.8613  0.1381  0.5634
   11CHL1  H19C  783  -0.368   6.367   6.116 -0.8525  0.9671 -0.5089
   11CHL1    C1  784  -0.132   6.243   6.212  0.5904  0.5068 -0.4623
   11CHL1   H1A  785  -0.214   6.169   6.197  0.1227  0.7541  0.7307
   11CHL1   H1B  786  -0.044   6.187   6.174 -0.4355 -1.9000  0.4760
   11CHL1    C2  787  -0.101   6.261   6.366 -0.0210  0.5295  0.3643
   11CHL1   H2A  788  -0.067   6.168   6.416 -1.5069  0.1443  0.7367
   11CHL1   H2B  789  -0.201   6.280   6.413 -0.5951 -2.7463  0.6699
   11CHL1   C20  790  -0.286   6.290   5.432  0.1257 -0.4726 -0.3158
   11CHL1   H20  791  -0.365   6.366   5.453 -1.6424 -2.6331  1.2128
   11CHL1   C21  792  -0.337   6.147   5.456  0.5137 -0.6243 -0.2862
   11CHL1  H21A  793  -0.397   6.136   5.549 -0.2999 -0.6395 -0.7994
   11CHL1  H21B  794  -0.255   6.072   5.465 -0.6872 -1.9919 -0.3666
   11CHL1  H21C  795  -0.403   6.113   5.372  0.7272 -2.0589  0.0897
   11CHL1   C22  796  -0.231   6.301   5.287  0.2630  0.0656  0.6420
   11CHL1  H22A  797  -0.174   6.394   5.264 -0.9587  0.3869 -1.2958
   11CHL1  H22B  798  -0.148   6.227   5.277  2.7695  2.3646  2.9397
   11CHL1   C23  799  -0.334   6.297   5.172 -0.3253 -0.1895 -0.1004
   11CHL1  H23A  800  -0.275   6.267   5.083 -0.2218 -1.5377  0.3969
   11CHL1  H23B  801  -0.410   6.216   5.177  1.3833 -1.9880 -1.6117
   11CHL1   C24  802  -0.391   6.441   5.141  0.3223 -0.0652  0.2562
   11CHL1  H24A  803  -0.432   6.482   5.237  2.1975 -2.0516  2.0085
   11CHL1  H24B  804  -0.311   6.503   5.095  0.3072  0.4739  0.9224
   11CHL1   C25  805  -0.506   6.443   5.035 -0.4637  0.2244 -0.0117
   11CHL1   H25  806  -0.578   6.369   5.076  1.0002 -1.3922 -0.2432
   11CHL1   C26  807  -0.563   6.581   5.021 -0.4640  0.6158  0.4360
   11CHL1  H26A  808  -0.485   6.655   4.993 -0.1639 -0.3778 -1.5087
   11CHL1  H26B  809  -0.641   6.586   4.943 -0.9472 -1.9591  0.6680
   11CHL1  H26C  810  -0.604   6.614   5.119  0.6208 -0.9628  1.4698
   11CHL1   C27  811  -0.454   6.385   4.895  0.8244 -0.1517 -0.2409
   11CHL1  H27A  812  -0.456   6.274   4.895  0.4169 -0.1776 -2.0776
   11CHL1  H27B  813  -0.524   6.412   4.812 -1.3933 -3.2245  0.4441
   11CHL1  H27C  814  -0.350   6.418   4.873  1.1983 -1.4766 -0.5679
   12CHL1    C3  815   1.659   6.030   6.058 -0.3738 -1.0692  0.4463
   12CHL1    H3  816   1.549   6.020   6.048 -0.7458  0.2770  2.6533
   12CHL1    O3  817   1.705   6.034   6.191 -0.4663  0.3733  0.1770
   12CHL1   H3'  818   1.790   6.078   6.190  0.1911 -0.8479  0.5534
   12CHL1    C4  819   1.717   5.907   5.983  0.1147 -0.0710 -0.1640
   12CHL1   H4A  820   1.825   5.904   6.006 -0.0319  0.0951  0.5563
   12CHL1   H4B  821   1.668   5.826   6.042  0.0680  0.8645  1.1267
   12CHL1    C5  822   1.697   5.903   5.831 -0.0098  0.4850  0.0282
   12CHL1    C6  823   1.666   5.789   5.774  0.0370  0.2771  0.0322
   12CHL1    H6  824   1.657   5.699   5.838 -2.0151  1.9682  2.3059
   12CHL1    C7  825   1.641   5.778   5.624  0.4282  0.2745 -0.2807
   12CHL1   H7A  826   1.696   5.689   5.586  0.4980  0.6410 -1.0489
   12CHL1   H7B  827   1.532   5.767   5.607  0.3916  1.3852 -0.7905
   12CHL1    C8  828   1.691   5.904   5.547  0.5203  0.1392 -0.1444
   12CHL1    H8  829   1.799   5.892   5.526  0.5116  1.7565 -1.3534
   12CHL1   C14  830   1.610   5.904   5.412 -0.1284 -0.2229 -0.1816
   12CHL1   H14  831   1.505   5.906   5.449  0.0686 -1.6637  0.5378
   12CHL1   C15  832   1.613   5.774   5.329  0.2863 -0.5589 -0.1823
   12CHL1  H15A  833   1.715   5.730   5.330  1.4374  1.7272 -2.6181
   12CHL1  H15B  834   1.531   5.712   5.371 -0.3449  0.8743  0.8149
   12CHL1   C16  835   1.579   5.829   5.192 -0.3868 -0.2957 -0.1628
   12CHL1  H16A  836   1.662   5.802   5.123 -1.4340  2.1415 -2.5989
   12CHL1  H16B  837   1.486   5.782   5.154  0.9171 -1.6928 -1.7874
   12CHL1   C17  838   1.552   5.986   5.211 -0.4165  0.3094  0.5929
   12CHL1   H17  839   1.446   5.983   5.245 -2.0010  0.3648 -3.7531
   12CHL1   C13  840   1.642   6.022   5.334 -0.5377  0.3324  0.9184
   12CHL1   C18  841   1.788   6.030   5.287  0.6417  0.0054  0.3232
   12CHL1  H18A  842   1.804   5.933   5.235 -1.5339 -0.4279  0.3508
   12CHL1  H18B  843   1.811   6.119   5.225  2.3804 -0.9041 -0.4067
   12CHL1  H18C  844   1.862   6.033   5.370  0.5096 -2.0327  0.5719
   12CHL1   C12  845   1.612   6.149   5.412 -0.2154  0.7713  0.2173
   12CHL1  H12A  846   1.633   6.238   5.349 -0.4761  1.4968  1.1274
   12CHL1  H12B  847   1.502   6.144   5.430 -0.2335 -1.6736 -0.1811
   12CHL1   C11  848   1.683   6.156   5.550 -0.5754 -0.2344 -0.0368
   12CHL1  H11A  849   1.789   6.182   5.531 -0.4113 -1.3886 -0.7927
   12CHL1  H11B  850   1.646   6.251   5.595  2.5674  0.6373  0.9949
   12CHL1    C9  851   1.650   6.029   5.622 -0.1479 -0.5241  0.1294
   12CHL1    H9  852   1.540   6.036   5.632 -0.1167  2.2742 -0.5998
   12CHL1   C10  853   1.714   6.034   5.761 -0.5661 -0.0728 -0.0887
   12CHL1   C19  854   1.871   6.060   5.740  0.1485 -0.2806 -0.2610
   12CHL1  H19A  855   1.890   6.168   5.720 -1.0451  0.2443  1.2068
   12CHL1  H19B  856   1.928   6.051   5.835 -0.6969 -1.5656  0.1452
   12CHL1  H19C  857   1.927   5.992   5.673  0.8770 -0.1512  0.2060
   12CHL1    C1  858   1.658   6.152   5.844  0.7363 -0.2859 -0.3302
   12CHL1   H1A  859   1.671   6.254   5.802  0.5598 -0.0096  0.2791
   12CHL1   H1B  860   1.549   6.132   5.837  1.1392 -2.5874 -1.1057
   12CHL1    C2  861   1.704   6.160   5.988  0.4683  0.4332 -0.6832
   12CHL1   H2A  862   1.654   6.250   6.028  0.7317 -0.1166  0.9300
   12CHL1   H2B  863   1.814   6.168   5.998  0.3100  1.6403  0.2806
   12CHL1   C20  864   1.559   6.075   5.084  0.1524 -0.4119  0.8532
   12CHL1   H20  865   1.627   6.160   5.104 -0.2492 -0.2374  1.5037
   12CHL1   C21  866   1.414   6.123   5.061  0.3507  0.1369 -0.4354
   12CHL1  H21A  867   1.386   6.187   5.147 -2.8953 -1.2145 -0.3584
   12CHL1  H21B  868   1.342   6.042   5.038  0.3423 -0.0973  0.3710
   12CHL1  H21C  869   1.402   6.202   4.984 -0.4247  0.2225 -0.2358
   12CHL1   C22  870   1.619   6.005   4.955  0.3734 -0.0299 -0.1902
   12CHL1  H22A  871   1.723   5.982   4.987  0.5597  0.0581 -0.7382
   12CHL1  H22B  872   1.567   5.915   4.914  0.9063  0.9336 -3.2030
   12CHL1   C23  873   1.638   6.100   4.832 -0.4132 -0.3868 -0.0266
   12CHL1  H23A  874   1.536   6.138   4.812 -0.4010 -0.2211  0.2256
   12CHL1  H23B  875   1.703   6.184   4.861 -0.6164 -0.3685  0.3829
   12CHL1   C24  876   1.693   6.028   4.715 -0.3897  0.5311  0.9575
   12CHL1  H24A  877   1.797   5.995   4.736 -0.8474 -0.6796  1.3880
   12CHL1  H24B  878   1.638   5.938   4.682  1.1837  0.1680 -0.8799
   12CHL1   C25  879   1.709   6.121   4.592 -0.1354 -0.0180  0.2378
   12CHL1   H25  880   1.613   6.170   4.566  0.3793  0.7103 -0.3108
   12CHL1   C26  881   1.826   6.221   4.607  0.2272  0.3734 -0.2093
   12CHL1  H26A  882   1.853   6.267   4.510 -1.2155 -0.3789 -1.0021
   12CHL1  H26B  883   1.804   6.303   4.680  1.6134  0.5829 -0.0103
   12CHL1  H26C  884   1.913   6.170   4.652  1.8920  0.1161 -3.4400
   12CHL1   C27  885   1.729   6.030   4.467 -0.9795 -0.4233 -0.0885
   12CHL1  H27A  886   1.832   6.022   4.428 -1.2209  2.9044 -1.7291
   12CHL1  H27B  887   1.691   5.926   4.469  0.4637 -0.9778 -0.7563
   12CHL1  H27C  888   1.671   6.080   4.387 -0.4507 -2.6207 -1.9312
   13CHL1    C3  889   6.262   6.685   6.629  0.5893  0.8368  0.1759
   13CHL1    H3  890   6.302   6.590   6.589 -3.1526 -0.5231 -0.7784
   13CHL1    O3  891   6.245   6.656   6.763 -0.0502 -0.7993 -0.3920
   13CHL1   H3'  892   6.278   6.568   6.782 -1.2196 -0.8697  1.5745
   13CHL1    C4  893   6.351   6.799   6.607  0.2612  0.1148  0.1162
   13CHL1   H4A  894   6.298   6.886   6.651  0.7605 -0.5573  2.1555
   13CHL1   H4B  895   6.436   6.791   6.679  1.8056 -0.5939 -1.7097
   13CHL1    C5  896   6.373   6.819   6.457  0.2519 -0.5668 -0.9255
   13CHL1    C6  897   6.495   6.813   6.406  0.0360 -0.3949  0.2192
   13CHL1    H6  898   6.577   6.794   6.477  0.8845  2.1901  0.0405
   13CHL1    C7  899   6.522   6.833   6.262  0.0717 -0.1735 -0.1392
   13CHL1   H7A  900   6.602   6.905   6.232 -0.8534  1.0890  0.3592
   13CHL1   H7B  901   6.550   6.733   6.222  0.1416 -0.8787  1.5953
   13CHL1    C8  902   6.400   6.886   6.177  0.2914  0.1988 -0.2235
   13CHL1    H8  903   6.388   6.992   6.206  3.0275  0.5748 -0.1937
   13CHL1   C14  904   6.427   6.860   6.035  0.0268 -0.5473  0.5328
   13CHL1   H14  905   6.429   6.750   6.023 -0.3954 -0.3548 -1.6943
   13CHL1   C15  906   6.560   6.896   5.965  0.1876 -0.1890 -0.1071
   13CHL1  H15A  907   6.573   7.003   5.991 -0.7030 -0.4087  1.3371
   13CHL1  H15B  908   6.650   6.837   5.992  0.4966  0.5011  0.3859
   13CHL1   C16  909   6.533   6.868   5.821 -0.3621  0.2442  0.5599
   13CHL1  H16A  910   6.572   6.954   5.761  1.3644 -0.6279  0.3659
   13CHL1  H16B  911   6.594   6.783   5.785  0.5208  1.4776 -1.0085
   13CHL1   C17  912   6.380   6.857   5.797 -0.5869 -0.0650 -0.4507
   13CHL1   H17  913   6.365   6.747   5.797 -3.7636  0.0286  4.7352
   13CHL1   C13  914   6.325   6.912   5.932  0.4164  0.1275  0.2636
   13CHL1   C18  915   6.299   7.063   5.925 -0.1044  0.5638  0.1532
   13CHL1  H18A  916   6.311   7.111   6.025 -0.7619  0.1018  0.4617
   13CHL1  H18B  917   6.375   7.107   5.858  0.3571  0.6133  0.7021
   13CHL1  H18C  918   6.197   7.087   5.887 -0.0483 -0.4920 -0.6997
   13CHL1   C12  919   6.188   6.847   5.972  0.2011  0.4473 -0.3515
   13CHL1  H12A  920   6.102   6.889   5.916 -0.3999 -1.5659 -1.0512
   13CHL1  H12B  921   6.195   6.738   5.953 -2.7722 -0.0231  0.6480
   13CHL1   C11  922   6.152   6.866   6.125 -0.1542 -0.0970  0.1844
   13CHL1  H11A  923   6.138   6.974   6.143  0.6119 -0.0804  0.7681
   13CHL1  H11B  924   6.060   6.810   6.149 -1.1265 -0.2486 -3.4007
   13CHL1    C9  925   6.268   6.823   6.217 -1.1200  0.3020 -0.1805
   13CHL1    H9  926   6.281   6.712   6.213  0.4171  0.3966  1.2799
   13CHL1   C10  927   6.245   6.840   6.370  0.6353 -0.5389  0.3308
   13CHL1   C19  928   6.176   6.988   6.399 -0.3324  0.2739  0.3255
   13CHL1  H19A  929   6.242   7.060   6.347 -1.3578  0.6546 -0.4955
   13CHL1  H19B  930   6.076   6.990   6.351 -0.2591  3.3567  0.0938
   13CHL1  H19C  931   6.166   7.005   6.509 -2.4148  0.5322  0.1444
   13CHL1    C1  932   6.142   6.732   6.410  0.0256 -0.2917  0.1632
   13CHL1   H1A  933   6.040   6.756   6.372 -0.2679 -2.6849 -0.7775
   13CHL1   H1B  934   6.171   6.634   6.366 -0.8835 -1.3419  1.7844
   13CHL1    C2  935   6.130   6.699   6.562  1.2186 -0.2778 -0.2347
   13CHL1   H2A  936   6.064   6.611   6.578  0.6091  0.1045 -0.6231
   13CHL1   H2B  937   6.086   6.784   6.618  1.6969  0.8093 -1.4566
   13CHL1   C20  938   6.336   6.915   5.661 -0.4851  0.5288 -0.4075
   13CHL1   H20  939   6.366   7.022   5.666 -1.5501  0.7815  1.5115
   13CHL1   C21  940   6.190   6.909   5.631  0.2174  0.3719  0.0493
   13CHL1  H21A  941   6.174   6.963   5.535 -2.7847  2.1673  1.4229
   13CHL1  H21B  942   6.135   6.967   5.708 -0.3838 -1.1946  0.8566
   13CHL1  H21C  943   6.143   6.808   5.632  1.9831 -0.4806  1.0694
   13CHL1   C22  944   6.413   6.839   5.549  0.1778  0.3045  0.2350
   13CHL1  H22A  945   6.522   6.856   5.558  0.2447  2.0212 -2.5044
   13CHL1  H22B  946   6.393   6.733   5.577  0.0505  0.7207  1.8054
   13CHL1   C23  947   6.388   6.878   5.403 -0.2903 -0.2822  0.0346
   13CHL1  H23A  948   6.289   6.835   5.376 -0.5670  0.1557  0.3476
   13CHL1  H23B  949   6.388   6.989   5.393 -0.5101 -0.3709 -1.1115
   13CHL1   C24  950   6.494   6.824   5.309 -0.9351 -0.0541 -0.3918
   13CHL1  H24A  951   6.592   6.838   5.360 -1.9301  2.2042  1.0537
   13CHL1  H24B  952   6.478   6.716   5.290 -0.5172 -0.2054  0.0976
   13CHL1   C25  953   6.504   6.898   5.173 -0.3805 -0.2465 -0.1228
   13CHL1   H25  954   6.565   6.990   5.191 -0.0254  0.3565 -3.5949
   13CHL1   C26  955   6.596   6.805   5.087  0.3993 -0.7304  0.0277
   13CHL1  H26A  956   6.547   6.707   5.097 -3.4990  1.2458  3.2070
   13CHL1  H26B  957   6.596   6.842   4.982 -1.4234 -1.0412 -0.1052
   13CHL1  H26C  958   6.698   6.800   5.130  0.2451 -1.4369  0.3156
   13CHL1   C27  959   6.371   6.942   5.109 -0.0341 -0.2900  0.3528
   13CHL1  H27A  960   6.314   6.851   5.080  1.9894 -1.6584  0.4750
   13CHL1  H27B  961   6.313   6.993   5.189  0.8608  1.7051 -0.1977
   13CHL1  H27C  962   6.392   7.010   5.023  0.7151 -1.3667 -0.3311
   14CHL1    C3  963   5.162   3.651   6.102  0.4255  0.7393  0.3400
   14CHL1    H3  964   5.242   3.575   6.090  1.3808  1.3953  2.1246
   14CHL1    O3  965   5.151   3.674   6.244  0.6822  0.1514 -0.6931
   14CHL1   H3'  966   5.062   3.646   6.266  0.7548 -0.2980 -0.9772
   14CHL1    C4  967   5.210   3.778   6.026 -0.9436 -0.3645 -0.0287
   14CHL1   H4A  968   5.138   3.863   6.037 -1.2272 -0.4816 -0.9226
   14CHL1   H4B  969   5.303   3.810   6.077 -1.9111 -0.1608  1.6740
   14CHL1    C5  970   5.228   3.753   5.877  0.0499  0.5152 -0.7538
   14CHL1    C6  971   5.345   3.777   5.807  0.2705  0.0747 -0.1685
   14CHL1    H6  972   5.436   3.803   5.863  0.1984 -1.2128  0.6016
   14CHL1    C7  973   5.356   3.777   5.662 -0.1493  0.5815 -0.3370
   14CHL1   H7A  974   5.408   3.864   5.618  0.7649  2.0551  3.3095
   14CHL1   H7B  975   5.426   3.695   5.633  2.1127  2.3987 -0.2434
   14CHL1    C8  976   5.220   3.755   5.592 -0.2174  0.2193 -0.1731
   14CHL1    H8  977   5.163   3.851   5.587 -2.1751 -0.6285  2.8716
   14CHL1   C14  978   5.258   3.704   5.460 -0.0990  0.0661  0.2429
   14CHL1   H14  979   5.300   3.602   5.473  1.0514  0.4743 -0.1756
   14CHL1   C15  980   5.370   3.777   5.372 -0.4449  0.5388 -0.4145
   14CHL1  H15A  981   5.342   3.884   5.366 -2.0050  0.0952 -1.4534
   14CHL1  H15B  982   5.470   3.758   5.417 -0.1772  0.7065 -0.9375
   14CHL1   C16  983   5.355   3.718   5.238 -0.6237 -0.2919 -0.2269
   14CHL1  H16A  984   5.342   3.801   5.166  0.8368 -1.0770 -1.4465
   14CHL1  H16B  985   5.444   3.660   5.204 -1.8442 -2.3722 -0.0697
   14CHL1   C17  986   5.228   3.626   5.241  0.4550 -0.0588  0.5414
   14CHL1   H17  987   5.261   3.526   5.277  1.4922  0.7889  2.0943
   14CHL1   C13  988   5.144   3.674   5.360 -0.1316  0.4524 -0.2941
   14CHL1   C18  989   5.064   3.796   5.322  0.2271 -0.4607  0.8675
   14CHL1  H18A  990   5.020   3.845   5.411 -0.9449 -1.7330  1.0384
   14CHL1  H18B  991   5.139   3.864   5.277  1.5655 -0.5596  2.8509
   14CHL1  H18C  992   4.981   3.770   5.251  0.2384 -2.0477  1.3967
   14CHL1   C12  993   5.058   3.570   5.436  0.1193  0.2853  0.3045
   14CHL1  H12A  994   4.975   3.535   5.371  0.7897  1.5884 -1.3404
   14CHL1  H12B  995   5.119   3.481   5.463  0.0495 -0.0540 -0.6199
   14CHL1   C11  996   5.014   3.613   5.574 -0.1952  0.6321 -0.1556
   14CHL1  H11A  997   4.933   3.689   5.573  0.0458  0.8873 -0.7110
   14CHL1  H11B  998   4.961   3.531   5.627  0.3321 -0.1716 -0.8512
   14CHL1    C9  999   5.131   3.652   5.664 -0.4061  0.2459 -0.2131
   14CHL1    H9 1000   5.197   3.563   5.672  1.3181  1.4448 -0.4910
   14CHL1   C10 1001   5.107   3.697   5.812 -0.4217 -0.1489  0.6041
   14CHL1   C19 1002   4.999   3.807   5.816 -0.8450  0.2381  0.0062
   14CHL1  H19A 1003   5.036   3.898   5.764 -1.0250  1.0243  1.2305
   14CHL1  H19B 1004   4.912   3.788   5.750  0.5259 -1.6868 -1.3828
   14CHL1  H19C 1005   4.965   3.832   5.918 -0.9181 -1.9659  0.5638
   14CHL1    C1 1006   5.057   3.569   5.883  0.6341  0.3924  0.2818
   14CHL1   H1A 1007   4.966   3.524   5.839  0.5680 -0.6535  1.4327
   14CHL1   H1B 1008   5.131   3.489   5.862 -0.6782 -0.2504 -2.2089
   14CHL1    C2 1009   5.033   3.590   6.034  0.7773  0.1860  0.5184
   14CHL1   H2A 1010   5.012   3.490   6.078 -2.1107 -0.6832 -2.4698
   14CHL1   H2B 1011   4.948   3.660   6.046  0.3804 -0.5579  2.4738
   14CHL1   C20 1012   5.164   3.593   5.100 -0.7079  0.3193 -0.1165
   14CHL1   H20 1013   5.141   3.693   5.057  1.5447  1.0601  0.2873
   14CHL1   C21 1014   5.031   3.520   5.121 -0.4508  0.4830  0.2201
   14CHL1  H21A 1015   4.946   3.589   5.144 -1.2788 -0.0233 -1.1659
   14CHL1  H21B 1016   5.038   3.432   5.188  1.3549  0.4873  0.0699
   14CHL1  H21C 1017   5.007   3.473   5.024  0.2907 -2.7739  1.4986
   14CHL1   C22 1018   5.271   3.529   5.006  0.1650 -0.1765 -0.5127
   14CHL1  H22A 1019   5.377   3.546   5.033 -0.2174 -0.3808  1.2915
   14CHL1  H22B 1020   5.256   3.419   5.021 -2.1552 -0.3210 -3.0022
   14CHL1   C23 1021   5.251   3.567   4.861 -0.6023 -0.0140  0.1231
   14CHL1  H23A 1022   5.148   3.537   4.833 -1.0560  2.0396 -0.5629
   14CHL1  H23B 1023   5.260   3.678   4.851  1.0416 -0.0934  0.4534
   14CHL1   C24 1024   5.359   3.500   4.775 -0.0959 -0.2344  0.1330
   14CHL1  H24A 1025   5.453   3.535   4.822 -0.8847  1.0782  0.8046
   14CHL1  H24B 1026   5.359   3.391   4.796  0.6385 -0.2168  0.2277
   14CHL1   C25 1027   5.357   3.520   4.625 -0.1673  0.3981 -0.8655
   14CHL1   H25 1028   5.346   3.630   4.615  0.5449  0.5135 -0.4792
   14CHL1   C26 1029   5.482   3.469   4.562 -0.1897 -0.9199  0.0432
   14CHL1  H26A 1030   5.471   3.494   4.454 -1.6806 -1.4167  0.0595
   14CHL1  H26B 1031   5.575   3.517   4.600  0.0464 -1.2142 -0.1556
   14CHL1  H26C 1032   5.498   3.359   4.566  0.2968 -0.8347  0.7341
   14CHL1   C27 1033   5.241   3.435   4.573  0.2445 -1.1876 -0.1569
   14CHL1  H27A 1034   5.263   3.328   4.588 -0.5354 -1.2232  0.8872
   14CHL1  H27B 1035   5.149   3.460   4.630 -0.5485 -3.1630 -0.4886
   14CHL1  H27C 1036   5.218   3.447   4.465 -0.7995 -2.6206 -0.1116
   15CHL1    C3 1037   0.892   4.555   6.211 -0.4785 -0.1806  0.8640
   15CHL1    H3 1038   1.002   4.544   6.198 -0.7455 -0.4866 -1.5360
   15CHL1    O3 1039   0.864   4.551   6.346  0.2579 -0.1937  0.3136
   15CHL1   H3' 1040   0.769   4.565   6.352  0.4344  0.5828  2.0177
   15CHL1    C4 1041   0.846   4.694   6.154  0.4297  0.3630 -0.2094
   15CHL1   H4A 1042   0.736   4.709   6.164  0.4990  1.1649 -0.6240
   15CHL1   H4B 1043   0.890   4.773   6.218  1.0242 -0.2695  0.1765
   15CHL1    C5 1044   0.883   4.708   6.011 -0.3123  0.1477 -1.3480
   15CHL1    C6 1045   0.955   4.813   5.965  0.1286 -0.3171 -0.3870
   15CHL1    H6 1046   0.987   4.892   6.036  1.4167  1.0240 -2.3654
   15CHL1    C7 1047   0.999   4.829   5.826 -0.7067 -0.4516 -0.8494
   15CHL1   H7A 1048   0.991   4.935   5.794 -1.1603 -0.5168 -0.9607
   15CHL1   H7B 1049   1.107   4.804   5.827 -0.3186  0.5666  3.5552
   15CHL1    C8 1050   0.914   4.737   5.731 -0.4438 -0.3461  0.2499
   15CHL1    H8 1051   0.813   4.782   5.723  0.2519  1.0932 -1.0935
   15CHL1   C14 1052   0.985   4.735   5.598  0.1412 -0.4758  0.1484
   15CHL1   H14 1053   1.082   4.685   5.616  0.6607  0.0320 -1.0769
   15CHL1   C15 1054   1.028   4.871   5.542 -0.7788 -0.5250  0.2417
   15CHL1  H15A 1055   0.947   4.946   5.550 -0.2066  0.4648 -2.3134
   15CHL1  H15B 1056   1.112   4.927   5.588  0.3407  0.7929 -3.1317
   15CHL1   C16 1057   1.052   4.840   5.397 -0.3389 -0.3072 -0.1597
   15CHL1  H16A 1058   0.992   4.899   5.324  1.7204  1.0729 -0.8406
   15CHL1  H16B 1059   1.157   4.864   5.368  0.5409 -0.2764  2.7934
   15CHL1   C17 1060   1.011   4.691   5.381 -0.2105  0.2109 -0.4859
   15CHL1   H17 1061   1.106   4.635   5.398 -0.5880 -2.1152 -4.6293
   15CHL1   C13 1062   0.910   4.673   5.489 -0.3703  0.6745  0.1972
   15CHL1   C18 1063   0.769   4.728   5.459  0.4785 -0.0652 -0.1591
   15CHL1  H18A 1064   0.724   4.794   5.535  2.1152  0.7875  0.1069
   15CHL1  H18B 1065   0.774   4.780   5.361 -2.2957 -1.5049 -1.1818
   15CHL1  H18C 1066   0.700   4.645   5.433  1.9830 -0.6704 -2.6399
   15CHL1   C12 1067   0.897   4.523   5.529 -0.1369 -0.2396 -0.0023
   15CHL1  H12A 1068   0.828   4.467   5.462 -0.2351  3.4302 -3.3701
   15CHL1  H12B 1069   0.994   4.470   5.520 -0.9281 -2.0111  1.3309
   15CHL1   C11 1070   0.832   4.506   5.672  0.2107  0.3034 -0.4180
   15CHL1  H11A 1071   0.726   4.536   5.658  0.3677  0.2004 -1.9090
   15CHL1  H11B 1072   0.841   4.399   5.700  1.3224  0.4565 -0.1189
   15CHL1    C9 1073   0.902   4.593   5.780  0.8080 -0.4244  0.2827
   15CHL1    H9 1074   1.005   4.561   5.807  0.5924 -0.1318  1.5043
   15CHL1   C10 1075   0.831   4.589   5.921  0.2423 -0.2370  0.7838
   15CHL1   C19 1076   0.675   4.612   5.899 -0.3270  0.6265  0.2562
   15CHL1  H19A 1077   0.633   4.527   5.842  0.1196 -0.5539  1.6269
   15CHL1  H19B 1078   0.637   4.605   6.003  2.9999 -1.5258  1.5080
   15CHL1  H19C 1079   0.655   4.707   5.845 -2.3924 -0.7431 -1.5336
   15CHL1    C1 1080   0.863   4.450   5.987 -0.2862 -0.4128  0.4984
   15CHL1   H1A 1081   0.796   4.391   5.920 -0.1696 -1.0184  0.9097
   15CHL1   H1B 1082   0.969   4.420   5.978 -0.4105 -0.5843 -0.5738
   15CHL1    C2 1083   0.826   4.438   6.131  0.0231 -0.6978 -0.9065
   15CHL1   H2A 1084   0.857   4.342   6.178  0.1542  0.2048  0.9333
   15CHL1   H2B 1085   0.716   4.442   6.145 -0.2253 -1.1305 -2.5363
   15CHL1   C20 1086   0.968   4.658   5.236 -0.2633  0.1876  0.7602
   15CHL1   H20 1087   0.870   4.700   5.205 -0.8086  0.2478  2.4841
   15CHL1   C21 1088   0.957   4.501   5.213  0.3542 -0.4006 -0.2435
   15CHL1  H21A 1089   0.871   4.449   5.261  0.5591 -1.2642 -0.7787
   15CHL1  H21B 1090   1.048   4.463   5.263  0.2719  2.0200  1.9652
   15CHL1  H21C 1091   0.963   4.480   5.104  1.0093  1.4498 -0.5951
   15CHL1   C22 1092   1.059   4.720   5.124  0.4648 -0.8391 -0.3903
   15CHL1  H22A 1093   1.062   4.829   5.146  0.7319 -0.9847  0.3428
   15CHL1  H22B 1094   1.161   4.678   5.137 -0.0308 -1.2684  3.2153
   15CHL1   C23 1095   1.005   4.711   4.985 -0.3541 -0.4159  0.2339
   15CHL1  H23A 1096   0.993   4.606   4.951 -0.1357  0.1217 -1.6224
   15CHL1  H23B 1097   0.907   4.763   4.983  0.0687  0.4117  0.7064
   15CHL1   C24 1098   1.103   4.778   4.885  0.2075 -0.0753 -0.0087
   15CHL1  H24A 1099   1.137   4.880   4.913 -1.8593  0.9568 -1.0352
   15CHL1  H24B 1100   1.183   4.702   4.879 -1.3491 -1.7774 -0.2558
   15CHL1   C25 1101   1.046   4.794   4.741  0.7819 -0.0242 -0.1035
   15CHL1   H25 1102   0.942   4.834   4.746  1.0055  0.4266  1.1274
   15CHL1   C26 1103   1.127   4.898   4.662 -0.4071 -0.3584 -0.2771
   15CHL1  H26A 1104   1.228   4.854   4.647  0.7942  2.8193 -2.7444
   15CHL1  H26B 1105   1.081   4.911   4.561 -2.6316 -1.0105  0.5995
   15CHL1  H26C 1106   1.157   4.988   4.719 -0.5748 -0.1939 -0.4456
   15CHL1   C27 1107   1.052   4.662   4.659  0.3262 -0.2029  0.3036
   15CHL1  H27A 1108   1.154   4.638   4.621 -0.2383  1.1609 -2.3641
   15CHL1  H27B 1109   1.010   4.568   4.701 -1.3418  0.8216  1.0311
   15CHL1  H27C 1110   0.996   4.695   4.568 -0.8743 -1.6685  0.4772
   16CHL1    C3 1111   5.964   0.659   6.388  0.0108  0.2079 -0.2060
   16CHL1    H3 1112   6.069   0.696   6.384  0.1038 -0.0173  0.1710
   16CHL1    O3 1113   5.922   0.658   6.522 -0.5946 -0.1347  0.1740
   16CHL1   H3' 1114   5.883   0.745   6.532  1.5937  0.7733  1.4783
   16CHL1    C4 1115   5.875   0.753   6.305 -0.5818  0.3623  0.4893
   16CHL1   H4A 1116   5.770   0.720   6.320 -0.4315 -0.1663  0.4216
   16CHL1   H4B 1117   5.884   0.852   6.354  0.1876  0.0296  1.0445
   16CHL1    C5 1118   5.911   0.759   6.160 -0.4731 -0.2246 -0.2139
   16CHL1    C6 1119   5.946   0.875   6.097 -0.5949  0.0747 -1.2755
   16CHL1    H6 1120   5.944   0.975   6.143 -1.5808 -0.6191  0.2500
   16CHL1    C7 1121   5.984   0.879   5.954 -0.1842 -0.7331  0.0095
   16CHL1   H7A 1122   5.939   0.971   5.912 -0.4587  0.2045  2.2314
   16CHL1   H7B 1123   6.094   0.894   5.949 -0.0024 -1.2114  2.0091
   16CHL1    C8 1124   5.938   0.752   5.875 -0.2474 -0.0925  0.3437
   16CHL1    H8 1125   5.828   0.746   5.866 -0.6270  2.5046  2.1380
   16CHL1   C14 1126   6.007   0.758   5.737  0.2724 -0.0137  0.2757
   16CHL1   H14 1127   6.113   0.771   5.768  0.0188 -2.7747  2.7004
   16CHL1   C15 1128   5.988   0.878   5.644  0.0833 -0.5187  0.5519
   16CHL1  H15A 1129   5.879   0.899   5.646  0.3963  1.5112 -0.6442
   16CHL1  H15B 1130   6.042   0.968   5.681 -2.2332  0.6933  1.1659
   16CHL1   C16 1131   6.034   0.826   5.510  0.2445 -0.5785 -0.2955
   16CHL1  H16A 1132   5.958   0.846   5.431  0.2423  2.5297  0.3654
   16CHL1  H16B 1133   6.128   0.868   5.469  0.7358  1.3252  2.5175
   16CHL1   C17 1134   6.061   0.668   5.526 -0.4296  0.1832  0.4725
   16CHL1   H17 1135   6.167   0.666   5.558 -0.8142  0.9526  1.8825
   16CHL1   C13 1136   5.987   0.628   5.655  0.7554  0.0390 -0.1821
   16CHL1   C18 1137   5.838   0.616   5.619  0.0383  0.9188 -0.6407
   16CHL1  H18A 1138   5.813   0.533   5.550  0.4014  0.1104  0.1800
   16CHL1  H18B 1139   5.770   0.605   5.706  3.0031  0.0860  1.7606
   16CHL1  H18C 1140   5.799   0.703   5.562 -1.0197 -0.2605 -1.7686
   16CHL1   C12 1141   6.037   0.506   5.726  0.3328  0.4599  0.0721
   16CHL1  H12A 1142   6.017   0.408   5.679  2.9206 -1.5810  2.8145
   16CHL1  H12B 1143   6.146   0.524   5.738 -0.2791  3.7596  2.0784
   16CHL1   C11 1144   5.965   0.496   5.863 -0.3140  0.9358  0.9134
   16CHL1  H11A 1145   5.857   0.480   5.842 -0.1919  1.1511  0.0799
   16CHL1  H11B 1146   5.999   0.406   5.917 -3.2798 -0.1800  1.1129
   16CHL1    C9 1147   5.986   0.624   5.956  0.2792  0.7888  0.6922
   16CHL1    H9 1148   6.096   0.634   5.962  0.3926 -1.0264  2.7388
   16CHL1   C10 1149   5.924   0.622   6.093  0.2988  0.5784  0.5227
   16CHL1   C19 1150   5.784   0.563   6.082  0.2947 -0.2271  0.0853
   16CHL1  H19A 1151   5.786   0.464   6.033  2.4916  0.0508 -0.4996
   16CHL1  H19B 1152   5.733   0.558   6.181  4.1452 -1.5799  2.2067
   16CHL1  H19C 1153   5.727   0.625   6.009  1.1161  1.9356  1.1850
   16CHL1    C1 1154   6.011   0.531   6.183 -0.3388 -0.4560 -0.7567
   16CHL1   H1A 1155   6.026   0.428   6.145 -1.3874 -0.8198 -0.2223
   16CHL1   H1B 1156   6.112   0.576   6.190 -0.1053 -1.2098  1.6210
   16CHL1    C2 1157   5.958   0.518   6.332 -0.2176 -0.6696 -0.6835
   16CHL1   H2A 1158   6.032   0.462   6.392 -2.5105 -0.3846  2.6435
   16CHL1   H2B 1159   5.858   0.472   6.345 -1.3993  1.9477  0.0915
   16CHL1   C20 1160   6.043   0.597   5.391  0.6369 -0.1835  0.3117
   16CHL1   H20 1161   5.935   0.596   5.362  1.2518  0.8810 -2.3594
   16CHL1   C21 1162   6.090   0.453   5.408  0.0066  0.7507 -0.4395
   16CHL1  H21A 1163   6.096   0.402   5.309 -0.7700  1.2660 -0.7655
   16CHL1  H21B 1164   6.014   0.397   5.468 -0.0860 -0.7494 -1.8654
   16CHL1  H21C 1165   6.191   0.453   5.453  0.0771  1.2899 -0.5990
   16CHL1   C22 1166   6.103   0.666   5.268 -0.4910 -0.0626  0.2567
   16CHL1  H22A 1167   6.054   0.764   5.250  1.0896  1.0337  1.7162
   16CHL1  H22B 1168   6.208   0.692   5.293  0.7454 -2.7765 -1.5777
   16CHL1   C23 1169   6.098   0.591   5.134 -0.0335 -0.4278 -0.3039
   16CHL1  H23A 1170   6.185   0.521   5.135 -0.1361 -0.6179  2.7523
   16CHL1  H23B 1171   6.004   0.532   5.126 -1.0614  1.2110 -0.6743
   16CHL1   C24 1172   6.110   0.693   5.020  0.4398 -0.8675 -0.4975
   16CHL1  H24A 1173   6.049   0.783   5.043 -1.1410 -2.1064  0.3728
   16CHL1  H24B 1174   6.208   0.733   5.052 -0.9999  0.9023  2.1617
   16CHL1   C25 1175   6.105   0.652   4.863 -0.0217  0.1005  0.4469
   16CHL1   H25 1176   6.162   0.557   4.853 -1.3050 -0.7635  1.0362
   16CHL1   C26 1177   5.972   0.629   4.806 -0.6075 -0.4531 -0.6272
   16CHL1  H26A 1178   5.985   0.602   4.699  2.5378 -1.1747 -0.1511
   16CHL1  H26B 1179   5.920   0.542   4.853  0.4629 -1.3904 -1.1403
   16CHL1  H26C 1180   5.919   0.726   4.820  1.6507  0.7539  0.0765
   16CHL1   C27 1181   6.161   0.775   4.789  0.3178 -0.1990 -0.2976
   16CHL1  H27A 1182   6.178   0.754   4.682 -0.4281  0.2832 -0.5151
   16CHL1  H27B 1183   6.102   0.864   4.822  1.3526 -0.3895  2.3489
   16CHL1  H27C 1184   6.265   0.788   4.826  0.6413 -0.4900 -1.0889
   17CHL1    C3 1185   0.722   5.599   6.288 -0.0851 -0.3869 -0.0648
   17CHL1    H3 1186   0.782   5.509   6.263  0.7295 -0.3678  1.6458
   17CHL1    O3 1187   0.740   5.630   6.427 -0.3795  0.0950 -0.1434
   17CHL1   H3' 1188   0.653   5.613   6.463 -0.3157 -0.2097 -0.1289
   17CHL1    C4 1189   0.769   5.722   6.207 -0.1973  0.1999 -0.2974
   17CHL1   H4A 1190   0.713   5.812   6.240 -1.0270 -0.9334  1.6012
   17CHL1   H4B 1191   0.877   5.734   6.230  0.3009 -0.9144 -1.8684
   17CHL1    C5 1192   0.749   5.683   6.060 -0.1415 -0.2429 -0.4692
   17CHL1    C6 1193   0.852   5.686   5.975 -1.0940 -0.6155  0.8268
   17CHL1    H6 1194   0.955   5.716   6.001 -0.3607 -0.4334 -1.9968
   17CHL1    C7 1195   0.838   5.664   5.831 -1.0023 -0.4878  0.0751
   17CHL1   H7A 1196   0.900   5.728   5.765 -0.4341  0.7585  1.7708
   17CHL1   H7B 1197   0.886   5.571   5.793  2.5256  0.7600  1.1720
   17CHL1    C8 1198   0.693   5.672   5.784  0.2946  0.5860 -0.5152
   17CHL1    H8 1199   0.656   5.777   5.786 -1.6776 -0.0780  0.1175
   17CHL1   C14 1200   0.675   5.633   5.635 -0.1468 -0.6467  0.9138
   17CHL1   H14 1201   0.685   5.523   5.628 -1.7406 -0.9560  2.7795
   17CHL1   C15 1202   0.773   5.697   5.536  0.0948 -0.6063  0.2765
   17CHL1  H15A 1203   0.784   5.807   5.550 -1.8981 -0.2823 -0.3521
   17CHL1  H15B 1204   0.873   5.649   5.543  0.6017  0.4645  0.5608
   17CHL1   C16 1205   0.701   5.673   5.401  1.0713 -0.5004  0.1117
   17CHL1  H16A 1206   0.693   5.769   5.346  1.3957 -0.9702 -0.7805
   17CHL1  H16B 1207   0.753   5.601   5.334 -1.1631 -0.6276 -1.6196
   17CHL1   C17 1208   0.557   5.614   5.427  0.1206 -0.0386 -0.0535
   17CHL1   H17 1209   0.566   5.503   5.426 -3.1175 -0.4042 -1.1345
   17CHL1   C13 1210   0.529   5.647   5.573 -0.1210 -0.8631 -0.1735
   17CHL1   C18 1211   0.488   5.795   5.577 -0.3806 -0.1299  0.3257
   17CHL1  H18A 1212   0.494   5.842   5.677 -0.8944  3.5848 -1.2105
   17CHL1  H18B 1213   0.547   5.861   5.511 -0.8749  1.8370  1.7750
   17CHL1  H18C 1214   0.381   5.798   5.546 -0.2157 -1.2996 -0.4163
   17CHL1   C12 1215   0.442   5.552   5.654  0.9709  1.1502  0.5669
   17CHL1  H12A 1216   0.335   5.555   5.625  0.1721 -3.4815  2.1182
   17CHL1  H12B 1217   0.471   5.444   5.654 -1.3006  0.4785  1.3004
   17CHL1   C11 1218   0.456   5.589   5.807  0.2342  0.5583  0.3501
   17CHL1  H11A 1219   0.415   5.692   5.817 -0.7829  0.4057 -1.7433
   17CHL1  H11B 1220   0.394   5.519   5.867 -2.3254  0.9104 -1.7206
   17CHL1    C9 1221   0.599   5.599   5.873  0.1565 -0.2402  0.6835
   17CHL1    H9 1222   0.628   5.492   5.877  2.6879  0.3931  1.3037
   17CHL1   C10 1223   0.600   5.652   6.020 -0.3123  0.3780  0.0612
   17CHL1   C19 1224   0.510   5.771   6.040  0.3495  1.0101  0.1732
   17CHL1  H19A 1225   0.540   5.848   5.966 -0.1714  1.3816  0.3455
   17CHL1  H19B 1226   0.405   5.741   6.021  1.1261 -1.7595 -0.1737
   17CHL1  H19C 1227   0.525   5.820   6.138 -1.1362  1.6417  0.1166
   17CHL1    C1 1228   0.541   5.541   6.115 -0.1396 -0.5541  0.0639
   17CHL1   H1A 1229   0.430   5.541   6.110 -0.2563  1.6873  1.1608
   17CHL1   H1B 1230   0.583   5.444   6.084  3.0691  0.8623 -0.3846
   17CHL1    C2 1231   0.575   5.566   6.259 -0.0401 -0.2731  0.0055
   17CHL1   H2A 1232   0.560   5.463   6.298  1.1443 -0.8055 -0.8943
   17CHL1   H2B 1233   0.509   5.644   6.303 -1.5149 -2.1941  1.3697
   17CHL1   C20 1234   0.448   5.648   5.319  0.3983 -0.1390 -0.2587
   17CHL1   H20 1235   0.425   5.756   5.327  0.8223 -0.0551 -0.1464
   17CHL1   C21 1236   0.316   5.568   5.345 -0.5307  0.3522 -0.0434
   17CHL1  H21A 1237   0.258   5.614   5.428 -0.5526 -0.2558  0.2860
   17CHL1  H21B 1238   0.334   5.459   5.355  2.1258  0.6253 -1.0357
   17CHL1  H21C 1239   0.250   5.595   5.260  1.5667  0.6193 -1.6468
   17CHL1   C22 1240   0.488   5.621   5.165  0.3229 -0.1661  0.4101
   17CHL1  H22A 1241   0.400   5.651   5.103 -0.1344  1.1284  1.6288
   17CHL1  H22B 1242   0.576   5.680   5.133 -0.8073  0.6466 -1.3499
   17CHL1   C23 1243   0.525   5.477   5.130  0.0164 -0.1731  0.2655
   17CHL1  H23A 1244   0.622   5.447   5.174 -0.4286 -1.2931  0.5278
   17CHL1  H23B 1245   0.463   5.406   5.189 -0.7056  0.7151  0.6024
   17CHL1   C24 1246   0.525   5.429   4.985 -0.2191 -0.1810 -0.4570
   17CHL1  H24A 1247   0.598   5.497   4.935  0.6258 -0.0773  0.8527
   17CHL1  H24B 1248   0.557   5.323   4.980  0.5360 -0.0078  0.3350
   17CHL1   C25 1249   0.390   5.428   4.912  0.5261 -0.4498 -0.2543
   17CHL1   H25 1250   0.360   5.535   4.909  2.9589  0.2774 -2.5113
   17CHL1   C26 1251   0.403   5.380   4.768  0.4602  0.4205 -0.4746
   17CHL1  H26A 1252   0.421   5.270   4.767  4.1718  0.9162 -0.9971
   17CHL1  H26B 1253   0.303   5.395   4.722  1.0694  0.1675 -1.9524
   17CHL1  H26C 1254   0.481   5.434   4.711 -0.6597  1.6886 -0.8500
   17CHL1   C27 1255   0.279   5.347   4.988  0.6303 -0.3099  0.2978
   17CHL1  H27A 1256   0.312   5.242   4.996  3.1866  0.4276  0.2222
   17CHL1  H27B 1257   0.245   5.397   5.082 -2.9185 -3.3458  0.8707
   17CHL1  H27C 1258   0.186   5.357   4.928  0.4510  0.4211  0.6807
   18CHL1    C3 1259   6.218   6.181   6.394 -0.4845 -0.0548 -0.4027
   18CHL1    H3 1260   6.293   6.253   6.356 -0.5877 -0.1209 -0.7360
   18CHL1    O3 1261   6.230   6.160   6.533 -0.3257  0.3437 -0.1608
   18CHL1   H3' 1262   6.169   6.086   6.540  0.9609 -0.9065 -1.5508
   18CHL1    C4 1263   6.078   6.232   6.359  0.5577 -0.1780 -0.2641
   18CHL1   H4A 1264   6.005   6.155   6.390 -0.8260  0.6835 -1.2720
   18CHL1   H4B 1265   6.065   6.318   6.429  2.1301 -0.5110  0.4841
   18CHL1    C5 1266   6.074   6.252   6.211 -0.9331 -0.7478  0.1903
   18CHL1    C6 1267   6.067   6.376   6.163  0.3742 -0.2252  0.4432
   18CHL1    H6 1268   6.052   6.463   6.228 -0.3386  1.5100 -1.9040
   18CHL1    C7 1269   6.054   6.403   6.015 -0.3486  0.2034 -0.9923
   18CHL1   H7A 1270   5.993   6.494   6.001 -1.2371 -0.3410 -0.7264
   18CHL1   H7B 1271   6.156   6.431   5.979  0.2138  0.4591  0.7363
   18CHL1    C8 1272   5.999   6.282   5.934 -0.0034 -0.0208  0.2650
   18CHL1    H8 1273   5.893   6.275   5.968  0.0964 -0.2922  0.5159
   18CHL1   C14 1274   6.015   6.322   5.791 -0.5698 -0.1507  0.4077
   18CHL1   H14 1275   6.123   6.325   5.763 -0.5859  2.0675  0.4275
   18CHL1   C15 1276   5.957   6.452   5.740  0.4121  0.2648  0.0747
   18CHL1  H15A 1277   5.849   6.465   5.763  0.2397  0.8466 -1.0233
   18CHL1  H15B 1278   6.017   6.543   5.762 -1.1577  1.3445  0.1103
   18CHL1   C16 1279   5.949   6.419   5.588  0.7734  0.9299 -0.2306
   18CHL1  H16A 1280   5.846   6.443   5.553  0.1661  0.9168  1.4213
   18CHL1  H16B 1281   6.013   6.491   5.534  0.4849  1.6541  0.3798
   18CHL1   C17 1282   5.987   6.275   5.567 -0.3319  0.3493 -0.1044
   18CHL1   H17 1283   6.098   6.282   5.558 -0.4355  2.1431 -0.5038
   18CHL1   C13 1284   5.961   6.210   5.701  0.3577  0.0736 -0.1848
   18CHL1   C18 1285   5.815   6.179   5.722 -0.1513  0.4813  0.3752
   18CHL1  H18A 1286   5.787   6.183   5.829  1.2138  0.9226  0.7383
   18CHL1  H18B 1287   5.764   6.268   5.678  0.2558  0.1105 -0.8918
   18CHL1  H18C 1288   5.780   6.081   5.684  1.3868 -0.3644  1.0762
   18CHL1   C12 1289   6.048   6.080   5.721  0.2610 -0.8275 -0.1386
   18CHL1  H12A 1290   5.998   5.993   5.673  0.2928 -1.7990  1.5050
   18CHL1  H12B 1291   6.154   6.086   5.687  0.0547 -0.1079 -0.6834
   18CHL1   C11 1292   6.054   6.040   5.874  0.3238 -0.3676 -0.3206
   18CHL1  H11A 1293   5.953   6.000   5.898 -0.5219  0.6209 -2.0816
   18CHL1  H11B 1294   6.131   5.964   5.902  1.5220  1.3234  1.2294
   18CHL1    C9 1295   6.085   6.162   5.966  0.5056 -0.1892  0.2852
   18CHL1    H9 1296   6.192   6.188   5.949  0.9530 -0.3086  2.5871
   18CHL1   C10 1297   6.091   6.131   6.120  0.7242  0.1532  0.1500
   18CHL1   C19 1298   5.979   6.025   6.150  0.0015  0.8884  0.4432
   18CHL1  H19A 1299   6.006   5.933   6.094  1.2106  1.0341  0.7536
   18CHL1  H19B 1300   5.979   5.997   6.258  1.7531 -0.0609  0.2385
   18CHL1  H19C 1301   5.875   6.054   6.123  0.2390 -1.0653 -3.1576
   18CHL1    C1 1302   6.230   6.070   6.160 -0.3532  0.4555  0.5725
   18CHL1   H1A 1303   6.226   5.970   6.113 -1.3283 -0.5159  2.5870
   18CHL1   H1B 1304   6.314   6.115   6.103  0.8821 -2.0209  0.3293
   18CHL1    C2 1305   6.245   6.049   6.314 -0.1130 -0.3555 -0.2417
   18CHL1   H2A 1306   6.341   5.995   6.331  0.2169  0.4783  0.6388
   18CHL1   H2B 1307   6.173   5.974   6.354 -0.0475  0.1756  0.9035
   18CHL1   C20 1308   5.922   6.209   5.441  0.2461 -0.0529 -0.2956
   18CHL1   H20 1309   5.824   6.159   5.454  0.4435 -0.1371  1.0292
   18CHL1   C21 1310   6.027   6.112   5.399  0.5028 -0.3104 -0.2955
   18CHL1  H21A 1311   6.062   6.045   5.481 -0.0801  0.5287  0.6529
   18CHL1  H21B 1312   6.115   6.170   5.362 -0.0481  0.6688 -0.0869
   18CHL1  H21C 1313   5.989   6.038   5.325  2.6692 -2.0120  0.1610
   18CHL1   C22 1314   5.895   6.305   5.326  0.6398  0.0479  0.2052
   18CHL1  H22A 1315   5.825   6.389   5.344 -0.2974 -1.0667  2.1274
   18CHL1  H22B 1316   5.988   6.354   5.290  0.9071 -1.0083 -0.6078
   18CHL1   C23 1317   5.833   6.244   5.202 -0.0050 -0.3123 -0.4186
   18CHL1  H23A 1318   5.905   6.174   5.155 -0.7932 -0.9821 -0.6537
   18CHL1  H23B 1319   5.752   6.179   5.240  0.9100 -2.1938 -1.5543
   18CHL1   C24 1320   5.783   6.357   5.096 -0.8113  0.6135 -0.5647
   18CHL1  H24A 1321   5.711   6.429   5.140 -1.9735 -0.9791  0.2933
   18CHL1  H24B 1322   5.871   6.419   5.071  0.4161 -0.8703 -0.0830
   18CHL1   C25 1323   5.729   6.293   4.967  0.0681 -0.6109  0.7909
   18CHL1   H25 1324   5.711   6.381   4.903 -1.4137 -2.5651 -1.6550
   18CHL1   C26 1325   5.823   6.199   4.889 -0.1123  0.1116 -0.0708
   18CHL1  H26A 1326   5.923   6.237   4.859 -0.9046  1.4001 -1.1552
   18CHL1  H26B 1327   5.852   6.122   4.964  2.9895  1.4730  0.2758
   18CHL1  H26C 1328   5.765   6.158   4.804 -2.4900 -0.8866  1.9240
   18CHL1   C27 1329   5.596   6.216   5.000  0.4921  0.3401  0.2331
   18CHL1  H27A 1330   5.519   6.271   5.057  0.8057 -0.5531  1.5662
   18CHL1  H27B 1331   5.545   6.176   4.909  0.0976 -1.1087  1.0527
   18CHL1  H27C 1332   5.609   6.123   5.060  1.6348  1.1316  1.2713
   19CHL1    C3 1333   5.864   5.237   6.206 -0.2532 -0.1368  0.1156
   19CHL1    H3 1334   5.921   5.305   6.138 -1.3923  0.1439 -0.5889
   19CHL1    O3 1335   5.942   5.238   6.324  0.5201 -0.2060  0.1831
   19CHL1   H3' 1336   5.882   5.198   6.388 -0.2220  0.3606 -0.1374
   19CHL1    C4 1337   5.724   5.292   6.237  0.1755  0.1847  0.6444
   19CHL1   H4A 1338   5.671   5.243   6.321 -1.7903  2.0287  0.5636
   19CHL1   H4B 1339   5.735   5.399   6.266 -1.6521  1.1079 -1.7167
   19CHL1    C5 1340   5.637   5.293   6.111 -0.2196  0.1366  0.5559
   19CHL1    C6 1341   5.580   5.404   6.062 -0.2529  1.0128 -0.0494
   19CHL1    H6 1342   5.599   5.497   6.117  2.6101  0.4968 -0.0349
   19CHL1    C7 1343   5.491   5.412   5.942 -0.1539  0.0593 -0.0488
   19CHL1   H7A 1344   5.396   5.464   5.966  1.3427  3.5511 -1.1293
   19CHL1   H7B 1345   5.541   5.475   5.865  0.8904  0.1790  0.7150
   19CHL1    C8 1346   5.463   5.277   5.872 -0.3830 -0.5596  0.1855
   19CHL1    H8 1347   5.367   5.230   5.902 -1.8800  1.8639 -0.5444
   19CHL1   C14 1348   5.449   5.293   5.721 -0.0403  0.0069 -0.7102
   19CHL1   H14 1349   5.552   5.314   5.684  0.7970 -1.3049  0.7335
   19CHL1   C15 1350   5.366   5.415   5.666  0.1250  0.2413 -1.0811
   19CHL1  H15A 1351   5.261   5.410   5.701  0.5116 -1.2610 -0.0468
   19CHL1  H15B 1352   5.421   5.508   5.693  0.8087  0.4691 -3.0563
   19CHL1   C16 1353   5.353   5.382   5.519 -0.0843 -0.0086 -0.5906
   19CHL1  H16A 1354   5.243   5.393   5.502  0.0662  1.5333 -0.7605
   19CHL1  H16B 1355   5.415   5.450   5.457 -0.8212 -0.0142 -1.3482
   19CHL1   C17 1356   5.388   5.230   5.500 -0.0780 -0.4696  0.4103
   19CHL1   H17 1357   5.491   5.236   5.461  0.1380  2.6524  1.1869
   19CHL1   C13 1358   5.402   5.171   5.647  0.7044 -0.0571  0.0092
   19CHL1   C18 1359   5.262   5.128   5.693 -0.6429  0.0456  0.0367
   19CHL1  H18A 1360   5.223   5.143   5.796  0.2914  0.6278  0.3258
   19CHL1  H18B 1361   5.185   5.181   5.633  0.9678 -0.4795 -2.6501
   19CHL1  H18C 1362   5.251   5.020   5.673  0.0789  0.0256 -0.2865
   19CHL1   C12 1363   5.501   5.059   5.673  0.1778  0.4503 -0.1850
   19CHL1  H12A 1364   5.472   4.963   5.626 -1.7748  0.3708  1.0520
   19CHL1  H12B 1365   5.596   5.100   5.635  2.6811 -3.4528  1.2488
   19CHL1   C11 1366   5.541   5.048   5.820  0.5426  0.0146 -0.2026
   19CHL1  H11A 1367   5.453   5.005   5.872 -2.1825  4.3627 -0.7311
   19CHL1  H11B 1368   5.625   4.975   5.821 -0.6738 -1.4707  1.4667
   19CHL1    C9 1369   5.577   5.176   5.891 -0.3941  0.4455 -0.4816
   19CHL1    H9 1370   5.664   5.220   5.838 -0.1341 -0.0070 -0.4407
   19CHL1   C10 1371   5.622   5.162   6.039  0.0369  1.1068 -0.3629
   19CHL1   C19 1372   5.522   5.073   6.114  0.0303 -0.6799  0.2279
   19CHL1  H19A 1373   5.543   5.056   6.221 -2.4501  0.7065  1.0157
   19CHL1  H19B 1374   5.429   5.133   6.106  1.5073  1.6751 -0.7201
   19CHL1  H19C 1375   5.513   4.973   6.066  1.7213 -0.8472  0.1990
   19CHL1    C1 1376   5.760   5.093   6.027  0.5624 -0.5075  0.0171
   19CHL1   H1A 1377   5.738   4.985   6.008 -2.9235  0.1738 -0.6271
   19CHL1   H1B 1378   5.820   5.136   5.944  0.2339  0.3403  0.2086
   19CHL1    C2 1379   5.852   5.095   6.143 -0.6496 -0.4593 -0.1788
   19CHL1   H2A 1380   5.948   5.041   6.126 -0.5589 -1.5070  2.8974
   19CHL1   H2B 1381   5.798   5.029   6.215 -2.2733  0.1531 -0.8071
   19CHL1   C20 1382   5.295   5.154   5.405  0.1732 -0.7119 -0.0821
   19CHL1   H20 1383   5.192   5.152   5.447  1.1580  0.5497  2.7018
   19CHL1   C21 1384   5.348   5.013   5.383 -0.2601  0.5113  0.2586
   19CHL1  H21A 1385   5.451   5.014   5.340 -0.2507 -2.2522 -0.0063
   19CHL1  H21B 1386   5.282   4.957   5.314  1.1953  0.1655 -0.9284
   19CHL1  H21C 1387   5.352   4.955   5.478 -3.7254 -1.1303 -0.4616
   19CHL1   C22 1388   5.291   5.225   5.270  0.3259 -0.0049 -0.0267
   19CHL1  H22A 1389   5.246   5.325   5.289 -3.1454 -1.8539  2.6210
   19CHL1  H22B 1390   5.386   5.232   5.213  0.5680 -1.0802  0.2130
   19CHL1   C23 1391   5.185   5.176   5.166  0.1012 -0.2356  0.0436
   19CHL1  H23A 1392   5.151   5.075   5.197  1.0769 -0.1782  1.3649
   19CHL1  H23B 1393   5.104   5.252   5.163  0.9258  0.6510 -0.2158
   19CHL1   C24 1394   5.235   5.169   5.021 -0.0782  0.1135 -0.5453
   19CHL1  H24A 1395   5.310   5.251   5.008 -1.2462  1.1318 -1.1359
   19CHL1  H24B 1396   5.289   5.073   5.008  0.9672  0.3640  1.6156
   19CHL1   C25 1397   5.130   5.172   4.909  1.1055  0.4587  0.1184
   19CHL1   H25 1398   5.049   5.244   4.936 -0.5917 -0.7402 -1.5806
   19CHL1   C26 1399   5.206   5.230   4.791 -0.1776 -0.1923 -0.3388
   19CHL1  H26A 1400   5.258   5.327   4.807  0.9252 -0.7316 -0.5264
   19CHL1  H26B 1401   5.297   5.173   4.761  1.6339  0.5887  3.1597
   19CHL1  H26C 1402   5.140   5.243   4.703 -0.7732  1.8584  0.3595
   19CHL1   C27 1403   5.067   5.036   4.884  0.0118  0.0400 -0.0246
   19CHL1  H27A 1404   5.139   4.952   4.878  0.8776  0.6089  1.6187
   19CHL1  H27B 1405   5.006   5.028   4.976 -2.1550  0.1384 -1.3943
   19CHL1  H27C 1406   4.999   5.037   4.797  0.1310 -0.5543 -0.1235
   20CHL1    C3 1407   4.511   1.171   6.038 -0.9524 -0.3712 -0.1109
   20CHL1    H3 1408   4.454   1.077   6.021  0.5308 -1.1244 -1.0258
   20CHL1    O3 1409   4.535   1.196   6.176 -0.3650 -0.2844  0.0868
   20CHL1   H3' 1410   4.560   1.288   6.187 -2.5209  0.4025 -0.2588
   20CHL1    C4 1411   4.649   1.165   5.969  0.0463  0.1070 -0.0473
   20CHL1   H4A 1412   4.701   1.260   5.997 -1.1632  2.2260 -4.1715
   20CHL1   H4B 1413   4.705   1.085   6.022  0.4197  0.6267  0.3608
   20CHL1    C5 1414   4.639   1.146   5.812  0.3879  0.2350 -0.9070
   20CHL1    C6 1415   4.707   1.037   5.762 -0.1686  0.3559  0.3170
   20CHL1    H6 1416   4.769   0.972   5.825  1.3123  1.6094  0.2107
   20CHL1    C7 1417   4.697   1.007   5.608 -0.4012  1.1278 -0.0163
   20CHL1   H7A 1418   4.801   0.992   5.571 -0.4620  0.4404  0.0790
   20CHL1   H7B 1419   4.632   0.918   5.592 -1.0463  1.7970 -1.2369
   20CHL1    C8 1420   4.620   1.119   5.528  0.3995  0.6229  0.2125
   20CHL1    H8 1421   4.694   1.201   5.527  1.1205  0.0001  0.6527
   20CHL1   C14 1422   4.582   1.074   5.385 -0.4846  0.6087 -0.0535
   20CHL1   H14 1423   4.500   1.003   5.405  0.2640 -0.0384  0.7628
   20CHL1   C15 1424   4.690   1.007   5.291  0.1235 -0.8350 -0.7453
   20CHL1  H15A 1425   4.784   1.060   5.316 -0.8584  0.5194  0.2519
   20CHL1  H15B 1426   4.703   0.906   5.335 -1.9390 -1.4280 -1.3493
   20CHL1   C16 1427   4.637   1.021   5.150 -0.0542  0.4536 -0.4708
   20CHL1  H16A 1428   4.701   1.082   5.082  2.1063 -0.2851  0.8232
   20CHL1  H16B 1429   4.600   0.926   5.108  0.2509 -0.1006  0.4914
   20CHL1   C17 1430   4.504   1.108   5.166 -0.2342 -1.0017 -0.4839
   20CHL1   H17 1431   4.420   1.037   5.184  0.1974 -1.8702 -1.7797
   20CHL1   C13 1432   4.522   1.187   5.308 -0.1067 -0.6161 -0.2523
   20CHL1   C18 1433   4.616   1.313   5.289 -0.2063  0.1375 -0.3540
   20CHL1  H18A 1434   4.561   1.393   5.234  1.6982  0.8718 -1.2944
   20CHL1  H18B 1435   4.648   1.361   5.384 -0.1421 -0.3024 -0.1521
   20CHL1  H18C 1436   4.709   1.283   5.236  0.1604 -1.1408  0.9601
   20CHL1   C12 1437   4.390   1.219   5.371 -0.2579 -0.8392 -0.0710
   20CHL1  H12A 1438   4.344   1.302   5.313  0.9052  1.8662  2.5774
   20CHL1  H12B 1439   4.319   1.134   5.373 -2.1588  0.6919  1.0434
   20CHL1   C11 1440   4.412   1.266   5.522 -0.1317 -0.8911  0.0794
   20CHL1  H11A 1441   4.481   1.352   5.509  1.5928 -2.3210 -0.7031
   20CHL1  H11B 1442   4.316   1.298   5.568 -0.4849 -1.5598 -0.1860
   20CHL1    C9 1443   4.499   1.169   5.605 -0.0335 -0.1410 -0.0883
   20CHL1    H9 1444   4.446   1.077   5.639 -0.4586 -0.3575 -1.2648
   20CHL1   C10 1445   4.545   1.239   5.738  0.5722  0.1075 -0.1130
   20CHL1   C19 1446   4.645   1.357   5.715 -0.4120 -0.3488  0.0786
   20CHL1  H19A 1447   4.577   1.438   5.680  0.5532  0.0640 -0.8732
   20CHL1  H19B 1448   4.681   1.399   5.811 -0.2012 -1.2805  0.4169
   20CHL1  H19C 1449   4.736   1.340   5.655  1.6236 -0.0908  2.8724
   20CHL1    C1 1450   4.423   1.274   5.827  0.2711  0.2780 -0.1547
   20CHL1   H1A 1451   4.376   1.365   5.784 -1.3164 -0.9164 -1.0935
   20CHL1   H1B 1452   4.343   1.198   5.808  0.4936  0.5281 -2.3991
   20CHL1    C2 1453   4.436   1.289   5.981 -0.4034 -0.9706 -0.3090
   20CHL1   H2A 1454   4.337   1.300   6.029 -0.1238 -0.7604  0.2330
   20CHL1   H2B 1455   4.493   1.383   5.997 -1.9679 -0.0496 -0.0500
   20CHL1   C20 1456   4.463   1.187   5.036 -0.5787  0.6394 -0.2308
   20CHL1   H20 1457   4.543   1.255   4.999  0.2703 -1.2467 -2.0591
   20CHL1   C21 1458   4.331   1.260   5.059  0.4336  0.6174 -0.6782
   20CHL1  H21A 1459   4.279   1.303   4.971  0.2486  3.3975  0.6567
   20CHL1  H21B 1460   4.344   1.355   5.115 -0.5741 -0.4213  1.4618
   20CHL1  H21C 1461   4.264   1.194   5.117  0.6311 -0.8155 -2.0229
   20CHL1   C22 1462   4.444   1.082   4.919  0.3302  0.4041  0.3343
   20CHL1  H22A 1463   4.538   1.028   4.893  2.4328  2.4526  2.9241
   20CHL1  H22B 1464   4.371   1.007   4.955  0.0496  1.6487  2.5647
   20CHL1   C23 1465   4.407   1.144   4.783 -0.2651 -0.5983 -0.2900
   20CHL1  H23A 1466   4.303   1.182   4.783  0.5279  1.7927 -2.4773
   20CHL1  H23B 1467   4.473   1.232   4.772 -0.6497  0.0885  2.2914
   20CHL1   C24 1468   4.433   1.057   4.661  0.4396  0.4715 -0.2139
   20CHL1  H24A 1469   4.537   1.017   4.655  0.2350  0.0590 -4.2627
   20CHL1  H24B 1470   4.363   0.971   4.659 -0.2348  0.9796  0.8542
   20CHL1   C25 1471   4.422   1.133   4.525  0.1440 -0.2775  0.3604
   20CHL1   H25 1472   4.476   1.230   4.535 -1.0443  0.4080  0.3692
   20CHL1   C26 1473   4.474   1.048   4.415 -0.4727  0.2809 -0.7759
   20CHL1  H26A 1474   4.501   1.101   4.321  0.8533 -0.1970 -0.6857
   20CHL1  H26B 1475   4.569   1.005   4.452 -1.2490 -1.8957 -1.1210
   20CHL1  H26C 1476   4.401   0.968   4.388 -0.7696  0.5564 -0.7918
   20CHL1   C27 1477   4.275   1.168   4.487  0.3443 -0.0076 -0.5783
   20CHL1  H27A 1478   4.226   1.215   4.575  0.9352  0.4831 -0.5087
   20CHL1  H27B 1479   4.276   1.245   4.408  3.0002  0.6308 -0.0434
   20CHL1  H27C 1480   4.220   1.078   4.451 -0.6547 -0.1059  1.0480
   21CHL1    C3 1481   4.400   0.756   6.018 -0.0584 -0.2996  0.8325
   21CHL1    H3 1482   4.416   0.866   6.005 -2.1748 -0.0180  0.2095
   21CHL1    O3 1483   4.388   0.724   6.152 -0.7737 -0.3735 -0.7689
   21CHL1   H3' 1484   4.383   0.629   6.160  1.3501 -0.7405 -2.6831
   21CHL1    C4 1485   4.260   0.735   5.957 -0.5474  0.2253 -0.2526
   21CHL1   H4A 1486   4.225   0.636   5.994  1.4299 -1.6868 -3.1123
   21CHL1   H4B 1487   4.192   0.811   6.001 -0.4861 -0.6172  1.3893
   21CHL1    C5 1488   4.263   0.747   5.804 -0.4495 -0.1087  0.5753
   21CHL1    C6 1489   4.183   0.835   5.737  0.3709  0.5225 -0.7866
   21CHL1    H6 1490   4.112   0.898   5.793 -0.7100 -1.0165 -0.3379
   21CHL1    C7 1491   4.176   0.854   5.592 -0.3037 -0.0049  0.1505
   21CHL1   H7A 1492   4.075   0.854   5.544 -0.2801 -0.2484  0.0998
   21CHL1   H7B 1493   4.224   0.949   5.560  2.2751 -0.1087  3.1970
   21CHL1    C8 1494   4.241   0.738   5.516  0.2955 -0.5734  0.0743
   21CHL1    H8 1495   4.173   0.652   5.533  0.1655 -0.7614 -1.2698
   21CHL1   C14 1496   4.260   0.772   5.371  0.4016 -0.7802  0.0493
   21CHL1   H14 1497   4.330   0.858   5.369 -1.7498  1.0730  0.7150
   21CHL1   C15 1498   4.133   0.823   5.295 -0.0216  0.0469 -1.1040
   21CHL1  H15A 1499   4.041   0.763   5.309 -1.4630  1.0745 -4.9940
   21CHL1  H15B 1500   4.110   0.925   5.330 -0.2911  0.5715 -2.7255
   21CHL1   C16 1501   4.177   0.813   5.154 -0.0327  0.4992  0.4348
   21CHL1  H16A 1502   4.098   0.753   5.104 -0.7975  1.3933  0.5474
   21CHL1  H16B 1503   4.195   0.908   5.099  0.1117 -0.0276 -0.4575
   21CHL1   C17 1504   4.308   0.730   5.148 -0.6523 -0.1316  0.0178
   21CHL1   H17 1505   4.390   0.805   5.147 -2.1519  1.5909  1.0618
   21CHL1   C13 1506   4.326   0.660   5.285  0.4525 -0.0862 -0.2377
   21CHL1   C18 1507   4.251   0.532   5.291 -0.0474  0.4134  0.2439
   21CHL1  H18A 1508   4.317   0.448   5.259 -1.5644 -0.2406 -1.3112
   21CHL1  H18B 1509   4.209   0.506   5.390  1.9610 -0.5374  0.8888
   21CHL1  H18C 1510   4.165   0.549   5.222  0.6907  2.4021 -0.2531
   21CHL1   C12 1511   4.465   0.633   5.351 -0.2570 -0.0908  0.5658
   21CHL1  H12A 1512   4.529   0.556   5.303 -1.3749 -1.0492  0.5727
   21CHL1  H12B 1513   4.522   0.729   5.344 -0.6266  0.0474 -0.7840
   21CHL1   C11 1514   4.456   0.592   5.497  0.4642 -0.2544 -0.1220
   21CHL1  H11A 1515   4.424   0.486   5.508 -1.9533  0.3443 -0.7171
   21CHL1  H11B 1516   4.559   0.606   5.535 -0.0232  0.6012  0.9222
   21CHL1    C9 1517   4.375   0.693   5.581  0.5368 -0.0100 -0.1624
   21CHL1    H9 1518   4.440   0.783   5.583  1.1351 -0.4370  0.7701
   21CHL1   C10 1519   4.366   0.663   5.734  0.1877 -0.0508  0.5490
   21CHL1   C19 1520   4.332   0.511   5.761 -0.3788 -0.1145  0.1907
   21CHL1  H19A 1521   4.308   0.491   5.868 -1.3260  0.8731  0.1826
   21CHL1  H19B 1522   4.243   0.490   5.698 -0.6572  0.6522  0.3126
   21CHL1  H19C 1523   4.421   0.452   5.731 -0.2391 -0.4583  1.2364
   21CHL1    C1 1524   4.507   0.701   5.791 -0.2059 -0.4584 -0.7746
   21CHL1   H1A 1525   4.588   0.640   5.745  1.1913  2.0917 -1.9661
   21CHL1   H1B 1526   4.534   0.808   5.775  1.3973 -0.9510 -1.6095
   21CHL1    C2 1527   4.515   0.690   5.944 -0.0698 -0.2549 -0.0641
   21CHL1   H2A 1528   4.601   0.742   5.990 -0.8744  0.1220  1.0798
   21CHL1   H2B 1529   4.510   0.581   5.968 -2.7843 -0.0421  0.7242
   21CHL1   C20 1530   4.325   0.640   5.021  0.5939  0.4977  1.5562
   21CHL1   H20 1531   4.245   0.563   5.018  0.8838  0.2150 -0.5591
   21CHL1   C21 1532   4.457   0.569   5.030  0.0646 -0.1860 -0.4722
   21CHL1  H21A 1533   4.535   0.644   5.056  0.6279 -0.7584 -0.4644
   21CHL1  H21B 1534   4.477   0.530   4.927  1.4202  1.2774 -0.8121
   21CHL1  H21C 1535   4.451   0.495   5.112 -1.3173  2.4706  1.9814
   21CHL1   C22 1536   4.314   0.721   4.886 -0.6259  0.5080  0.4031
   21CHL1  H22A 1537   4.228   0.791   4.889 -0.0073  1.2506  1.6505
   21CHL1  H22B 1538   4.406   0.783   4.880  0.7920 -0.8602  4.5707
   21CHL1   C23 1539   4.294   0.631   4.760  0.8884 -0.4013 -0.1388
   21CHL1  H23A 1540   4.371   0.551   4.754 -1.6397 -2.8710 -1.8998
   21CHL1  H23B 1541   4.196   0.582   4.775 -0.8384  2.6107 -0.8134
   21CHL1   C24 1542   4.279   0.707   4.626 -0.2338  0.7797 -0.3832
   21CHL1  H24A 1543   4.185   0.766   4.628 -1.0425 -0.4796  0.1705
   21CHL1  H24B 1544   4.365   0.775   4.609  1.1855 -0.9602 -0.3759
   21CHL1   C25 1545   4.278   0.618   4.496 -0.5304  0.1516 -0.6514
   21CHL1   H25 1546   4.259   0.693   4.417 -0.0223  2.5244  1.3643
   21CHL1   C26 1547   4.400   0.533   4.465  0.1835  0.3676  0.9526
   21CHL1  H26A 1548   4.392   0.480   4.368  3.9158 -2.1753  1.8070
   21CHL1  H26B 1549   4.486   0.602   4.447 -0.2641  1.0033  1.1968
   21CHL1  H26C 1550   4.427   0.471   4.553 -0.3627  0.5926  1.2848
   21CHL1   C27 1551   4.164   0.518   4.512 -0.8218  0.1309 -0.2601
   21CHL1  H27A 1552   4.078   0.580   4.545  0.6995  2.3622 -0.3179
   21CHL1  H27B 1553   4.137   0.477   4.412 -4.1122  0.4473  0.3697
   21CHL1  H27C 1554   4.206   0.437   4.575  0.0018  0.9659  0.2778
   22CHL1    C3 1555   6.422   3.371   6.174  0.0115  0.3409  0.8852
   22CHL1    H3 1556   6.430   3.481   6.159  1.4545  0.1233 -0.0640
   22CHL1    O3 1557   6.447   3.327   6.306 -0.0202 -0.2492  0.6232
   22CHL1   H3' 1558   6.367   3.329   6.358  0.2142  1.2364  0.9912
   22CHL1    C4 1559   6.285   3.325   6.122  0.8818  0.6387  0.2099
   22CHL1   H4A 1560   6.278   3.215   6.136 -0.2603  0.6818  0.0375
   22CHL1   H4B 1561   6.211   3.375   6.187 -0.2143  0.3205 -0.7665
   22CHL1    C5 1562   6.266   3.348   5.973  0.1063  0.4601 -0.0087
   22CHL1    C6 1563   6.164   3.417   5.929  0.6251 -0.7705 -0.6025
   22CHL1    H6 1564   6.094   3.454   6.006 -0.2290 -2.8142 -0.3433
   22CHL1    C7 1565   6.133   3.444   5.783  0.4855 -0.5298 -1.1519
   22CHL1   H7A 1566   6.026   3.417   5.768  0.3731 -3.6739  3.2958
   22CHL1   H7B 1567   6.152   3.552   5.765 -1.0586 -0.1919 -0.9173
   22CHL1    C8 1568   6.211   3.344   5.693 -0.3423 -0.4983  0.1417
   22CHL1    H8 1569   6.170   3.242   5.709 -2.0305  0.0410 -0.5137
   22CHL1   C14 1570   6.197   3.372   5.542  0.1663 -0.1159  0.0310
   22CHL1   H14 1571   6.219   3.480   5.533 -1.2049  0.1104 -0.9965
   22CHL1   C15 1572   6.050   3.360   5.489 -0.0561  0.0304  0.0103
   22CHL1  H15A 1573   6.010   3.259   5.510 -0.2867 -0.0916 -0.9789
   22CHL1  H15B 1574   5.986   3.443   5.525 -0.6537 -0.2176 -0.4600
   22CHL1   C16 1575   6.067   3.374   5.333  0.7308  0.6307  0.0861
   22CHL1  H16A 1576   6.003   3.305   5.274 -2.1206  1.2582  2.2168
   22CHL1  H16B 1577   6.056   3.479   5.299  2.9453  0.5852 -1.0211
   22CHL1   C17 1578   6.227   3.335   5.315  0.1303 -0.4606 -0.1429
   22CHL1   H17 1579   6.277   3.433   5.297  0.5547 -0.4650  0.9535
   22CHL1   C13 1580   6.288   3.291   5.453 -0.3034 -0.3180  0.1220
   22CHL1   C18 1581   6.261   3.142   5.479  0.1439  0.5371 -0.4352
   22CHL1  H18A 1582   6.252   3.117   5.587 -0.7278 -1.9988 -1.0120
   22CHL1  H18B 1583   6.162   3.114   5.438  0.7259 -1.5622 -0.5489
   22CHL1  H18C 1584   6.339   3.083   5.426  0.5171  0.1707  0.5047
   22CHL1   C12 1585   6.434   3.331   5.490  0.7615  0.2641 -0.0825
   22CHL1  H12A 1586   6.510   3.273   5.434 -0.5954  0.3977 -2.2015
   22CHL1  H12B 1587   6.458   3.438   5.476 -0.2999  0.5293  0.0253
   22CHL1   C11 1588   6.467   3.297   5.638  0.7140  0.5202  0.1254
   22CHL1  H11A 1589   6.456   3.187   5.634  0.9006  0.4730  0.7869
   22CHL1  H11B 1590   6.571   3.321   5.671  0.1085  0.6141  2.0992
   22CHL1    C9 1591   6.361   3.350   5.735  0.4003 -0.2214 -0.3388
   22CHL1    H9 1592   6.376   3.459   5.745  1.0364 -0.1983 -1.3128
   22CHL1   C10 1593   6.372   3.292   5.882 -0.4500  0.0340  0.2451
   22CHL1   C19 1594   6.362   3.137   5.876 -0.3949 -0.3768  0.4504
   22CHL1  H19A 1595   6.364   3.095   5.978  0.0128 -1.7753 -0.1065
   22CHL1  H19B 1596   6.264   3.108   5.832 -0.7995  1.8312 -0.2601
   22CHL1  H19C 1597   6.445   3.088   5.820 -0.0271 -0.2783  0.9077
   22CHL1    C1 1598   6.513   3.327   5.940  0.4505  0.6916  0.9381
   22CHL1   H1A 1599   6.581   3.258   5.885 -2.4647 -0.3747 -1.6382
   22CHL1   H1B 1600   6.530   3.431   5.905 -0.6211  0.2106 -1.1531
   22CHL1    C2 1601   6.532   3.305   6.088 -0.7888  0.4467  0.7398
   22CHL1   H2A 1602   6.634   3.337   6.119  0.1109 -2.1408  0.7111
   22CHL1   H2B 1603   6.531   3.195   6.104 -1.4216  0.1023 -1.3403
   22CHL1   C20 1604   6.254   3.246   5.193  0.6572 -0.3891  0.0287
   22CHL1   H20 1605   6.202   3.148   5.201  0.7726 -0.8790 -3.5373
   22CHL1   C21 1606   6.406   3.221   5.171 -0.9222 -0.8578 -0.2384
   22CHL1  H21A 1607   6.453   3.154   5.246 -1.0730 -0.4496  0.2291
   22CHL1  H21B 1608   6.473   3.310   5.167 -1.4634 -0.4477 -0.3993
   22CHL1  H21C 1609   6.425   3.169   5.075 -0.4442 -0.4775 -0.3541
   22CHL1   C22 1610   6.196   3.320   5.067 -0.4330  0.6340 -0.0812
   22CHL1  H22A 1611   6.093   3.353   5.095 -0.3625  0.3353  0.5487
   22CHL1  H22B 1612   6.252   3.410   5.034  0.4606 -0.4133 -1.5465
   22CHL1   C23 1613   6.194   3.229   4.947 -0.1041  0.2623  0.6502
   22CHL1  H23A 1614   6.295   3.204   4.907 -1.0603 -0.4063 -1.4749
   22CHL1  H23B 1615   6.151   3.133   4.983  1.5132 -1.0580 -0.7421
   22CHL1   C24 1616   6.121   3.292   4.830 -0.3167  0.3225  0.0313
   22CHL1  H24A 1617   6.015   3.319   4.848 -0.4598  0.9279 -1.5454
   22CHL1  H24B 1618   6.187   3.377   4.803  0.2448 -0.8104 -2.5291
   22CHL1   C25 1619   6.137   3.202   4.706  0.3361 -0.9954 -0.1839
   22CHL1   H25 1620   6.242   3.166   4.702  1.0109  0.9460 -1.4353
   22CHL1   C26 1621   6.035   3.086   4.717 -0.1289 -0.8595  0.6894
   22CHL1  H26A 1622   6.044   3.025   4.810 -0.2592 -2.3398 -0.2326
   22CHL1  H26B 1623   5.936   3.136   4.708  0.5020  0.5162  1.2856
   22CHL1  H26C 1624   6.041   3.023   4.626 -2.2018  1.1694 -0.9597
   22CHL1   C27 1625   6.116   3.291   4.581 -0.1500 -0.2302 -0.5747
   22CHL1  H27A 1626   6.094   3.230   4.490  1.2808  0.6616 -1.5619
   22CHL1  H27B 1627   6.023   3.351   4.595 -0.1070  0.0452 -1.4316
   22CHL1  H27C 1628   6.192   3.370   4.566  1.0561 -0.5841  2.7467
   23CHL1    C3 1629   5.477   1.568   5.958 -0.4896  0.7923  0.4372
   23CHL1    H3 1630   5.386   1.504   5.957  1.0015 -1.5146  1.6068
   23CHL1    O3 1631   5.523   1.562   6.096  0.2209  0.4825  0.1967
   23CHL1   H3' 1632   5.605   1.513   6.093  0.4216  0.7278  1.4023
   23CHL1    C4 1633   5.596   1.510   5.873 -0.3811  0.3715 -0.4191
   23CHL1   H4A 1634   5.686   1.573   5.888  0.4930 -0.4955 -1.7707
   23CHL1   H4B 1635   5.619   1.410   5.916  0.3136  0.6147 -0.2011
   23CHL1    C5 1636   5.559   1.490   5.727 -1.0814  0.4650  0.2977
   23CHL1    C6 1637   5.557   1.369   5.667  0.1934  0.0737 -0.0185
   23CHL1    H6 1638   5.585   1.281   5.727  0.6348 -0.3770 -0.8761
   23CHL1    C7 1639   5.511   1.337   5.526  0.2823  0.0075  0.6328
   23CHL1   H7A 1640   5.584   1.268   5.479 -0.6364 -0.3780 -0.2357
   23CHL1   H7B 1641   5.409   1.295   5.523  0.0290  0.6541  0.0272
   23CHL1    C8 1642   5.517   1.476   5.443  0.3226  0.1496 -0.2788
   23CHL1    H8 1643   5.624   1.500   5.425  0.7359 -0.8251  0.7859
   23CHL1   C14 1644   5.444   1.462   5.314  0.8297 -0.0936 -0.5949
   23CHL1   H14 1645   5.340   1.451   5.350  0.4597 -0.8992 -1.8531
   23CHL1   C15 1646   5.482   1.346   5.229 -0.2586  0.1722  0.2600
   23CHL1  H15A 1647   5.593   1.348   5.227  0.1060 -4.7862 -3.2111
   23CHL1  H15B 1648   5.445   1.251   5.272 -1.3490  0.0632 -0.8581
   23CHL1   C16 1649   5.426   1.379   5.094 -0.9427  0.4520  0.3174
   23CHL1  H16A 1650   5.509   1.378   5.020  1.5290  0.3904  2.8926
   23CHL1  H16B 1651   5.343   1.313   5.060  1.6141 -1.7711 -2.0684
   23CHL1   C17 1652   5.368   1.525   5.101  0.4515  0.2776  0.2186
   23CHL1   H17 1653   5.258   1.519   5.121  0.1909  0.2166 -1.1235
   23CHL1   C13 1654   5.442   1.580   5.219 -0.2492 -0.1115 -0.0822
   23CHL1   C18 1655   5.576   1.631   5.175 -0.3679  1.1190 -0.2487
   23CHL1  H18A 1656   5.579   1.731   5.125 -0.6506  1.5801  0.6311
   23CHL1  H18B 1657   5.641   1.651   5.263 -1.4719 -1.8335  1.3801
   23CHL1  H18C 1658   5.620   1.554   5.108 -0.5788  2.9913 -2.6757
   23CHL1   C12 1659   5.366   1.696   5.298  0.9167  0.3192 -0.1625
   23CHL1  H12A 1660   5.358   1.790   5.239  1.1147  1.4717  1.5555
   23CHL1  H12B 1661   5.266   1.664   5.334  1.7894 -0.0525  2.0825
   23CHL1   C11 1662   5.434   1.729   5.433  0.1732  0.1437 -0.2353
   23CHL1  H11A 1663   5.533   1.773   5.410 -0.0439 -0.8683 -3.6333
   23CHL1  H11B 1664   5.366   1.797   5.488  0.8467  0.8987 -0.3257
   23CHL1    C9 1665   5.451   1.594   5.519 -0.0675 -1.1021  0.2228
   23CHL1    H9 1666   5.347   1.558   5.531 -1.1766  1.1317 -1.7556
   23CHL1   C10 1667   5.507   1.625   5.665  0.0790  0.2870  0.3297
   23CHL1   C19 1668   5.631   1.717   5.648 -0.6892  0.0879 -0.2269
   23CHL1  H19A 1669   5.699   1.661   5.580  0.0132 -0.1845  0.6800
   23CHL1  H19B 1670   5.610   1.820   5.613 -0.1328 -0.0505 -0.9997
   23CHL1  H19C 1671   5.689   1.727   5.742  2.4753  0.0513 -2.0474
   23CHL1    C1 1672   5.404   1.698   5.759  0.1336  0.7849  0.1839
   23CHL1   H1A 1673   5.376   1.802   5.732 -4.1445  0.6073  2.9643
   23CHL1   H1B 1674   5.313   1.635   5.752  2.6363 -3.2032 -0.0937
   23CHL1    C2 1675   5.434   1.703   5.909 -0.1854 -0.1656 -0.1737
   23CHL1   H2A 1676   5.344   1.741   5.961 -0.1099 -1.6586  1.1159
   23CHL1   H2B 1677   5.521   1.770   5.928  0.0772 -0.5209 -0.1034
   23CHL1   C20 1678   5.378   1.606   4.966  0.2500 -0.1506  0.1385
   23CHL1   H20 1679   5.486   1.608   4.939  0.4140  0.8011  0.8402
   23CHL1   C21 1680   5.325   1.749   4.981  0.1818 -0.2859  0.2826
   23CHL1  H21A 1681   5.217   1.746   5.009  0.9640  0.6620  3.9672
   23CHL1  H21B 1682   5.333   1.799   4.882 -2.3043 -1.1081 -0.4295
   23CHL1  H21C 1683   5.387   1.812   5.047  1.3556 -1.4908  0.3738
   23CHL1   C22 1684   5.301   1.538   4.847 -0.5231  0.0147 -0.4241
   23CHL1  H22A 1685   5.301   1.427   4.850 -0.6416  0.0147 -0.4473
   23CHL1  H22B 1686   5.195   1.568   4.861 -0.0724  1.8926 -0.7211
   23CHL1   C23 1687   5.337   1.569   4.700  1.3530  0.0800 -0.3918
   23CHL1  H23A 1688   5.265   1.517   4.634  0.3882 -0.5510  1.1145
   23CHL1  H23B 1689   5.308   1.676   4.697  0.9424 -0.0087  0.2889
   23CHL1   C24 1690   5.487   1.546   4.665  0.1127  0.1128  0.3088
   23CHL1  H24A 1691   5.538   1.552   4.763 -2.3910  2.1956  1.6069
   23CHL1  H24B 1692   5.487   1.442   4.625 -2.8963 -0.3210  1.1996
   23CHL1   C25 1693   5.550   1.642   4.563 -0.0720  0.8882  0.5865
   23CHL1   H25 1694   5.637   1.579   4.536 -0.4281  0.0950  1.2234
   23CHL1   C26 1695   5.452   1.654   4.442 -0.0887 -0.0644  0.2967
   23CHL1  H26A 1696   5.355   1.699   4.474 -0.4009 -0.6401  0.1601
   23CHL1  H26B 1697   5.493   1.724   4.366 -0.2537 -0.2660  0.0212
   23CHL1  H26C 1698   5.439   1.560   4.385  0.3847  0.3818 -0.5680
   23CHL1   C27 1699   5.579   1.779   4.627 -0.1523  0.3093  0.1196
   23CHL1  H27A 1700   5.630   1.849   4.557  2.4871 -0.2715  1.3307
   23CHL1  H27B 1701   5.481   1.815   4.664  0.9861  1.5881  2.1131
   23CHL1  H27C 1702   5.649   1.771   4.713  1.4122  2.1801 -0.8842
   24CHL1    C3 1703   4.731   5.889   6.584 -0.3563  0.7064 -0.1359
   24CHL1    H3 1704   4.805   5.815   6.546 -0.9425  0.4875 -0.8734
   24CHL1    O3 1705   4.750   5.915   6.722 -0.7418 -0.7908 -0.3065
   24CHL1   H3' 1706   4.691   5.985   6.751  1.8451  1.4206 -0.0506
   24CHL1    C4 1707   4.748   6.024   6.519  0.4489  0.0887 -0.8534
   24CHL1   H4A 1708   4.685   6.095   6.576 -2.6899 -2.3001 -1.0413
   24CHL1   H4B 1709   4.852   6.057   6.541 -0.3112  1.4407  0.9072
   24CHL1    C5 1710   4.702   6.023   6.379  0.4912  0.3404 -0.4220
   24CHL1    C6 1711   4.787   6.071   6.285  0.9414 -0.3957 -0.5567
   24CHL1    H6 1712   4.880   6.111   6.328  0.6158 -2.2456  2.1251
   24CHL1    C7 1713   4.746   6.095   6.139 -0.3853 -0.4908  0.4195
   24CHL1   H7A 1714   4.792   6.189   6.102  1.3912 -2.2105 -2.0426
   24CHL1   H7B 1715   4.791   6.021   6.070 -1.0047 -0.0992 -0.4258
   24CHL1    C8 1716   4.595   6.097   6.120 -0.4771  0.0274  0.1228
   24CHL1    H8 1717   4.552   6.193   6.156 -1.3296 -0.2301 -0.1739
   24CHL1   C14 1718   4.556   6.080   5.976  0.4109  0.6792 -0.8157
   24CHL1   H14 1719   4.590   5.980   5.942  0.2883 -0.4481  2.1041
   24CHL1   C15 1720   4.625   6.177   5.879  0.3423 -0.3968  0.5006
   24CHL1  H15A 1721   4.631   6.284   5.909  0.5953 -0.4440  0.6190
   24CHL1  H15B 1722   4.730   6.150   5.852 -0.0867  1.4573 -3.8181
   24CHL1   C16 1723   4.544   6.169   5.744 -0.1477 -0.9127 -0.4956
   24CHL1  H16A 1724   4.522   6.269   5.699 -0.2885 -1.2596 -1.2204
   24CHL1  H16B 1725   4.600   6.115   5.665 -1.1509 -0.3740 -1.6086
   24CHL1   C17 1726   4.417   6.086   5.785  0.4172 -0.1625  0.6438
   24CHL1   H17 1727   4.449   5.981   5.767  1.1733  0.2508 -0.5186
   24CHL1   C13 1728   4.408   6.079   5.938  0.2805  0.3819 -0.6685
   24CHL1   C18 1729   4.341   6.219   5.971 -0.6690 -0.4607  0.3846
   24CHL1  H18A 1730   4.387   6.306   5.919 -1.9646 -0.5874 -1.0379
   24CHL1  H18B 1731   4.240   6.228   5.928 -0.3696 -0.1675 -0.2643
   24CHL1  H18C 1732   4.332   6.238   6.081 -1.1176  2.5192 -0.0831
   24CHL1   C12 1733   4.344   5.960   6.021 -0.0501  0.1077  0.2843
   24CHL1  H12A 1734   4.233   5.963   6.017 -0.1367 -2.0289  0.1119
   24CHL1  H12B 1735   4.390   5.865   5.987 -1.9782 -0.8069  0.0836
   24CHL1   C11 1736   4.372   5.973   6.170  0.4634 -0.2144  0.6765
   24CHL1  H11A 1737   4.314   6.061   6.206  2.0987  1.9134 -1.5366
   24CHL1  H11B 1738   4.327   5.887   6.224  0.2551 -0.7958 -0.3857
   24CHL1    C9 1739   4.526   5.980   6.206 -0.4102 -0.6770  0.4731
   24CHL1    H9 1740   4.552   5.880   6.164 -1.8344 -0.5290 -0.8451
   24CHL1   C10 1741   4.556   5.986   6.357  0.6183  0.2477 -0.0593
   24CHL1   C19 1742   4.469   6.095   6.409  0.4228 -0.0693  0.1095
   24CHL1  H19A 1743   4.364   6.062   6.415  0.9276 -1.6145  1.1243
   24CHL1  H19B 1744   4.489   6.123   6.515 -1.1053  0.0543  0.3792
   24CHL1  H19C 1745   4.478   6.180   6.338  1.9371 -0.0069  0.3409
   24CHL1    C1 1746   4.536   5.850   6.427  0.0143  1.1675  0.5314
   24CHL1   H1A 1747   4.431   5.815   6.430  0.8340 -1.7298 -0.9641
   24CHL1   H1B 1748   4.576   5.768   6.364  1.7900  1.8673  0.6999
   24CHL1    C2 1749   4.590   5.833   6.569  0.4505 -1.0104 -0.1044
   24CHL1   H2A 1750   4.593   5.726   6.602 -1.5053 -1.0683 -0.0018
   24CHL1   H2B 1751   4.520   5.889   6.634 -0.1319 -1.8313 -0.0062
   24CHL1   C20 1752   4.298   6.101   5.690  0.4052  0.6844 -0.0728
   24CHL1   H20 1753   4.240   6.195   5.700  0.6159  0.8042  0.0554
   24CHL1   C21 1754   4.193   5.990   5.721  0.7198 -0.2041 -0.4865
   24CHL1  H21A 1755   4.166   5.986   5.829  0.1961  2.7478 -0.4292
   24CHL1  H21B 1756   4.222   5.891   5.680  0.3967  0.3613 -2.1781
   24CHL1  H21C 1757   4.105   6.015   5.657 -0.2259 -1.3452  0.3151
   24CHL1   C22 1758   4.345   6.107   5.545 -0.2927  0.1904 -0.6587
   24CHL1  H22A 1759   4.428   6.176   5.517 -0.5808  0.5056 -0.7516
   24CHL1  H22B 1760   4.389   6.010   5.517  0.8188  0.2356  0.7587
   24CHL1   C23 1761   4.234   6.156   5.442 -1.1732  0.8528 -0.5803
   24CHL1  H23A 1762   4.136   6.124   5.482 -0.4482 -1.6016 -0.5624
   24CHL1  H23B 1763   4.226   6.267   5.448 -0.5362  0.9230 -0.9350
   24CHL1   C24 1764   4.242   6.124   5.293  0.2761  0.7573  0.0587
   24CHL1  H24A 1765   4.157   6.168   5.236 -0.1778 -0.3291 -0.1304
   24CHL1  H24B 1766   4.335   6.177   5.262  0.8292 -0.5149 -0.5338
   24CHL1   C25 1767   4.256   5.969   5.266  0.1636 -0.5308  0.3930
   24CHL1   H25 1768   4.363   5.942   5.281  0.7676  1.2433 -0.3537
   24CHL1   C26 1769   4.154   5.879   5.339  0.4067  0.0394  0.1046
   24CHL1  H26A 1770   4.144   5.910   5.446 -1.7895  0.1773 -0.0881
   24CHL1  H26B 1771   4.053   5.884   5.293  1.4317  0.3078 -2.2679
   24CHL1  H26C 1772   4.190   5.775   5.326 -1.1073 -0.6854  1.2935
   24CHL1   C27 1773   4.239   5.946   5.110 -0.0124  0.6733 -0.6505
   24CHL1  H27A 1774   4.305   6.008   5.046 -0.8439  0.3840 -1.8226
   24CHL1  H27B 1775   4.252   5.838   5.087  0.3712  1.1532 -2.8437
   24CHL1  H27C 1776   4.132   5.968   5.091  0.0734  3.1953  1.2734
   25CHL1    C3 1777   3.015   0.471   6.238 -0.5618 -0.3256 -0.0303
   25CHL1    H3 1778   3.096   0.434   6.172 -1.6380 -0.7595 -1.1395
   25CHL1    O3 1779   3.065   0.499   6.368 -0.3310  0.3302  1.1808
   25CHL1   H3' 1780   2.994   0.541   6.416 -0.7254  0.5942  0.3761
   25CHL1    C4 1781   2.946   0.595   6.181 -0.0753  0.0386  0.3326
   25CHL1   H4A 1782   2.853   0.624   6.233  0.3669  3.0263 -0.3665
   25CHL1   H4B 1783   3.011   0.684   6.195  0.1639  0.0545 -0.7262
   25CHL1    C5 1784   2.917   0.560   6.030 -0.2782 -0.2331  0.3804
   25CHL1    C6 1785   2.967   0.634   5.930  0.1328  0.7934 -0.9943
   25CHL1    H6 1786   3.033   0.716   5.959  0.4436 -0.2920  1.6515
   25CHL1    C7 1787   2.947   0.612   5.782 -0.1202 -0.0858  0.2319
   25CHL1   H7A 1788   2.938   0.704   5.721  1.0492 -0.3424 -0.3500
   25CHL1   H7B 1789   3.039   0.562   5.745  0.5010  0.6245  0.7846
   25CHL1    C8 1790   2.837   0.512   5.755 -0.3922  0.2144 -0.5778
   25CHL1    H8 1791   2.739   0.562   5.773 -1.1579 -1.5476  0.3490
   25CHL1   C14 1792   2.842   0.463   5.614  0.3511 -0.3668 -0.0938
   25CHL1   H14 1793   2.928   0.392   5.609  1.0225  0.4751 -0.9526
   25CHL1   C15 1794   2.843   0.569   5.506  0.9627  0.4994 -0.0003
   25CHL1  H15A 1795   2.761   0.642   5.523  0.0996  0.3711 -3.0443
   25CHL1  H15B 1796   2.934   0.632   5.507  2.5872 -1.7209 -0.6449
   25CHL1   C16 1797   2.811   0.483   5.385  0.0037 -0.5532  0.3637
   25CHL1  H16A 1798   2.742   0.543   5.322  0.3697  0.9196  1.3247
   25CHL1  H16B 1799   2.906   0.462   5.330  1.7253  0.3704  2.8093
   25CHL1   C17 1800   2.743   0.347   5.429  0.3674 -0.4995  0.5975
   25CHL1   H17 1801   2.819   0.267   5.422 -1.4721 -2.4147  1.2625
   25CHL1   C13 1802   2.726   0.365   5.581 -0.3163 -0.2010  0.3557
   25CHL1   C18 1803   2.593   0.443   5.588  0.2322 -0.0938 -1.3471
   25CHL1  H18A 1804   2.578   0.517   5.506  0.0331  1.1773 -0.1988
   25CHL1  H18B 1805   2.518   0.362   5.575  1.1363 -0.9293 -1.5308
   25CHL1  H18C 1806   2.582   0.487   5.689  0.2728  1.3906 -1.9626
   25CHL1   C12 1807   2.739   0.242   5.671 -0.0609  0.3395 -0.8366
   25CHL1  H12A 1808   2.645   0.182   5.664  0.1622 -0.3049  0.9298
   25CHL1  H12B 1809   2.826   0.176   5.649 -0.5984 -0.7812  0.2293
   25CHL1   C11 1810   2.753   0.276   5.819  0.3620  0.5442 -1.0012
   25CHL1  H11A 1811   2.646   0.284   5.850  0.0375 -0.0582 -1.9318
   25CHL1  H11B 1812   2.787   0.185   5.873  0.1058  0.7404 -0.4909
   25CHL1    C9 1813   2.843   0.393   5.861 -0.0778  0.0468 -0.1121
   25CHL1    H9 1814   2.946   0.353   5.843  0.4929  0.5665  1.8176
   25CHL1   C10 1815   2.831   0.436   6.005  0.0519 -0.1986 -0.3578
   25CHL1   C19 1816   2.680   0.456   6.036  0.4380 -0.5607  0.6761
   25CHL1  H19A 1817   2.628   0.358   6.038  1.4941 -1.1200  0.9908
   25CHL1  H19B 1818   2.671   0.507   6.135  0.9542  0.9363 -0.0093
   25CHL1  H19C 1819   2.633   0.519   5.957  3.1136  0.8012  0.0596
   25CHL1    C1 1820   2.872   0.314   6.093  0.2264  1.4716 -0.2593
   25CHL1   H1A 1821   2.794   0.236   6.081  1.0672  0.5896 -0.1781
   25CHL1   H1B 1822   2.960   0.270   6.041 -2.2180  0.2037 -3.7345
   25CHL1    C2 1823   2.905   0.357   6.233 -0.1568 -0.4307 -0.2258
   25CHL1   H2A 1824   2.952   0.276   6.292 -0.9819 -0.9640 -0.2918
   25CHL1   H2B 1825   2.816   0.400   6.284  0.0816 -0.3069  0.0954
   25CHL1   C20 1826   2.624   0.305   5.343  0.1378  0.0187 -0.1990
   25CHL1   H20 1827   2.546   0.384   5.334 -1.4745 -1.3533  1.2361
   25CHL1   C21 1828   2.558   0.166   5.390 -0.2399  0.0252 -0.2838
   25CHL1  H21A 1829   2.490   0.134   5.309 -1.4109  2.7493 -0.5047
   25CHL1  H21B 1830   2.500   0.184   5.483  1.2051  2.3990  0.2453
   25CHL1  H21C 1831   2.640   0.096   5.417 -1.8695 -1.1871  1.8571
   25CHL1   C22 1832   2.665   0.282   5.193  0.4300 -0.5255 -0.6692
   25CHL1  H22A 1833   2.720   0.367   5.147 -0.8969 -0.7960 -2.8959
   25CHL1  H22B 1834   2.738   0.198   5.189  1.7045  0.4801  0.3633
   25CHL1   C23 1835   2.542   0.265   5.096  0.2495  0.2849 -0.1002
   25CHL1  H23A 1836   2.485   0.171   5.110 -0.5549  0.9586  1.4143
   25CHL1  H23B 1837   2.473   0.351   5.115 -1.3170 -0.5335 -1.8125
   25CHL1   C24 1838   2.597   0.260   4.958  0.0355 -0.0370  0.2173
   25CHL1  H24A 1839   2.644   0.356   4.928  0.2398 -0.3491 -0.4924
   25CHL1  H24B 1840   2.666   0.172   4.954  0.5566  0.4044 -1.2749
   25CHL1   C25 1841   2.492   0.218   4.850  0.2017 -0.0586  0.0037
   25CHL1   H25 1842   2.426   0.140   4.894 -3.0335  2.8820  0.8391
   25CHL1   C26 1843   2.385   0.326   4.830  0.0390  0.2678 -0.4606
   25CHL1  H26A 1844   2.307   0.271   4.772 -1.1917 -1.7231  2.7681
   25CHL1  H26B 1845   2.346   0.343   4.933 -1.3526 -3.3104 -0.2282
   25CHL1  H26C 1846   2.431   0.410   4.774  0.2106 -0.2840 -1.1664
   25CHL1   C27 1847   2.569   0.170   4.723 -0.2006  0.0265 -0.3767
   25CHL1  H27A 1848   2.622   0.260   4.688 -1.0068 -0.4751 -3.1162
   25CHL1  H27B 1849   2.637   0.088   4.754  0.3509  0.1142 -1.3333
   25CHL1  H27C 1850   2.497   0.130   4.648 -1.3439  1.4492 -0.0889
   26CHL1    C3 1851   1.271   5.259   5.932  0.1416  0.0930  0.0037
   26CHL1    H3 1852   1.184   5.194   5.912 -0.0400  0.7223 -1.3875
   26CHL1    O3 1853   1.318   5.239   6.061  0.3073 -0.1041 -0.0157
   26CHL1   H3' 1854   1.371   5.316   6.081  0.8285 -0.5753  0.4576
   26CHL1    C4 1855   1.384   5.231   5.828 -0.5339 -0.2050  0.0077
   26CHL1   H4A 1856   1.458   5.313   5.839 -0.1756 -0.1580 -2.3045
   26CHL1   H4B 1857   1.434   5.136   5.857 -0.4636  0.3147  1.6917
   26CHL1    C5 1858   1.336   5.252   5.687  0.0723  0.2931  0.1474
   26CHL1    C6 1859   1.361   5.165   5.595  0.6108  0.0565  0.7691
   26CHL1    H6 1860   1.428   5.081   5.620  1.5319  1.0921  1.8868
   26CHL1    C7 1861   1.316   5.176   5.448 -0.7644 -0.5325  0.0363
   26CHL1   H7A 1862   1.405   5.141   5.393 -1.2152  0.0307 -1.0848
   26CHL1   H7B 1863   1.245   5.097   5.415 -1.0672  0.9738 -3.2596
   26CHL1    C8 1864   1.265   5.318   5.409 -0.8184  0.2057 -0.2031
   26CHL1    H8 1865   1.355   5.382   5.396  0.5711 -1.4541  0.8621
   26CHL1   C14 1866   1.187   5.317   5.277 -0.1942  0.1375  0.4166
   26CHL1   H14 1867   1.098   5.255   5.301  0.9266 -2.3041 -1.2712
   26CHL1   C15 1868   1.232   5.255   5.137 -0.4098 -0.5025 -0.0692
   26CHL1  H15A 1869   1.336   5.276   5.104 -0.6863  0.8751 -0.1131
   26CHL1  H15B 1870   1.222   5.145   5.143 -0.2246 -0.4476  2.0371
   26CHL1   C16 1871   1.143   5.309   5.029 -0.3971 -0.6500  0.2001
   26CHL1  H16A 1872   1.206   5.356   4.951 -1.7519  2.6615  0.9194
   26CHL1  H16B 1873   1.088   5.224   4.983 -2.2577  0.3931  0.3828
   26CHL1   C17 1874   1.058   5.414   5.101  0.4688 -0.4919 -0.0190
   26CHL1   H17 1875   0.967   5.362   5.138 -1.1960  3.2880  1.7657
   26CHL1   C13 1876   1.129   5.449   5.236  0.8360  0.1702  0.4359
   26CHL1   C18 1877   1.239   5.546   5.214  0.1558 -0.6448 -0.4985
   26CHL1  H18A 1878   1.193   5.641   5.180 -1.5276 -0.9345  0.8053
   26CHL1  H18B 1879   1.303   5.575   5.300  0.3412  0.0408 -0.8640
   26CHL1  H18C 1880   1.312   5.512   5.137 -0.5097 -0.5393 -1.1854
   26CHL1   C12 1881   1.034   5.494   5.349  0.7150 -0.1445  0.4079
   26CHL1  H12A 1882   0.993   5.595   5.328  0.2761 -0.3774  0.1220
   26CHL1  H12B 1883   0.954   5.418   5.363  0.0834  0.3173 -0.5528
   26CHL1   C11 1884   1.113   5.509   5.480 -0.7106  0.5198 -0.3247
   26CHL1  H11A 1885   1.179   5.596   5.464 -0.8126  0.9924  1.5900
   26CHL1  H11B 1886   1.037   5.535   5.557 -1.0796  1.7949 -1.0975
   26CHL1    C9 1887   1.182   5.376   5.524  0.6522  0.2609 -0.3256
   26CHL1    H9 1888   1.101   5.300   5.532  0.2155  0.3567 -2.9684
   26CHL1   C10 1889   1.256   5.383   5.661 -0.1447  0.1331 -0.7816
   26CHL1   C19 1890   1.357   5.497   5.649 -0.3918  0.7846 -0.3820
   26CHL1  H19A 1891   1.406   5.500   5.749 -2.1747 -1.5643  0.6724
   26CHL1  H19B 1892   1.438   5.486   5.575 -0.5187  0.2528 -0.4466
   26CHL1  H19C 1893   1.304   5.594   5.631 -1.8532  0.5198  1.9217
   26CHL1    C1 1894   1.157   5.419   5.777  0.6478 -0.0852 -0.7122
   26CHL1   H1A 1895   1.138   5.528   5.765  3.3544  0.6130  0.4284
   26CHL1   H1B 1896   1.065   5.357   5.773 -0.1017  0.9421  0.1217
   26CHL1    C2 1897   1.219   5.407   5.917  0.4398  0.6550 -0.2444
   26CHL1   H2A 1898   1.140   5.409   5.995 -0.3724 -1.5045 -0.9170
   26CHL1   H2B 1899   1.291   5.489   5.939  0.1022  0.5965  1.1632
   26CHL1   C20 1900   0.999   5.525   5.006 -0.1367 -0.2241  0.2707
   26CHL1   H20 1901   1.083   5.583   4.963  1.2772 -1.7010  0.9522
   26CHL1   C21 1902   0.907   5.623   5.066  0.3918  0.6274 -0.2855
   26CHL1  H21A 1903   0.887   5.714   5.006 -1.2303  0.4608 -0.0493
   26CHL1  H21B 1904   0.963   5.670   5.149 -0.3332  0.0295  0.5717
   26CHL1  H21C 1905   0.817   5.574   5.110  0.4813  0.9094  0.2194
   26CHL1   C22 1906   0.925   5.457   4.888 -0.4262  0.4339  0.0006
   26CHL1  H22A 1907   1.004   5.402   4.832  2.8958  1.4930  3.2720
   26CHL1  H22B 1908   0.848   5.394   4.938 -0.6538  1.2022  0.6435
   26CHL1   C23 1909   0.851   5.557   4.798  0.2003  0.9964 -0.0742
   26CHL1  H23A 1910   0.770   5.610   4.851 -0.0977  0.4883 -0.0110
   26CHL1  H23B 1911   0.911   5.628   4.738 -3.2523  0.0900 -5.2892
   26CHL1   C24 1912   0.770   5.480   4.690  0.2592  0.5625  0.0740
   26CHL1  H24A 1913   0.707   5.409   4.747  0.5912 -0.1445 -0.4218
   26CHL1  H24B 1914   0.703   5.556   4.645 -0.8860 -0.8273 -0.6197
   26CHL1   C25 1915   0.843   5.394   4.588 -0.3176  0.3417  0.0009
   26CHL1   H25 1916   0.880   5.302   4.638 -1.5917  0.3816  1.0761
   26CHL1   C26 1917   0.749   5.354   4.466 -0.1664 -0.2479 -0.1131
   26CHL1  H26A 1918   0.773   5.252   4.432 -1.2082 -0.4768 -0.2052
   26CHL1  H26B 1919   0.646   5.344   4.507  0.1349 -0.4467  0.6164
   26CHL1  H26C 1920   0.743   5.424   4.380  0.8330  0.1977  0.1646
   26CHL1   C27 1921   0.974   5.465   4.540 -0.1996  0.6238  0.5732
   26CHL1  H27A 1922   1.021   5.415   4.452  0.0773  1.7446  0.0657
   26CHL1  H27B 1923   0.962   5.571   4.508 -1.8276 -0.0523 -1.2075
   26CHL1  H27C 1924   1.056   5.470   4.616 -1.1216  1.0242  1.5638
   27CHL1    C3 1925   5.507   5.953   6.685 -0.2839 -0.0023 -0.4075
   27CHL1    H3 1926   5.440   6.040   6.697 -0.3608 -0.1724  0.5205
   27CHL1    O3 1927   5.568   5.933   6.811  0.5100 -0.4074 -0.1688
   27CHL1   H3' 1928   5.634   5.867   6.793 -1.0790 -2.4694  1.0771
   27CHL1    C4 1929   5.423   5.833   6.632 -0.0402 -0.0263  0.0169
   27CHL1   H4A 1930   5.478   5.740   6.657  1.8968  1.9424  3.9553
   27CHL1   H4B 1931   5.329   5.825   6.690 -0.8211  1.3119 -0.9921
   27CHL1    C5 1932   5.386   5.845   6.479  1.1809 -0.0830 -0.0984
   27CHL1    C6 1933   5.258   5.827   6.434  0.5402  0.5342  0.0223
   27CHL1    H6 1934   5.181   5.796   6.506 -0.6617  2.5943 -0.2973
   27CHL1    C7 1935   5.216   5.842   6.287  0.2288 -0.1458 -1.0651
   27CHL1   H7A 1936   5.156   5.750   6.274 -0.3589 -0.0173  0.4145
   27CHL1   H7B 1937   5.144   5.926   6.276 -0.6619 -0.7676 -0.1942
   27CHL1    C8 1938   5.332   5.837   6.181  0.5206  0.2058 -0.1798
   27CHL1    H8 1939   5.355   5.729   6.176  2.8497  0.6094  0.6207
   27CHL1   C14 1940   5.287   5.892   6.048  0.3214 -0.2835  1.1261
   27CHL1   H14 1941   5.259   5.998   6.067  0.0005  0.0995 -1.1936
   27CHL1   C15 1942   5.160   5.834   5.985  0.1433 -0.1283  0.0564
   27CHL1  H15A 1943   5.171   5.725   6.005 -0.6462 -0.3763 -0.7916
   27CHL1  H15B 1944   5.081   5.871   6.053  1.0429  1.1323  0.4390
   27CHL1   C16 1945   5.167   5.876   5.839  0.0707 -0.9403  0.5976
   27CHL1  H16A 1946   5.165   5.783   5.777 -0.2649 -1.4899  1.4072
   27CHL1  H16B 1947   5.080   5.940   5.814  1.2055 -0.1575 -1.5961
   27CHL1   C17 1948   5.303   5.944   5.822 -0.4381  0.3643 -0.3055
   27CHL1   H17 1949   5.291   6.051   5.851  1.5570  0.3544  0.7123
   27CHL1   C13 1950   5.392   5.895   5.940  0.6973  0.1355  0.0434
   27CHL1   C18 1951   5.440   5.750   5.898  0.0178  0.1580  1.0723
   27CHL1  H18A 1952   5.513   5.696   5.962 -0.4501 -1.7657  0.0492
   27CHL1  H18B 1953   5.361   5.687   5.853  0.3368  0.1451  0.5269
   27CHL1  H18C 1954   5.506   5.770   5.811 -0.1000 -1.5743  0.5529
   27CHL1   C12 1955   5.502   5.983   5.993 -0.0885  0.5745  0.1128
   27CHL1  H12A 1956   5.593   5.982   5.930 -0.0148  0.4398  0.2215
   27CHL1  H12B 1957   5.459   6.084   6.008 -2.3282 -0.2040 -0.5593
   27CHL1   C11 1958   5.553   5.945   6.125 -0.3964 -0.0346 -0.4223
   27CHL1  H11A 1959   5.604   5.848   6.105 -0.2161 -0.0930  0.2830
   27CHL1  H11B 1960   5.632   6.014   6.163  0.5813 -1.2158 -0.2217
   27CHL1    C9 1961   5.448   5.918   6.234  0.3575 -0.2305  0.1317
   27CHL1    H9 1962   5.400   6.017   6.249  0.7181 -0.1179  0.5764
   27CHL1   C10 1963   5.498   5.882   6.382 -0.0847 -0.1474 -0.4110
   27CHL1   C19 1964   5.595   5.768   6.378  0.3657 -0.3794 -1.0341
   27CHL1  H19A 1965   5.627   5.743   6.481  0.4786 -0.2745 -1.0437
   27CHL1  H19B 1966   5.552   5.674   6.337  0.2493 -1.3896  1.2377
   27CHL1  H19C 1967   5.682   5.796   6.315  1.1098  1.0917  0.5670
   27CHL1    C1 1968   5.573   6.003   6.437 -0.2538 -0.4165 -0.1252
   27CHL1   H1A 1969   5.660   6.031   6.373 -1.1506 -2.6547 -2.5063
   27CHL1   H1B 1970   5.507   6.092   6.441 -2.6409 -2.1536  2.0916
   27CHL1    C2 1971   5.625   5.988   6.588  0.5383  0.2221  0.4767
   27CHL1   H2A 1972   5.653   6.091   6.618  3.1825 -0.1863 -0.3575
   27CHL1   H2B 1973   5.711   5.917   6.590 -0.5855 -1.2607 -0.9032
   27CHL1   C20 1974   5.362   5.947   5.679  0.9245 -1.0489 -0.1852
   27CHL1   H20 1975   5.388   5.843   5.650  1.6798 -0.4059 -1.8837
   27CHL1   C21 1976   5.481   6.041   5.665 -0.7924  0.2319 -0.4378
   27CHL1  H21A 1977   5.469   6.128   5.734 -0.1990 -2.6088  3.6097
   27CHL1  H21B 1978   5.503   6.080   5.564 -0.8969  0.6289 -0.3103
   27CHL1  H21C 1979   5.572   5.985   5.697 -1.9699 -1.6138 -0.1784
   27CHL1   C22 1980   5.253   5.986   5.573 -0.2651 -0.6512 -0.5468
   27CHL1  H22A 1981   5.160   5.927   5.591 -1.1374  1.2965  1.9273
   27CHL1  H22B 1982   5.228   6.093   5.582  0.3935 -0.5889  0.8632
   27CHL1   C23 1983   5.297   5.959   5.425 -0.3633  0.2746  0.1423
   27CHL1  H23A 1984   5.376   6.028   5.388 -0.2108  0.0935  0.1297
   27CHL1  H23B 1985   5.341   5.858   5.435 -0.4591  0.2335  0.1594
   27CHL1   C24 1986   5.183   5.955   5.323 -0.2430 -0.5271 -0.1606
   27CHL1  H24A 1987   5.113   5.881   5.367  0.8158 -1.8615 -0.6385
   27CHL1  H24B 1988   5.134   6.055   5.321  0.2949 -0.1994  1.3980
   27CHL1   C25 1989   5.218   5.910   5.177  0.0574 -0.1687 -0.5007
   27CHL1   H25 1990   5.233   5.802   5.196  0.4708  0.0161  0.2892
   27CHL1   C26 1991   5.098   5.920   5.090  0.4975  0.6153 -0.1004
   27CHL1  H26A 1992   5.011   5.865   5.131 -0.1537 -0.1387 -2.3517
   27CHL1  H26B 1993   5.045   6.016   5.076 -0.5685 -0.0179 -0.5273
   27CHL1  H26C 1994   5.120   5.884   4.987 -0.6502 -1.7273  0.4085
   27CHL1   C27 1995   5.344   5.981   5.122  0.4119  0.4225 -0.2939
   27CHL1  H27A 1996   5.371   5.961   5.016  0.7311  2.0395 -0.5388
   27CHL1  H27B 1997   5.334   6.092   5.123  0.6068  0.4494  0.9467
   27CHL1  H27C 1998   5.434   5.953   5.180  3.5263  0.3882 -4.7059
   28CHL1    C3 1999   4.342   0.040   6.198 -0.0203 -0.1666  0.2574
   28CHL1    H3 2000   4.432   0.022   6.135  0.7540  0.3202  1.1922
   28CHL1    O3 2001   4.395   0.089   6.318  0.1052 -0.0872  0.2192
   28CHL1   H3' 2002   4.318   0.113   6.369  1.9583  1.6057  2.4476
   28CHL1    C4 2003   4.249   0.142   6.129 -0.6990  0.1363  0.2081
   28CHL1   H4A 2004   4.163   0.148   6.199 -1.4498 -2.5616 -0.3544
   28CHL1   H4B 2005   4.315   0.231   6.122  2.9289 -2.3635 -0.1569
   28CHL1    C5 2006   4.209   0.091   5.995  0.3004 -0.4064 -0.2995
   28CHL1    C6 2007   4.234   0.167   5.885 -0.0743 -0.3906  0.1213
   28CHL1    H6 2008   4.289   0.261   5.901 -0.9665 -0.0541  1.3951
   28CHL1    C7 2009   4.190   0.128   5.737  0.5047  0.6992 -0.0734
   28CHL1   H7A 2010   4.137   0.208   5.681 -0.4562  0.3172  0.2660
   28CHL1   H7B 2011   4.265   0.074   5.675 -1.1239 -2.1124  0.2187
   28CHL1    C8 2012   4.085   0.015   5.742 -0.5528 -0.5512  0.1473
   28CHL1    H8 2013   3.985   0.056   5.768 -0.3538 -0.8082  1.3735
   28CHL1   C14 2014   4.075  -0.052   5.606 -0.6931 -1.0456 -0.5641
   28CHL1   H14 2015   4.173  -0.100   5.586  0.2477 -0.6173  2.4994
   28CHL1   C15 2016   4.042   0.040   5.481  0.4317 -0.0925 -0.8967
   28CHL1  H15A 2017   3.964   0.111   5.514 -0.9539 -1.3626 -1.3572
   28CHL1  H15B 2018   4.124   0.105   5.443 -0.4226  0.6018 -1.5825
   28CHL1   C16 2019   4.001  -0.052   5.376 -0.0034 -0.7818 -0.3529
   28CHL1  H16A 2020   3.907  -0.011   5.332  0.3239 -0.5487 -0.8405
   28CHL1  H16B 2021   4.070  -0.058   5.289 -0.3316  3.2627 -1.0713
   28CHL1   C17 2022   3.984  -0.191   5.439 -0.1587 -0.3449 -0.2054
   28CHL1   H17 2023   4.071  -0.256   5.414 -0.6149 -0.8639 -0.4619
   28CHL1   C13 2024   3.981  -0.174   5.595 -0.5321  0.1282  0.1375
   28CHL1   C18 2025   3.834  -0.130   5.640  0.5947  0.3826  0.0137
   28CHL1  H18A 2026   3.816  -0.029   5.598 -1.0958 -0.3895 -1.2070
   28CHL1  H18B 2027   3.755  -0.199   5.604  0.8400  0.1907 -0.1567
   28CHL1  H18C 2028   3.831  -0.137   5.751 -2.3644 -0.2255 -0.0471
   28CHL1   C12 2029   4.036  -0.283   5.677  0.0993 -0.0891 -0.3487
   28CHL1  H12A 2030   3.965  -0.369   5.683 -1.8790  1.5417  1.4461
   28CHL1  H12B 2031   4.132  -0.328   5.644  0.9717  0.3115  1.5262
   28CHL1   C11 2032   4.069  -0.236   5.825  0.1282  0.3343  0.2297
   28CHL1  H11A 2033   3.965  -0.234   5.862 -0.3601 -0.7918 -0.9984
   28CHL1  H11B 2034   4.116  -0.319   5.882 -0.3540  0.0741  0.2487
   28CHL1    C9 2035   4.129  -0.096   5.847  0.2205  0.2255 -0.0280
   28CHL1    H9 2036   4.231  -0.105   5.805 -0.1030 -0.6549 -0.6549
   28CHL1   C10 2037   4.136  -0.046   5.990  0.2189 -0.2485 -0.7362
   28CHL1   C19 2038   3.987  -0.036   6.040  0.2556 -0.4258 -0.2698
   28CHL1  H19A 2039   3.978   0.009   6.141 -1.2689  0.2714 -0.6939
   28CHL1  H19B 2040   3.928   0.036   5.979 -0.8330 -0.7343  0.3926
   28CHL1  H19C 2041   3.947  -0.140   6.039 -1.3610  0.1655 -1.8872
   28CHL1    C1 2042   4.217  -0.145   6.079  0.6108  0.5536  0.1065
   28CHL1   H1A 2043   4.163  -0.241   6.094 -0.9717  1.1995 -1.1236
   28CHL1   H1B 2044   4.305  -0.174   6.017 -0.1463 -1.7219  0.0266
   28CHL1    C2 2045   4.263  -0.085   6.213  0.1423 -0.3899 -0.2601
   28CHL1   H2A 2046   4.333  -0.153   6.266  2.3892  1.2269 -0.9702
   28CHL1   H2B 2047   4.176  -0.069   6.280  1.2386  1.6445  0.7964
   28CHL1   C20 2048   3.863  -0.266   5.372  0.7376 -0.8625 -0.1473
   28CHL1   H20 2049   3.767  -0.217   5.395 -0.5721 -2.8162 -1.1375
   28CHL1   C21 2050   3.854  -0.414   5.424  0.1732  0.2831 -0.0560
   28CHL1  H21A 2051   3.948  -0.473   5.414 -0.1967 -0.1732 -0.9284
   28CHL1  H21B 2052   3.774  -0.462   5.364  0.4495  0.3476 -0.4814
   28CHL1  H21C 2053   3.824  -0.418   5.531  1.4695 -0.0205  0.3088
   28CHL1   C22 2054   3.874  -0.270   5.220  0.3594  0.4150 -0.3315
   28CHL1  H22A 2055   3.901  -0.169   5.184  1.6708 -0.2442 -1.2571
   28CHL1  H22B 2056   3.958  -0.334   5.187  1.4771  1.2512  0.8143
   28CHL1   C23 2057   3.751  -0.315   5.152  0.2401  0.2189  0.1411
   28CHL1  H23A 2058   3.725  -0.423   5.155  3.5058 -0.6581  1.3346
   28CHL1  H23B 2059   3.669  -0.261   5.205 -0.6254  1.9613 -2.7445
   28CHL1   C24 2060   3.754  -0.262   4.999  1.0725 -0.3276 -0.1755
   28CHL1  H24A 2061   3.653  -0.272   4.954 -0.8794 -0.8623  3.8254
   28CHL1  H24B 2062   3.774  -0.153   5.004  2.8142 -0.6264  0.1712
   28CHL1   C25 2063   3.862  -0.323   4.909  1.0001 -0.3953 -0.4500
   28CHL1   H25 2064   3.957  -0.317   4.967  0.5702  0.7768  0.1678
   28CHL1   C26 2065   3.832  -0.475   4.888 -0.0346 -0.4342 -0.6836
   28CHL1  H26A 2066   3.898  -0.518   4.809  1.7511 -1.6286  1.3552
   28CHL1  H26B 2067   3.856  -0.521   4.986  0.9665 -0.6405 -1.0123
   28CHL1  H26C 2068   3.723  -0.490   4.869  0.1422 -1.7773 -0.7006
   28CHL1   C27 2069   3.886  -0.242   4.774  0.0712 -0.1632  0.0156
   28CHL1  H27A 2070   3.985  -0.265   4.728  0.9325  2.7846  0.2112
   28CHL1  H27B 2071   3.807  -0.270   4.701 -0.1025  0.3137  0.0171
   28CHL1  H27C 2072   3.876  -0.132   4.775  1.0042 -0.0581  1.5641
   29CHL1    C3 2073   0.437   2.700   2.351 -0.2550  0.4493 -1.4249
   29CHL1    H3 2074   0.507   2.618   2.322  1.6227  0.7831  1.7126
   29CHL1    O3 2075   0.385   2.767   2.237 -0.4590  0.3748  0.7509
   29CHL1   H3' 2076   0.454   2.779   2.171 -0.4515  1.1549  0.8909
   29CHL1    C4 2077   0.326   2.653   2.451 -0.3418 -0.0372  0.1983
   29CHL1   H4A 2078   0.249   2.732   2.468 -1.7644 -1.3881  0.3197
   29CHL1   H4B 2079   0.279   2.565   2.403  1.6169 -0.0513 -1.8216
   29CHL1    C5 2080   0.377   2.601   2.584 -0.3276  0.4101  0.5680
   29CHL1    C6 2081   0.345   2.489   2.645 -0.4581 -0.2833  0.3929
   29CHL1    H6 2082   0.265   2.427   2.602 -0.7996  0.1740  0.3690
   29CHL1    C7 2083   0.389   2.452   2.782  0.3468 -0.1151  0.2262
   29CHL1   H7A 2084   0.293   2.423   2.831 -0.6752 -0.2419 -1.7704
   29CHL1   H7B 2085   0.460   2.367   2.775  0.5892  0.1389 -0.4498
   29CHL1    C8 2086   0.456   2.564   2.864  0.2288  0.1009  0.4172
   29CHL1    H8 2087   0.372   2.629   2.899  1.7173  1.0545  2.4337
   29CHL1   C14 2088   0.527   2.526   2.985  0.2948  0.2725  0.1736
   29CHL1   H14 2089   0.603   2.454   2.946 -0.3226  0.5443 -1.6497
   29CHL1   C15 2090   0.442   2.444   3.082 -0.4889 -0.7825 -0.8612
   29CHL1  H15A 2091   0.345   2.499   3.079  1.8336  3.7499 -0.6150
   29CHL1  H15B 2092   0.435   2.336   3.055  1.5742 -1.5561  1.3929
   29CHL1   C16 2093   0.533   2.456   3.208  0.0888  0.3808 -0.0330
   29CHL1  H16A 2094   0.467   2.498   3.287 -1.1316 -0.6469 -0.4798
   29CHL1  H16B 2095   0.580   2.361   3.238  0.0900  0.3298 -0.1983
   29CHL1   C17 2096   0.642   2.563   3.191  0.4513  0.2797 -0.1343
   29CHL1   H17 2097   0.738   2.513   3.165 -0.3366 -0.1611 -2.4582
   29CHL1   C13 2098   0.595   2.636   3.065  0.7206  0.9438 -0.2030
   29CHL1   C18 2099   0.487   2.744   3.099 -0.0516 -0.2198 -0.3281
   29CHL1  H18A 2100   0.444   2.783   3.004  1.6730 -0.5341 -1.2973
   29CHL1  H18B 2101   0.402   2.702   3.155 -0.5034  1.5482  0.3896
   29CHL1  H18C 2102   0.537   2.827   3.153 -1.0995  1.1210 -1.3421
   29CHL1   C12 2103   0.699   2.696   2.970  0.6780 -0.5333 -1.0400
   29CHL1  H12A 2104   0.765   2.774   3.013 -0.9903  0.1362  0.3861
   29CHL1  H12B 2105   0.771   2.614   2.947 -0.7113 -2.1901  0.3069
   29CHL1   C11 2106   0.638   2.746   2.844  0.2788 -0.0605  0.0737
   29CHL1  H11A 2107   0.592   2.844   2.871  1.7954  0.4869  0.8279
   29CHL1  H11B 2108   0.721   2.766   2.773 -1.2766  3.0719 -1.0604
   29CHL1    C9 2109   0.546   2.641   2.773  0.6508  0.1972 -1.0303
   29CHL1    H9 2110   0.625   2.572   2.736  0.0339 -0.4499 -1.1687
   29CHL1   C10 2111   0.477   2.699   2.650  0.6221 -0.3390  0.2090
   29CHL1   C19 2112   0.384   2.810   2.691  0.0529  0.0021  0.5875
   29CHL1  H19A 2113   0.324   2.857   2.611  0.9352 -0.0383 -0.1226
   29CHL1  H19B 2114   0.309   2.778   2.767  2.4726 -1.0103  2.7296
   29CHL1  H19C 2115   0.444   2.892   2.736  0.3624 -0.2497  0.6444
   29CHL1    C1 2116   0.585   2.752   2.553 -0.1554 -0.0372 -0.4903
   29CHL1   H1A 2117   0.650   2.837   2.585 -0.1801 -0.0528 -0.3976
   29CHL1   H1B 2118   0.647   2.662   2.535  0.0558  0.2459 -1.2016
   29CHL1    C2 2119   0.532   2.804   2.423  0.0967 -0.1687  0.9288
   29CHL1   H2A 2120   0.613   2.826   2.351  0.4865 -3.1782  0.2945
   29CHL1   H2B 2121   0.464   2.889   2.443  0.6509  0.5128 -0.0300
   29CHL1   C20 2122   0.667   2.658   3.318  0.3538 -0.4747 -0.9266
   29CHL1   H20 2123   0.580   2.717   3.352  1.1372 -0.7967  1.8827
   29CHL1   C21 2124   0.780   2.762   3.291  0.5293  0.7352  0.9264
   29CHL1  H21A 2125   0.870   2.772   3.356 -0.4287  0.7176  2.2828
   29CHL1  H21B 2126   0.738   2.863   3.269 -0.3898  0.3590  0.9268
   29CHL1  H21C 2127   0.833   2.739   3.196  0.8479  1.2725  0.9660
   29CHL1   C22 2128   0.713   2.562   3.430  0.4057 -1.0577  0.9996
   29CHL1  H22A 2129   0.634   2.485   3.444  1.0610 -2.0651 -0.6002
   29CHL1  H22B 2130   0.811   2.525   3.395  0.5399 -0.1985  0.4583
   29CHL1   C23 2131   0.731   2.636   3.558 -0.0459  0.2834  0.9119
   29CHL1  H23A 2132   0.818   2.705   3.551  1.3220 -1.5449 -3.6118
   29CHL1  H23B 2133   0.642   2.701   3.578 -0.8507 -0.6056  0.3080
   29CHL1   C24 2134   0.755   2.550   3.686  0.0559  0.0783  0.3694
   29CHL1  H24A 2135   0.668   2.484   3.705  0.0235 -0.2714 -0.8943
   29CHL1  H24B 2136   0.830   2.470   3.663 -1.7514 -1.1992 -1.4556
   29CHL1   C25 2137   0.804   2.635   3.805  0.0131  0.8905  0.6682
   29CHL1   H25 2138   0.883   2.704   3.769  1.1784 -0.9961 -0.5791
   29CHL1   C26 2139   0.694   2.717   3.871  0.6058 -0.7206  1.2265
   29CHL1  H26A 2140   0.606   2.657   3.901 -0.8974  0.0754 -1.2730
   29CHL1  H26B 2141   0.743   2.761   3.960  0.1132  0.6059  0.8641
   29CHL1  H26C 2142   0.679   2.805   3.804 -0.9314 -1.9959 -0.1974
   29CHL1   C27 2143   0.875   2.553   3.910 -0.4638 -0.0533  0.0459
   29CHL1  H27A 2144   0.813   2.468   3.944 -1.1573 -0.5500 -2.2545
   29CHL1  H27B 2145   0.962   2.510   3.856 -1.4145 -1.6007 -0.3079
   29CHL1  H27C 2146   0.926   2.613   3.988 -0.4884  0.8520 -0.6128
   30CHL1    C3 2147   1.037   5.158   2.809 -0.3216  0.1376  0.0008
   30CHL1    H3 2148   0.968   5.071   2.813  0.4830 -0.5355 -0.6154
   30CHL1    O3 2149   1.013   5.234   2.688 -0.1527  0.3590  0.6748
   30CHL1   H3' 2150   1.074   5.308   2.696 -1.3670  1.6190 -1.1319
   30CHL1    C4 2151   1.017   5.259   2.925 -0.1700 -0.4405 -0.1587
   30CHL1   H4A 2152   1.086   5.345   2.911  1.0309 -1.4295 -0.4696
   30CHL1   H4B 2153   0.911   5.291   2.919 -0.3812 -1.3835 -2.2980
   30CHL1    C5 2154   1.032   5.194   3.060 -0.2039 -0.2063 -0.5889
   30CHL1    C6 2155   0.939   5.190   3.161 -0.0051 -0.9630 -0.2833
   30CHL1    H6 2156   0.845   5.237   3.130  0.2759  0.5629  1.0543
   30CHL1    C7 2157   0.944   5.109   3.283  0.2177  0.1599 -0.0527
   30CHL1   H7A 2158   0.895   5.158   3.370  2.7468  3.2762 -0.1705
   30CHL1   H7B 2159   0.902   5.010   3.255 -0.0709  0.4528 -0.6822
   30CHL1    C8 2160   1.093   5.075   3.320 -0.5529 -0.2571  0.5793
   30CHL1    H8 2161   1.138   5.163   3.371 -1.2849 -0.1969  1.1375
   30CHL1   C14 2162   1.093   4.968   3.430 -0.6750  0.9739 -0.0943
   30CHL1   H14 2163   1.055   4.871   3.393 -0.8971  0.4540  1.4258
   30CHL1   C15 2164   1.010   4.994   3.559  0.0502 -0.7117 -0.2690
   30CHL1  H15A 2165   1.028   5.101   3.582 -1.4150 -0.4099 -0.4590
   30CHL1  H15B 2166   0.902   4.972   3.552 -0.0323 -1.0292  1.5286
   30CHL1   C16 2167   1.078   4.907   3.656  0.0680  0.0026 -0.3355
   30CHL1  H16A 2168   1.108   4.966   3.745 -2.8179  1.4061 -0.1918
   30CHL1  H16B 2169   1.003   4.830   3.684 -1.8725  2.2292  1.0386
   30CHL1   C17 2170   1.210   4.844   3.598  0.2726 -0.2228  0.1593
   30CHL1   H17 2171   1.176   4.743   3.565 -0.8923 -0.8498  2.9811
   30CHL1   C13 2172   1.236   4.938   3.476  0.3526 -0.2528  0.8472
   30CHL1   C18 2173   1.293   5.068   3.535  0.3016 -0.5284 -0.3225
   30CHL1  H18A 2174   1.311   5.148   3.460 -0.0351 -0.6703 -0.5537
   30CHL1  H18B 2175   1.241   5.110   3.624  1.6273 -0.1313  0.3023
   30CHL1  H18C 2176   1.392   5.054   3.583 -1.0459  1.3080  3.3915
   30CHL1   C12 2177   1.325   4.894   3.361 -0.4722 -0.0237  0.6490
   30CHL1  H12A 2178   1.431   4.885   3.392 -0.2726  1.7108  0.5855
   30CHL1  H12B 2179   1.286   4.797   3.323 -0.7363  0.6805 -0.9786
   30CHL1   C11 2180   1.325   5.003   3.250  0.0167  0.2647 -0.1067
   30CHL1  H11A 2181   1.366   5.095   3.297  0.3123 -0.1833  0.5340
   30CHL1  H11B 2182   1.385   4.977   3.161 -0.3058  0.7079 -0.4572
   30CHL1    C9 2183   1.175   5.034   3.197 -1.0918 -0.0841 -0.4931
   30CHL1    H9 2184   1.127   4.939   3.167 -1.8981 -0.6348  2.2049
   30CHL1   C10 2185   1.175   5.125   3.073  0.2547  0.5117 -0.4522
   30CHL1   C19 2186   1.280   5.238   3.092  0.3897 -0.0091  0.0482
   30CHL1  H19A 2187   1.383   5.199   3.075  0.2600 -0.9638  1.2893
   30CHL1  H19B 2188   1.269   5.329   3.029  2.0726  0.0353 -0.2340
   30CHL1  H19C 2189   1.286   5.272   3.198  0.5112  0.3375 -0.0677
   30CHL1    C1 2190   1.212   5.038   2.943 -0.2945 -0.3796 -0.5460
   30CHL1   H1A 2191   1.313   4.992   2.949 -0.8536 -1.4631  1.0256
   30CHL1   H1B 2192   1.146   4.949   2.939  1.8751 -2.2353  1.7797
   30CHL1    C2 2193   1.181   5.103   2.805  0.0835 -0.0184 -0.5881
   30CHL1   H2A 2194   1.211   5.046   2.715  1.6770  0.0189 -0.1219
   30CHL1   H2B 2195   1.242   5.195   2.796  0.6512 -0.5115 -2.0467
   30CHL1   C20 2196   1.325   4.816   3.701 -0.0315  0.2404 -0.1661
   30CHL1   H20 2197   1.366   4.912   3.740  1.3151  0.2684 -1.5321
   30CHL1   C21 2198   1.446   4.748   3.646  0.1577  0.2900 -0.3113
   30CHL1  H21A 2199   1.533   4.737   3.714 -0.0035 -0.4678 -0.2104
   30CHL1  H21B 2200   1.481   4.810   3.560 -2.3858 -0.4731 -2.0109
   30CHL1  H21C 2201   1.419   4.643   3.619 -0.6454  0.2962  0.4388
   30CHL1   C22 2202   1.272   4.748   3.836  0.2737  0.6580  0.6102
   30CHL1  H22A 2203   1.181   4.802   3.869  0.7287  0.3389  2.5323
   30CHL1  H22B 2204   1.250   4.643   3.808 -1.3215  1.3705 -0.9622
   30CHL1   C23 2205   1.370   4.750   3.958 -0.0836  0.3622 -0.2034
   30CHL1  H23A 2206   1.448   4.674   3.935  1.4257  2.0000 -0.6544
   30CHL1  H23B 2207   1.416   4.851   3.964  0.2089  0.2243 -0.1184
   30CHL1   C24 2208   1.313   4.734   4.093  0.2484 -0.0800  0.1516
   30CHL1  H24A 2209   1.255   4.828   4.110 -2.7593 -1.7760 -0.0211
   30CHL1  H24B 2210   1.248   4.644   4.096 -0.4306  0.1619 -3.3597
   30CHL1   C25 2211   1.420   4.709   4.209  0.8852 -0.2972 -0.2580
   30CHL1   H25 2212   1.491   4.633   4.169  0.2671  0.0421 -2.0839
   30CHL1   C26 2213   1.509   4.838   4.231 -0.2386 -0.5682  0.2035
   30CHL1  H26A 2214   1.564   4.872   4.141 -0.7098 -0.8382 -0.1918
   30CHL1  H26B 2215   1.444   4.917   4.273 -0.0516  0.4079 -1.2817
   30CHL1  H26C 2216   1.575   4.830   4.320  1.7272  0.2826 -1.0973
   30CHL1   C27 2217   1.346   4.654   4.339 -0.6009 -0.1206 -0.0806
   30CHL1  H27A 2218   1.417   4.644   4.424 -0.3947  2.4534  0.1116
   30CHL1  H27B 2219   1.284   4.733   4.387  1.5606  1.2756  0.5531
   30CHL1  H27C 2220   1.288   4.559   4.336  0.8845 -1.1550  1.5633
   31CHL1    C3 2221   0.589   6.305   2.845  0.5922 -0.4469 -0.0285
   31CHL1    H3 2222   0.505   6.361   2.891 -0.2571 -1.5475 -0.2189
   31CHL1    O3 2223   0.610   6.341   2.711 -0.1802 -0.0684  0.0788
   31CHL1   H3' 2224   0.701   6.315   2.695 -0.1265 -0.3520  0.8152
   31CHL1    C4 2225   0.721   6.334   2.913  0.5475  0.5307  0.3786
   31CHL1   H4A 2226   0.809   6.280   2.871 -0.1144 -0.9694  0.8501
   31CHL1   H4B 2227   0.736   6.444   2.908  0.3438  0.5878  0.9153
   31CHL1    C5 2228   0.705   6.288   3.055  0.0072 -0.2335 -0.1077
   31CHL1    C6 2229   0.711   6.376   3.149 -0.4485 -0.0898  0.0411
   31CHL1    H6 2230   0.739   6.477   3.118 -0.2459 -0.3164 -0.5303
   31CHL1    C7 2231   0.712   6.343   3.297  0.1904 -0.2545  0.3523
   31CHL1   H7A 2232   0.790   6.408   3.343 -1.4865  3.1311 -1.2542
   31CHL1   H7B 2233   0.613   6.377   3.333  0.9550  2.1906  0.3128
   31CHL1    C8 2234   0.730   6.193   3.322  0.6964 -0.6373 -0.0665
   31CHL1    H8 2235   0.834   6.160   3.300  1.2125  0.8737 -0.0026
   31CHL1   C14 2236   0.697   6.154   3.464  0.1006 -0.2098 -0.3017
   31CHL1   H14 2237   0.591   6.184   3.478 -0.3830 -0.2111 -3.2846
   31CHL1   C15 2238   0.776   6.239   3.572  0.5310  0.3945 -0.0560
   31CHL1  H15A 2239   0.883   6.243   3.541  1.4411 -3.2760  1.9594
   31CHL1  H15B 2240   0.729   6.340   3.573 -1.2492 -0.3657 -1.2226
   31CHL1   C16 2241   0.760   6.145   3.697 -0.0222 -0.3678 -0.2896
   31CHL1  H16A 2242   0.861   6.132   3.742 -1.0947 -1.2631  2.0142
   31CHL1  H16B 2243   0.711   6.191   3.785 -0.4114  1.2990 -1.3398
   31CHL1   C17 2244   0.687   6.014   3.659  0.5365  0.6339 -0.2530
   31CHL1   H17 2245   0.579   6.035   3.676  0.5967  1.4509 -0.8238
   31CHL1   C13 2246   0.717   6.005   3.508 -0.0798  0.1263  0.2887
   31CHL1   C18 2247   0.862   5.966   3.495 -0.2397 -0.2497  0.1304
   31CHL1  H18A 2248   0.875   5.859   3.520 -0.1445 -0.2047  0.2728
   31CHL1  H18B 2249   0.892   5.964   3.388  1.0038  0.1548  0.4512
   31CHL1  H18C 2250   0.940   6.025   3.547 -0.1162 -1.0862  0.9316
   31CHL1   C12 2251   0.617   5.930   3.418 -0.5669 -0.2943 -0.4768
   31CHL1  H12A 2252   0.617   5.823   3.447  1.6903  0.0725  1.1110
   31CHL1  H12B 2253   0.518   5.969   3.448 -0.6958 -2.1611  1.7894
   31CHL1   C11 2254   0.634   5.951   3.269 -0.6903  0.7184  0.5345
   31CHL1  H11A 2255   0.732   5.903   3.250 -0.7353  0.4715  0.9043
   31CHL1  H11B 2256   0.557   5.895   3.213  0.4116 -0.0010 -0.2896
   31CHL1    C9 2257   0.643   6.104   3.230 -0.7906  0.1293  0.3865
   31CHL1    H9 2258   0.542   6.150   3.229 -0.9552 -0.0363 -3.0923
   31CHL1   C10 2259   0.677   6.138   3.085  0.3360 -0.0705  0.3325
   31CHL1   C19 2260   0.801   6.055   3.046  0.4084 -0.2298 -0.2568
   31CHL1  H19A 2261   0.885   6.074   3.117  0.7668  2.3182 -1.2512
   31CHL1  H19B 2262   0.779   5.947   3.029  0.1108 -0.1793 -0.2057
   31CHL1  H19C 2263   0.836   6.077   2.943  1.5915 -0.0158  0.1751
   31CHL1    C1 2264   0.557   6.108   2.998 -0.2631 -0.4648  0.2251
   31CHL1   H1A 2265   0.544   5.998   3.004 -1.3453 -0.2714  2.3978
   31CHL1   H1B 2266   0.462   6.146   3.042 -0.6027 -0.7597 -0.2381
   31CHL1    C2 2267   0.566   6.150   2.857 -0.0162 -0.1512 -0.0143
   31CHL1   H2A 2268   0.482   6.111   2.794  0.1243  1.1997 -1.0885
   31CHL1   H2B 2269   0.653   6.104   2.806  0.4050 -0.1545  0.6984
   31CHL1   C20 2270   0.723   5.900   3.760  0.6606 -0.2391  0.3375
   31CHL1   H20 2271   0.833   5.884   3.771  0.1719 -3.0319  2.4796
   31CHL1   C21 2272   0.672   5.764   3.696  0.6451 -0.4633 -0.6007
   31CHL1  H21A 2273   0.570   5.777   3.654  1.3865  0.0892 -2.3198
   31CHL1  H21B 2274   0.667   5.688   3.776 -1.6776 -0.3046 -0.5285
   31CHL1  H21C 2275   0.738   5.729   3.614  0.9269 -1.7353  0.1433
   31CHL1   C22 2276   0.657   5.926   3.899  0.7498  0.2453  0.2263
   31CHL1  H22A 2277   0.670   6.031   3.932 -2.4539  0.8964 -0.2072
   31CHL1  H22B 2278   0.549   5.901   3.882  1.2863 -1.4149 -1.0884
   31CHL1   C23 2279   0.696   5.844   4.017 -0.3531 -0.4557 -0.3732
   31CHL1  H23A 2280   0.673   5.739   3.991  1.2924 -0.8120 -0.4551
   31CHL1  H23B 2281   0.805   5.852   4.034 -0.4280 -3.9774  3.0286
   31CHL1   C24 2282   0.630   5.870   4.148  0.7363  1.4765 -0.5273
   31CHL1  H24A 2283   0.680   5.959   4.191 -0.2195  2.0289 -0.5388
   31CHL1  H24B 2284   0.524   5.897   4.129  0.3980  0.3837 -0.2536
   31CHL1   C25 2285   0.629   5.750   4.245  0.1215  0.2038 -0.0220
   31CHL1   H25 2286   0.596   5.661   4.187 -3.2429  1.1339  0.2253
   31CHL1   C26 2287   0.768   5.733   4.303  0.3825 -0.5107  0.4698
   31CHL1  H26A 2288   0.813   5.813   4.366  0.9902 -0.6982  0.2775
   31CHL1  H26B 2289   0.776   5.644   4.370 -0.8001 -0.8433  0.1968
   31CHL1  H26C 2290   0.843   5.716   4.224  1.3644 -1.3058  1.5336
   31CHL1   C27 2291   0.525   5.755   4.351  0.5074 -0.4792 -0.1666
   31CHL1  H27A 2292   0.422   5.768   4.312  0.1367 -1.0698  0.5739
   31CHL1  H27B 2293   0.530   5.652   4.394  2.4141 -0.7222 -0.8708
   31CHL1  H27C 2294   0.558   5.830   4.426  0.6140  1.5212 -2.1041
   32CHL1    C3 2295   1.271   3.896   2.727  0.6098  1.1175  0.6674
   32CHL1    H3 2296   1.205   3.955   2.795 -0.2970 -0.0959  0.8717
   32CHL1    O3 2297   1.254   3.929   2.591 -0.1725 -0.4873  0.1477
   32CHL1   H3' 2298   1.342   3.924   2.552 -0.7116  2.1579 -1.7162
   32CHL1    C4 2299   1.425   3.907   2.762  0.4089 -0.5122 -0.3829
   32CHL1   H4A 2300   1.474   3.827   2.702 -1.5146 -0.4415 -2.1340
   32CHL1   H4B 2301   1.465   4.006   2.734  0.4666  0.5309  2.9623
   32CHL1    C5 2302   1.428   3.877   2.911 -0.3499  0.2051  0.3579
   32CHL1    C6 2303   1.474   3.969   3.005 -0.0797 -0.0263 -0.3220
   32CHL1    H6 2304   1.502   4.071   2.976  0.5743  0.8214  2.9150
   32CHL1    C7 2305   1.476   3.943   3.151 -0.2696 -0.1651 -0.7974
   32CHL1   H7A 2306   1.572   3.976   3.197 -1.8290  0.1323  2.5665
   32CHL1   H7B 2307   1.386   3.988   3.199 -0.4485 -0.5033 -0.8074
   32CHL1    C8 2308   1.475   3.788   3.179 -0.5152  0.0634 -0.5659
   32CHL1    H8 2309   1.568   3.736   3.150  1.4379  0.0571  4.6879
   32CHL1   C14 2310   1.442   3.768   3.330 -0.0690 -0.0893  0.8786
   32CHL1   H14 2311   1.338   3.801   3.349 -0.2809 -0.9732  1.2800
   32CHL1   C15 2312   1.534   3.838   3.434  0.2972 -0.4359  0.0146
   32CHL1  H15A 2313   1.637   3.826   3.396  0.9352  2.0127  0.7583
   32CHL1  H15B 2314   1.515   3.947   3.442  1.0275 -0.3393  0.5040
   32CHL1   C16 2315   1.513   3.757   3.564  0.2231  0.4191  0.6000
   32CHL1  H16A 2316   1.615   3.721   3.590  0.5977 -0.6059 -1.9790
   32CHL1  H16B 2317   1.481   3.828   3.643  0.8972  1.2646  0.1420
   32CHL1   C17 2318   1.416   3.645   3.530  0.2457  0.4706  0.2787
   32CHL1   H17 2319   1.315   3.687   3.544  1.3672  3.0847  1.0940
   32CHL1   C13 2320   1.427   3.619   3.379 -0.8318  0.7535  0.4932
   32CHL1   C18 2321   1.551   3.535   3.347  0.2713 -0.4768 -0.2000
   32CHL1  H18A 2322   1.595   3.553   3.247  0.6117  2.2599  0.3395
   32CHL1  H18B 2323   1.628   3.565   3.422 -0.0194  0.4029 -0.2336
   32CHL1  H18C 2324   1.533   3.428   3.369  4.8483 -1.2588  0.6768
   32CHL1   C12 2325   1.311   3.564   3.310  0.7863 -0.0429  0.0400
   32CHL1  H12A 2326   1.302   3.456   3.334  0.5285  0.4726  2.6085
   32CHL1  H12B 2327   1.211   3.605   3.336  0.2586  0.2056 -2.2059
   32CHL1   C11 2328   1.317   3.585   3.153  0.1427 -1.5873 -0.1944
   32CHL1  H11A 2329   1.399   3.514   3.128  0.9224 -0.5626 -0.6563
   32CHL1  H11B 2330   1.226   3.543   3.106 -0.9209  1.0102 -0.6410
   32CHL1    C9 2331   1.356   3.728   3.113 -0.0703  0.1470  0.0332
   32CHL1    H9 2332   1.266   3.789   3.135 -1.6393 -1.2390 -2.1170
   32CHL1   C10 2333   1.373   3.742   2.958 -0.5379  0.3840  0.4278
   32CHL1   C19 2334   1.475   3.632   2.916 -0.2995 -0.7026 -0.1806
   32CHL1  H19A 2335   1.430   3.532   2.929  0.0394 -1.2540 -2.6477
   32CHL1  H19B 2336   1.496   3.641   2.807  2.8112  0.6961  0.4254
   32CHL1  H19C 2337   1.571   3.635   2.971 -0.1445 -0.7425 -0.4483
   32CHL1    C1 2338   1.236   3.708   2.894 -0.1822 -0.6941 -0.0474
   32CHL1   H1A 2339   1.205   3.601   2.901 -1.7707 -0.2636 -0.1994
   32CHL1   H1B 2340   1.157   3.762   2.949  0.6645  0.6786 -0.1450
   32CHL1    C2 2341   1.223   3.750   2.743  0.0244 -0.1573  0.3376
   32CHL1   H2A 2342   1.120   3.745   2.702 -0.4201 -0.8547  1.4821
   32CHL1   H2B 2343   1.275   3.685   2.669 -0.9857 -0.4484 -0.1217
   32CHL1   C20 2344   1.437   3.528   3.630  0.6260 -0.1648 -0.0694
   32CHL1   H20 2345   1.499   3.444   3.591 -2.1512 -2.6512  0.5186
   32CHL1   C21 2346   1.297   3.463   3.646 -0.0555 -0.1860 -0.0900
   32CHL1  H21A 2347   1.295   3.365   3.699 -2.5344 -0.7185 -1.0516
   32CHL1  H21B 2348   1.259   3.437   3.545  2.3594 -0.4155 -1.0028
   32CHL1  H21C 2349   1.231   3.538   3.693 -0.2484  0.5281 -1.4512
   32CHL1   C22 2350   1.494   3.563   3.770 -0.7359 -0.7019 -0.6201
   32CHL1  H22A 2351   1.603   3.575   3.755 -1.0749  0.3975 -2.5527
   32CHL1  H22B 2352   1.435   3.650   3.804 -3.1190 -2.3199 -0.3355
   32CHL1   C23 2353   1.483   3.461   3.877 -0.2475  0.5432  0.1525
   32CHL1  H23A 2354   1.376   3.442   3.901 -0.3488 -0.1722 -0.8300
   32CHL1  H23B 2355   1.516   3.363   3.835  0.9886  0.4588  1.2426
   32CHL1   C24 2356   1.559   3.487   4.004  0.7152 -0.6612  0.3328
   32CHL1  H24A 2357   1.667   3.487   3.979  0.6318  0.5413 -0.0570
   32CHL1  H24B 2358   1.524   3.585   4.041  0.7432 -0.3618 -0.4319
   32CHL1   C25 2359   1.525   3.386   4.112 -0.0785  0.4946 -0.3302
   32CHL1   H25 2360   1.418   3.377   4.142  0.0931 -1.4548 -0.1459
   32CHL1   C26 2361   1.554   3.237   4.069 -0.1896  0.1839  0.0875
   32CHL1  H26A 2362   1.655   3.225   4.025 -0.6713  0.8349 -1.2563
   32CHL1  H26B 2363   1.547   3.163   4.152 -0.4160 -2.7858 -2.4046
   32CHL1  H26C 2364   1.480   3.191   4.000  0.2051 -1.4778  0.7276
   32CHL1   C27 2365   1.612   3.414   4.241 -0.4762 -0.2554  0.1625
   32CHL1  H27A 2366   1.714   3.430   4.199 -0.6724 -2.2256 -1.2039
   32CHL1  H27B 2367   1.560   3.498   4.292  1.2097  2.1018 -1.7279
   32CHL1  H27C 2368   1.611   3.325   4.307 -2.7704 -0.7228 -0.4241
   33CHL1    C3 2369   6.245   2.574   2.727 -0.4721  0.6115 -0.4829
   33CHL1    H3 2370   6.350   2.604   2.706 -0.2082 -0.3334 -0.6018
   33CHL1    O3 2371   6.175   2.618   2.615  0.2548 -0.5549 -0.1288
   33CHL1   H3' 2372   6.230   2.593   2.541  0.4293  0.6785 -0.4468
   33CHL1    C4 2373   6.238   2.426   2.752  0.3426  0.4533  0.9896
   33CHL1   H4A 2374   6.134   2.387   2.750  0.5953 -0.1999 -0.0014
   33CHL1   H4B 2375   6.294   2.382   2.667  2.7438  3.0073  1.0796
   33CHL1    C5 2376   6.306   2.384   2.881 -0.3362 -0.0176 -0.1592
   33CHL1    C6 2377   6.424   2.308   2.886  0.2001  0.7015 -0.0611
   33CHL1    H6 2378   6.468   2.267   2.794  0.1746  0.4049  0.0585
   33CHL1    C7 2379   6.501   2.277   3.007  0.7754  0.2402  1.1366
   33CHL1   H7A 2380   6.524   2.169   3.018  0.6130  0.0868  0.0785
   33CHL1   H7B 2381   6.596   2.333   2.990  0.8982  0.0173  1.0962
   33CHL1    C8 2382   6.426   2.307   3.140  0.5416 -0.1033  0.4829
   33CHL1    H8 2383   6.349   2.230   3.159  0.8509 -0.8605 -1.1064
   33CHL1   C14 2384   6.533   2.303   3.248 -0.4532 -0.8240  1.0395
   33CHL1   H14 2385   6.595   2.393   3.229 -0.8110 -1.0753 -1.6686
   33CHL1   C15 2386   6.629   2.181   3.271  1.1146 -0.0249  0.3647
   33CHL1  H15A 2387   6.562   2.092   3.274 -1.0940  1.5842  1.7518
   33CHL1  H15B 2388   6.705   2.164   3.192  0.9148 -0.1421  0.1953
   33CHL1   C16 2389   6.682   2.206   3.407 -0.1528 -0.1717 -0.7794
   33CHL1  H16A 2390   6.660   2.121   3.476 -2.1852  0.9427  0.0253
   33CHL1  H16B 2391   6.790   2.233   3.401  0.0739 -0.5950  0.8969
   33CHL1   C17 2392   6.599   2.327   3.473 -1.0684 -0.3786 -0.4622
   33CHL1   H17 2393   6.655   2.422   3.456 -1.2248 -0.0182  0.9072
   33CHL1   C13 2394   6.471   2.333   3.393 -0.3708  0.2227  0.0387
   33CHL1   C18 2395   6.366   2.227   3.434  0.4650  0.4486  0.2767
   33CHL1  H18A 2396   6.413   2.126   3.437 -1.9692 -0.7920 -0.2167
   33CHL1  H18B 2397   6.337   2.247   3.539  1.0809 -0.6609  0.6772
   33CHL1  H18C 2398   6.272   2.229   3.374 -1.0234 -0.3113  2.4412
   33CHL1   C12 2399   6.394   2.466   3.385  0.0023 -0.2680 -0.0759
   33CHL1  H12A 2400   6.343   2.480   3.483 -0.8987 -3.5596  0.0683
   33CHL1  H12B 2401   6.459   2.555   3.378 -1.7362  1.0945  0.4258
   33CHL1   C11 2402   6.289   2.481   3.270  0.2359 -0.0056  0.0373
   33CHL1  H11A 2403   6.208   2.408   3.292 -1.0320  1.1740 -0.5365
   33CHL1  H11B 2404   6.240   2.580   3.262 -0.1779 -0.3352 -2.4736
   33CHL1    C9 2405   6.349   2.439   3.131 -0.4504  0.1187  0.0185
   33CHL1    H9 2406   6.420   2.521   3.104 -0.3834 -0.1934 -0.7583
   33CHL1   C10 2407   6.259   2.454   3.008  0.1109 -0.1182 -0.3080
   33CHL1   C19 2408   6.121   2.394   3.039  0.4593 -0.1909  0.6199
   33CHL1  H19A 2409   6.057   2.418   2.951  0.7331  3.0542  1.1923
   33CHL1  H19B 2410   6.120   2.286   3.066  0.9036 -0.9501 -2.0933
   33CHL1  H19C 2411   6.080   2.446   3.128  2.3457  0.0669  1.3902
   33CHL1    C1 2412   6.242   2.607   2.974  0.5712  0.0630  0.6639
   33CHL1   H1A 2413   6.170   2.656   3.043  1.8766  4.2252 -0.6634
   33CHL1   H1B 2414   6.337   2.660   2.994 -0.2722  1.2313  1.7181
   33CHL1    C2 2415   6.187   2.656   2.838  0.0212  0.3560 -0.4128
   33CHL1   H2A 2416   6.212   2.761   2.810 -0.9092  0.1398 -2.2103
   33CHL1   H2B 2417   6.077   2.656   2.855  0.1053  0.5846  0.1478
   33CHL1   C20 2418   6.588   2.325   3.626 -0.3346  0.1761  0.0992
   33CHL1   H20 2419   6.501   2.263   3.658  0.1187  0.3082  1.6279
   33CHL1   C21 2420   6.564   2.464   3.679  0.3335  0.1274 -0.4529
   33CHL1  H21A 2421   6.645   2.538   3.662 -1.7508  2.2045 -2.0698
   33CHL1  H21B 2422   6.549   2.465   3.789  1.2985  1.4091 -0.2977
   33CHL1  H21C 2423   6.478   2.509   3.624  0.8008  0.0021 -1.3089
   33CHL1   C22 2424   6.715   2.270   3.696  0.7644  0.4140 -0.9661
   33CHL1  H22A 2425   6.749   2.175   3.649  1.4381  0.9583 -1.5914
   33CHL1  H22B 2426   6.792   2.349   3.684  0.7142  0.3763 -1.6173
   33CHL1   C23 2427   6.688   2.234   3.853 -0.9986  0.0910 -0.2445
   33CHL1  H23A 2428   6.659   2.329   3.903 -2.2095 -1.7266  2.7611
   33CHL1  H23B 2429   6.599   2.169   3.867  0.8091 -2.5301 -0.0959
   33CHL1   C24 2430   6.818   2.177   3.917  0.8860 -0.2252 -0.5348
   33CHL1  H24A 2431   6.841   2.072   3.889  2.7024  0.0683 -0.2164
   33CHL1  H24B 2432   6.899   2.249   3.895  2.8811 -2.3061 -0.3803
   33CHL1   C25 2433   6.805   2.168   4.065  0.3084 -0.3151 -0.4283
   33CHL1   H25 2434   6.781   2.268   4.108  1.6022 -0.7262  1.3783
   33CHL1   C26 2435   6.704   2.069   4.123  0.1136  0.4148  0.1965
   33CHL1  H26A 2436   6.680   2.085   4.230  1.8880  1.8570  0.4219
   33CHL1  H26B 2437   6.609   2.071   4.065 -0.9224 -0.9370  1.7599
   33CHL1  H26C 2438   6.746   1.966   4.119 -1.2514 -0.1340 -0.6446
   33CHL1   C27 2439   6.946   2.129   4.119 -0.1543 -0.3899 -0.2591
   33CHL1  H27A 2440   7.027   2.188   4.071 -1.1299  1.5375  0.3715
   33CHL1  H27B 2441   6.960   2.139   4.229 -0.2052  3.2386 -0.4560
   33CHL1  H27C 2442   6.956   2.021   4.096 -3.9616 -0.6820 -1.2086
   34CHL1    C3 2443   1.214   5.854   2.954  0.9622 -0.7383 -0.0870
   34CHL1    H3 2444   1.245   5.948   3.004 -2.3917  0.5234 -0.1090
   34CHL1    O3 2445   1.229   5.893   2.819  0.2450  0.1675  0.3470
   34CHL1   H3' 2446   1.322   5.880   2.801 -0.3173 -1.6883 -1.6537
   34CHL1    C4 2447   1.306   5.746   2.998 -0.1462 -0.1752 -0.2456
   34CHL1   H4A 2448   1.279   5.655   2.939 -0.2125  1.0659 -2.2507
   34CHL1   H4B 2449   1.410   5.763   2.963  0.2433 -0.8934  0.5381
   34CHL1    C5 2450   1.293   5.731   3.146  0.3343 -0.1328 -0.6860
   34CHL1    C6 2451   1.401   5.751   3.217 -0.7353 -0.2201 -0.2577
   34CHL1    H6 2452   1.488   5.781   3.159 -1.9675 -0.5988 -2.3981
   34CHL1    C7 2453   1.409   5.720   3.363 -0.2187  0.4225  0.1563
   34CHL1   H7A 2454   1.500   5.657   3.374 -0.3273  0.3072  0.4069
   34CHL1   H7B 2455   1.422   5.813   3.424 -0.9662  0.9178 -0.4322
   34CHL1    C8 2456   1.284   5.656   3.415  0.6368  0.0958  0.0686
   34CHL1    H8 2457   1.286   5.547   3.394 -2.3666 -0.1603  0.6360
   34CHL1   C14 2458   1.284   5.663   3.571 -0.5674 -0.6419  0.4533
   34CHL1   H14 2459   1.287   5.771   3.594 -1.2792 -0.3598 -0.6981
   34CHL1   C15 2460   1.414   5.606   3.643  0.4521  0.7792 -0.5468
   34CHL1  H15A 2461   1.425   5.503   3.603  1.3881 -0.1521  1.8947
   34CHL1  H15B 2462   1.499   5.676   3.627  0.5914  0.1261 -3.1167
   34CHL1   C16 2463   1.360   5.595   3.789 -0.6820  0.7426 -0.5760
   34CHL1  H16A 2464   1.395   5.496   3.826  1.4737  1.1934 -1.2524
   34CHL1  H16B 2465   1.411   5.673   3.850 -1.4783 -0.6588  2.0356
   34CHL1   C17 2466   1.206   5.622   3.791  0.0691 -0.3061 -0.4350
   34CHL1   H17 2467   1.194   5.732   3.801  0.4626 -0.2497 -0.5697
   34CHL1   C13 2468   1.168   5.598   3.646  0.5660  0.6311 -0.0547
   34CHL1   C18 2469   1.170   5.444   3.614 -0.7719  0.7055 -0.1853
   34CHL1  H18A 2470   1.167   5.415   3.506  2.7852  1.8093 -0.6933
   34CHL1  H18B 2471   1.259   5.387   3.647  0.0019  1.3425 -1.1352
   34CHL1  H18C 2472   1.076   5.405   3.660 -0.1912 -1.2698 -0.5801
   34CHL1   C12 2473   1.045   5.662   3.588 -0.1578  0.0972  0.0753
   34CHL1  H12A 2474   0.952   5.616   3.626 -0.2407 -0.5941 -0.9255
   34CHL1  H12B 2475   1.047   5.764   3.633 -0.7888  0.2643 -0.2526
   34CHL1   C11 2476   1.041   5.654   3.433 -0.0461 -0.1779 -0.2129
   34CHL1  H11A 2477   1.052   5.544   3.421  1.2811 -0.1660  0.7257
   34CHL1  H11B 2478   0.947   5.691   3.387 -0.2505  0.2587  0.5436
   34CHL1    C9 2479   1.154   5.714   3.359 -0.1546  0.3499  0.2169
   34CHL1    H9 2480   1.154   5.822   3.385 -0.7569  0.6128 -0.8208
   34CHL1   C10 2481   1.152   5.705   3.204  1.2615 -0.5555 -0.2310
   34CHL1   C19 2482   1.127   5.561   3.163 -0.0381  0.1401 -0.0297
   34CHL1  H19A 2483   1.034   5.527   3.214  1.0204  1.1235  2.7489
   34CHL1  H19B 2484   1.107   5.558   3.054 -0.2195  3.2356 -0.1531
   34CHL1  H19C 2485   1.200   5.479   3.180 -0.5345 -0.7054 -1.7050
   34CHL1    C1 2486   1.046   5.803   3.146  0.1116  0.3146 -0.0156
   34CHL1   H1A 2487   0.942   5.765   3.149  0.4021 -0.4790  0.7455
   34CHL1   H1B 2488   1.047   5.897   3.205 -1.3030 -0.2782  0.9960
   34CHL1    C2 2489   1.073   5.832   2.993 -0.0302 -0.2164 -0.8409
   34CHL1   H2A 2490   0.993   5.905   2.968 -0.3289  0.6832  2.2263
   34CHL1   H2B 2491   1.049   5.736   2.944  0.2744  0.7059 -2.8779
   34CHL1   C20 2492   1.123   5.551   3.907  0.4636  0.1728 -0.6288
   34CHL1   H20 2493   1.111   5.446   3.874  1.1415 -0.2252  0.3338
   34CHL1   C21 2494   0.981   5.603   3.904 -0.0966  0.2044 -0.4015
   34CHL1  H21A 2495   0.984   5.714   3.905  0.6393  0.1886  0.3633
   34CHL1  H21B 2496   0.934   5.568   3.999  2.6524 -0.6359  0.7573
   34CHL1  H21C 2497   0.931   5.572   3.810 -0.4966 -1.4924  0.3275
   34CHL1   C22 2498   1.203   5.556   4.044  0.1341 -0.0351  0.1403
   34CHL1  H22A 2499   1.143   5.506   4.123 -0.5583  1.5414  0.6353
   34CHL1  H22B 2500   1.306   5.514   4.045 -0.1720 -0.8394  1.8580
   34CHL1   C23 2501   1.219   5.701   4.096  0.4040  0.8864 -0.5447
   34CHL1  H23A 2502   1.304   5.755   4.047  0.5373  0.8816 -0.3202
   34CHL1  H23B 2503   1.129   5.764   4.088  0.6553  1.4065  0.5251
   34CHL1   C24 2504   1.232   5.690   4.249  0.1825  0.2008  0.1904
   34CHL1  H24A 2505   1.137   5.649   4.289 -1.1498  0.4297 -2.5187
   34CHL1  H24B 2506   1.325   5.633   4.269 -0.6113  0.0972  4.4271
   34CHL1   C25 2507   1.253   5.823   4.328 -0.1458 -0.0491  0.4177
   34CHL1   H25 2508   1.165   5.889   4.310 -0.8811 -1.2632 -0.5651
   34CHL1   C26 2509   1.282   5.790   4.473 -0.2993 -0.7758  0.4592
   34CHL1  H26A 2510   1.200   5.740   4.529  0.7286 -2.8292  0.2173
   34CHL1  H26B 2511   1.378   5.735   4.483 -1.8611 -3.3933  2.1952
   34CHL1  H26C 2512   1.290   5.892   4.516 -1.0278  1.0188 -3.3177
   34CHL1   C27 2513   1.373   5.896   4.271  0.1128  0.0618  0.0801
   34CHL1  H27A 2514   1.388   5.993   4.322  0.3303 -0.4227  0.9447
   34CHL1  H27B 2515   1.462   5.838   4.305  1.3497  2.8128  1.8977
   34CHL1  H27C 2516   1.362   5.912   4.161 -3.3924  1.1711  0.4556
   35CHL1    C3 2517   5.882   5.384   3.100  0.0292 -0.0527  0.5813
   35CHL1    H3 2518   5.906   5.491   3.084 -1.0013  0.1826  0.4948
   35CHL1    O3 2519   5.862   5.343   2.968  0.1570  0.2112  0.2350
   35CHL1   H3' 2520   5.901   5.409   2.911  2.2500 -0.4566  0.7988
   35CHL1    C4 2521   5.997   5.312   3.175 -0.0896  0.1473  0.8165
   35CHL1   H4A 2522   5.996   5.202   3.159 -0.1450  0.1732  0.6377
   35CHL1   H4B 2523   6.082   5.355   3.118  2.7929 -5.4436  0.2694
   35CHL1    C5 2524   5.996   5.349   3.322 -0.2784  0.0663 -0.8846
   35CHL1    C6 2525   6.106   5.410   3.370  0.0994 -0.0691 -0.3147
   35CHL1    H6 2526   6.187   5.437   3.300  0.8321  3.0975  1.5162
   35CHL1    C7 2527   6.121   5.453   3.516  0.4196 -0.0995 -0.2495
   35CHL1   H7A 2528   6.223   5.418   3.542  0.2780 -0.2718  0.0817
   35CHL1   H7B 2529   6.116   5.563   3.532  3.7710  0.0144  0.8736
   35CHL1    C8 2530   6.011   5.386   3.608 -0.5622 -0.5537 -0.2213
   35CHL1    H8 2531   6.031   5.279   3.630  0.9700 -0.2317  0.0822
   35CHL1   C14 2532   6.005   5.455   3.742 -0.7771  0.6259  0.0309
   35CHL1   H14 2533   5.964   5.556   3.720 -1.4842  0.0391 -1.4941
   35CHL1   C15 2534   6.138   5.478   3.812 -0.3453 -0.0291 -0.3845
   35CHL1  H15A 2535   6.182   5.379   3.834 -3.4778 -1.7639 -1.3083
   35CHL1  H15B 2536   6.202   5.556   3.764 -0.4496  1.7156  2.1541
   35CHL1   C16 2537   6.085   5.523   3.957 -0.2760  0.2435 -0.8337
   35CHL1  H16A 2538   6.129   5.460   4.037 -0.4469  1.3969  0.1929
   35CHL1  H16B 2539   6.117   5.628   3.970 -0.6648  0.1494  1.1674
   35CHL1   C17 2540   5.935   5.503   3.959  0.1050 -0.3339 -0.1502
   35CHL1   H17 2541   5.887   5.599   3.931  1.5874  0.1101 -1.2576
   35CHL1   C13 2542   5.903   5.406   3.844  0.3565 -0.0919 -0.1373
   35CHL1   C18 2543   5.945   5.263   3.884  0.2624  0.0132 -0.8214
   35CHL1  H18A 2544   5.868   5.209   3.943  0.2482 -1.0364 -1.7628
   35CHL1  H18B 2545   5.955   5.192   3.799 -3.7478 -3.3713  1.1554
   35CHL1  H18C 2546   6.035   5.265   3.949 -0.7817 -2.7308  0.8772
   35CHL1   C12 2547   5.760   5.416   3.770 -0.0299  0.3742  0.5973
   35CHL1  H12A 2548   5.688   5.357   3.830  1.3879  0.0953  2.0888
   35CHL1  H12B 2549   5.728   5.521   3.754  1.0005  0.6232  0.0267
   35CHL1   C11 2550   5.763   5.344   3.630  0.4816 -0.8249  0.1195
   35CHL1  H11A 2551   5.785   5.241   3.664 -0.4513 -0.4767  1.9243
   35CHL1  H11B 2552   5.662   5.337   3.583 -0.6961 -0.8731  2.5045
   35CHL1    C9 2553   5.876   5.397   3.537  0.3675  0.3086  0.0962
   35CHL1    H9 2554   5.849   5.504   3.525 -0.7006  0.3481  2.2364
   35CHL1   C10 2555   5.874   5.325   3.399  1.1902  0.5353 -1.0414
   35CHL1   C19 2556   5.862   5.172   3.409  0.4519 -0.6073  0.0925
   35CHL1  H19A 2557   5.888   5.115   3.317 -3.0429  1.5661 -2.5100
   35CHL1  H19B 2558   5.923   5.124   3.488 -0.2811 -1.2907  0.2464
   35CHL1  H19C 2559   5.758   5.138   3.426 -0.3545  2.0297  1.0493
   35CHL1    C1 2560   5.756   5.399   3.323  0.2621 -0.3359  0.6211
   35CHL1   H1A 2561   5.654   5.386   3.364  0.0827  0.6262  0.4944
   35CHL1   H1B 2562   5.766   5.510   3.322 -1.6251 -0.1159 -1.4215
   35CHL1    C2 2563   5.748   5.367   3.176 -0.5200 -0.2278  0.4999
   35CHL1   H2A 2564   5.669   5.422   3.120 -0.4467  0.2706  0.8798
   35CHL1   H2B 2565   5.739   5.256   3.176  1.0196 -0.3889 -1.0620
   35CHL1   C20 2566   5.887   5.480   4.101  0.1516 -0.2658  0.1242
   35CHL1   H20 2567   5.940   5.389   4.136  1.5619 -0.0273 -1.3359
   35CHL1   C21 2568   5.728   5.450   4.106  0.4832  0.3506  0.4790
   35CHL1  H21A 2569   5.675   5.535   4.058  1.4505 -0.4175 -2.0819
   35CHL1  H21B 2570   5.696   5.424   4.209  0.9555 -0.6003  0.3923
   35CHL1  H21C 2571   5.716   5.357   4.047  2.8344 -0.0646  0.5383
   35CHL1   C22 2572   5.927   5.595   4.203  0.0480 -0.0470  0.2396
   35CHL1  H22A 2573   5.881   5.577   4.303  2.5533 -0.3479  1.3964
   35CHL1  H22B 2574   6.035   5.606   4.225  0.2100  0.5618 -0.8250
   35CHL1   C23 2575   5.880   5.738   4.151  0.0558 -0.2878  0.2962
   35CHL1  H23A 2576   5.926   5.767   4.054  1.9051  1.9868  1.7195
   35CHL1  H23B 2577   5.770   5.748   4.158  0.2654  1.2424  2.2898
   35CHL1   C24 2578   5.932   5.848   4.250  0.1328  0.1817 -0.4415
   35CHL1  H24A 2579   5.886   5.810   4.344 -1.3141  3.2614  0.2024
   35CHL1  H24B 2580   6.043   5.848   4.248  0.1167  0.6625 -1.7947
   35CHL1   C25 2581   5.875   5.991   4.247  0.6809 -0.2178 -0.1435
   35CHL1   H25 2582   5.766   5.971   4.244  0.5217  0.5258 -3.3414
   35CHL1   C26 2583   5.918   6.065   4.380 -0.0338 -0.2692  0.2632
   35CHL1  H26A 2584   6.021   6.105   4.365 -0.1809 -0.1785 -0.5703
   35CHL1  H26B 2585   5.857   6.155   4.402  0.3444  0.3884 -1.2401
   35CHL1  H26C 2586   5.925   6.006   4.473  0.8450 -1.7692 -0.7113
   35CHL1   C27 2587   5.926   6.074   4.133 -0.2417 -0.1105  0.0761
   35CHL1  H27A 2588   6.033   6.100   4.144  0.3759 -2.5865  0.5311
   35CHL1  H27B 2589   5.920   6.032   4.030 -0.3097  1.5150 -0.6061
   35CHL1  H27C 2590   5.866   6.167   4.134  0.0819  0.0973  0.3123
   36CHL1    C3 2591   5.785   0.806   2.753 -0.8616 -0.3874 -0.1695
   36CHL1    H3 2592   5.733   0.711   2.780  0.8440 -1.6654 -1.2107
   36CHL1    O3 2593   5.808   0.790   2.619 -0.0273 -0.1571 -0.5013
   36CHL1   H3' 2594   5.756   0.859   2.576  0.1823  1.2142  1.3479
   36CHL1    C4 2595   5.691   0.922   2.770 -0.1152  0.5935 -0.0674
   36CHL1   H4A 2596   5.738   1.016   2.733  0.8846  0.2015  0.1591
   36CHL1   H4B 2597   5.604   0.899   2.705 -0.0943 -0.0728  0.1366
   36CHL1    C5 2598   5.661   0.935   2.919 -0.0649 -0.0069 -0.0906
   36CHL1    C6 2599   5.533   0.919   2.968  0.5896  0.4194 -1.4603
   36CHL1    H6 2600   5.444   0.893   2.908 -1.8870  0.8315  1.7836
   36CHL1    C7 2601   5.498   0.927   3.119 -0.2872  0.3866  0.3199
   36CHL1   H7A 2602   5.406   0.985   3.143  0.2883  0.1420  3.7161
   36CHL1   H7B 2603   5.483   0.826   3.161  1.2068 -0.3800 -0.8932
   36CHL1    C8 2604   5.611   0.998   3.201  0.0234  0.0819 -0.3725
   36CHL1    H8 2605   5.610   1.102   3.161 -3.3614 -0.6644 -2.7046
   36CHL1   C14 2606   5.582   0.985   3.351  0.2547 -0.2322  0.4991
   36CHL1   H14 2607   5.581   0.876   3.372  1.0390 -0.1758  0.8495
   36CHL1   C15 2608   5.448   1.035   3.399  0.5817  0.2541  0.2937
   36CHL1  H15A 2609   5.432   1.137   3.358  2.3207  0.5159  0.1711
   36CHL1  H15B 2610   5.366   0.970   3.364  1.5234  0.0049 -1.5698
   36CHL1   C16 2611   5.468   1.028   3.552  0.2368  0.2497 -0.2293
   36CHL1  H16A 2612   5.427   1.125   3.590  0.1300 -0.0668  0.4651
   36CHL1  H16B 2613   5.405   0.955   3.607  1.4889 -0.7151 -0.0316
   36CHL1   C17 2614   5.621   1.011   3.586 -0.2745  0.0380 -0.2160
   36CHL1   H17 2615   5.626   0.903   3.610 -0.9655  0.3007  1.2237
   36CHL1   C13 2616   5.686   1.037   3.458  0.5785  0.0149  0.2461
   36CHL1   C18 2617   5.697   1.185   3.443 -0.7188  0.3145  0.0120
   36CHL1  H18A 2618   5.745   1.220   3.348  0.9242  4.2217  2.0368
   36CHL1  H18B 2619   5.602   1.242   3.451  0.4158  2.0514  2.3726
   36CHL1  H18C 2620   5.770   1.232   3.512 -1.3872 -0.4835  1.2838
   36CHL1   C12 2621   5.815   0.958   3.420  0.3461 -0.1117  0.2127
   36CHL1  H12A 2622   5.902   0.998   3.476 -0.6842  2.3414  0.1346
   36CHL1  H12B 2623   5.805   0.849   3.441 -0.6013 -0.1967 -0.5915
   36CHL1   C11 2624   5.849   0.970   3.268 -0.3724  0.0065 -0.2432
   36CHL1  H11A 2625   5.880   1.074   3.247 -1.6425  0.9605  2.1664
   36CHL1  H11B 2626   5.941   0.911   3.247 -0.2431  0.0253  0.2480
   36CHL1    C9 2627   5.740   0.933   3.166 -0.4644 -0.1684 -0.1365
   36CHL1    H9 2628   5.716   0.826   3.187 -1.9194  0.3746  1.1867
   36CHL1   C10 2629   5.780   0.945   3.018  0.2971 -0.3009 -0.2024
   36CHL1   C19 2630   5.834   1.096   3.000  0.4602  0.1727 -0.2228
   36CHL1  H19A 2631   5.757   1.172   3.027  0.1506  0.3805 -1.5859
   36CHL1  H19B 2632   5.933   1.114   3.046  0.4107 -0.8739  0.3204
   36CHL1  H19C 2633   5.857   1.117   2.893 -0.0644  0.1064 -0.3541
   36CHL1    C1 2634   5.889   0.848   2.984 -0.0001  0.5379 -0.2297
   36CHL1   H1A 2635   5.980   0.878   3.041 -0.9359  1.6479  0.7555
   36CHL1   H1B 2636   5.875   0.744   3.021  3.1137  0.0580 -0.1118
   36CHL1    C2 2637   5.906   0.828   2.835 -0.7334  0.7638  0.3724
   36CHL1   H2A 2638   5.978   0.745   2.817 -0.1173  1.1804  0.8705
   36CHL1   H2B 2639   5.959   0.918   2.798 -0.2901  0.2990 -0.1425
   36CHL1   C20 2640   5.674   1.087   3.710  0.5114  0.7296 -0.5706
   36CHL1   H20 2641   5.677   1.196   3.691 -0.5227  0.5584 -1.8180
   36CHL1   C21 2642   5.813   1.040   3.741 -0.7212  0.6900 -0.1995
   36CHL1  H21A 2643   5.847   1.075   3.841  0.0594 -2.3719  0.7252
   36CHL1  H21B 2644   5.888   1.072   3.666  0.1248 -0.6653  0.0280
   36CHL1  H21C 2645   5.825   0.930   3.757  0.2405  0.8215  0.0192
   36CHL1   C22 2646   5.588   1.062   3.838  0.2535  0.1664  0.7874
   36CHL1  H22A 2647   5.485   1.091   3.807 -1.0557 -3.2546  1.4497
   36CHL1  H22B 2648   5.589   0.953   3.862  0.1820 -0.4815 -1.7982
   36CHL1   C23 2649   5.621   1.135   3.965  0.4772  0.3067 -0.5175
   36CHL1  H23A 2650   5.720   1.107   4.006 -0.1072  3.2160  3.5367
   36CHL1  H23B 2651   5.631   1.243   3.939 -0.1273  0.2691 -0.9341
   36CHL1   C24 2652   5.520   1.110   4.080 -0.6066  0.5381  0.4654
   36CHL1  H24A 2653   5.411   1.126   4.062 -0.3210  0.8883 -1.1082
   36CHL1  H24B 2654   5.543   1.006   4.110 -0.5116  0.7460  1.1214
   36CHL1   C25 2655   5.565   1.190   4.211  0.6757  0.3644  0.1161
   36CHL1   H25 2656   5.676   1.189   4.202  0.5143 -1.2131 -3.7076
   36CHL1   C26 2657   5.529   1.340   4.200  1.0627 -0.3432  0.1681
   36CHL1  H26A 2658   5.557   1.394   4.292  1.7214  0.5199 -0.5261
   36CHL1  H26B 2659   5.570   1.391   4.110 -2.0696  0.0402 -1.1639
   36CHL1  H26C 2660   5.419   1.332   4.186  1.0394  1.0528 -0.6290
   36CHL1   C27 2661   5.518   1.119   4.335  0.4287  0.4700  0.0202
   36CHL1  H27A 2662   5.577   1.148   4.424 -0.8366 -0.4820  1.2289
   36CHL1  H27B 2663   5.411   1.132   4.362 -0.8222 -0.6121 -3.7966
   36CHL1  H27C 2664   5.536   1.010   4.317  1.1653  0.3009  1.6060
   37CHL1    C3 2665   3.310   4.774   2.859  1.1393 -0.1878  0.1533
   37CHL1    H3 2666   3.228   4.702   2.879  1.1595  0.2438  1.9989
   37CHL1    O3 2667   3.292   4.797   2.724  0.7870 -0.3228  0.8934
   37CHL1   H3' 2668   3.276   4.891   2.721 -3.1391 -0.7915 -2.5989
   37CHL1    C4 2669   3.279   4.899   2.943 -0.3235 -0.3848 -0.5688
   37CHL1   H4A 2670   3.347   4.977   2.903  2.2911 -1.3327  1.7621
   37CHL1   H4B 2671   3.170   4.920   2.929 -0.5923 -0.4378  1.2081
   37CHL1    C5 2672   3.323   4.887   3.091  0.3212  0.7285  0.4303
   37CHL1    C6 2673   3.239   4.925   3.187  0.0733  0.8287 -0.6738
   37CHL1    H6 2674   3.141   4.972   3.171  0.2516  0.8025 -1.9616
   37CHL1    C7 2675   3.276   4.909   3.329  0.3399  0.7436 -0.4588
   37CHL1   H7A 2676   3.234   4.994   3.386 -0.1343 -0.5569  1.2097
   37CHL1   H7B 2677   3.221   4.821   3.370  1.3688  0.3920  0.2118
   37CHL1    C8 2678   3.425   4.885   3.365 -0.1801  0.0526 -0.1437
   37CHL1    H8 2679   3.477   4.983   3.360 -1.2082  0.5874 -0.7414
   37CHL1   C14 2680   3.447   4.836   3.505 -0.3666  0.7535 -0.1372
   37CHL1   H14 2681   3.376   4.753   3.524 -1.3534  1.1751 -1.7435
   37CHL1   C15 2682   3.410   4.940   3.615  0.2258  0.0176 -0.0950
   37CHL1  H15A 2683   3.458   5.039   3.598  1.4363 -0.7135 -1.1413
   37CHL1  H15B 2684   3.300   4.957   3.625  0.0621  0.6323 -2.3083
   37CHL1   C16 2685   3.470   4.889   3.745  0.2701  0.1954 -0.8782
   37CHL1  H16A 2686   3.531   4.962   3.801 -0.7476 -2.1735  3.7809
   37CHL1  H16B 2687   3.398   4.841   3.814 -0.4664  1.9042 -0.4288
   37CHL1   C17 2688   3.564   4.765   3.701  0.2905 -0.7740  0.1475
   37CHL1   H17 2689   3.502   4.674   3.713 -0.6063 -0.2632 -0.5351
   37CHL1   C13 2690   3.584   4.792   3.546  0.2979  0.6772  0.0409
   37CHL1   C18 2691   3.685   4.905   3.517 -0.1876  0.4098  0.0755
   37CHL1  H18A 2692   3.681   4.944   3.414  1.4902  0.7737  0.1345
   37CHL1  H18B 2693   3.678   4.988   3.590 -0.3547 -0.1522  0.7093
   37CHL1  H18C 2694   3.790   4.870   3.527  0.2941  1.2491 -1.7360
   37CHL1   C12 2695   3.629   4.672   3.455 -0.1215 -0.1546 -0.7560
   37CHL1  H12A 2696   3.737   4.645   3.468 -0.6783 -1.6807  1.3862
   37CHL1  H12B 2697   3.565   4.585   3.480  0.5696  0.0106  1.9863
   37CHL1   C11 2698   3.616   4.719   3.311  0.7909  0.5444  0.2358
   37CHL1  H11A 2699   3.695   4.794   3.290  1.2693 -0.1539 -0.4935
   37CHL1  H11B 2700   3.650   4.641   3.240 -2.2740  0.2943 -1.1123
   37CHL1    C9 2701   3.475   4.774   3.270 -0.3702 -0.1935  0.1203
   37CHL1    H9 2702   3.404   4.691   3.288  0.0296 -0.1289  2.2430
   37CHL1   C10 2703   3.458   4.820   3.119 -0.0924  0.2327 -0.0504
   37CHL1   C19 2704   3.581   4.915   3.082 -0.4553  0.8546 -0.0606
   37CHL1  H19A 2705   3.584   4.997   3.157 -0.9172  0.9822 -0.1735
   37CHL1  H19B 2706   3.680   4.866   3.079 -1.3085 -1.1847  2.2532
   37CHL1  H19C 2707   3.560   4.968   2.986 -1.6033 -2.4595 -1.7820
   37CHL1    C1 2708   3.473   4.695   3.025  0.1570 -0.3630 -0.0800
   37CHL1   H1A 2709   3.581   4.676   3.041 -0.1610 -1.0365  1.3538
   37CHL1   H1B 2710   3.407   4.615   3.064  0.4010 -0.2271  0.6124
   37CHL1    C2 2711   3.447   4.723   2.874 -0.0950  0.4717 -0.1317
   37CHL1   H2A 2712   3.460   4.624   2.826  0.4652  0.3763  0.2122
   37CHL1   H2B 2713   3.519   4.801   2.843  1.2958 -1.2690 -1.4733
   37CHL1   C20 2714   3.694   4.748   3.783 -0.4344  0.1202  0.5981
   37CHL1   H20 2715   3.749   4.844   3.772  2.0066 -1.2653 -0.0417
   37CHL1   C21 2716   3.787   4.635   3.738 -0.0578  0.1806 -0.4328
   37CHL1  H21A 2717   3.871   4.611   3.806  0.4366  2.9582  0.0758
   37CHL1  H21B 2718   3.836   4.663   3.642  2.8431 -1.5766  0.4265
   37CHL1  H21C 2719   3.728   4.543   3.717 -1.1450  1.4206 -3.5046
   37CHL1   C22 2720   3.659   4.722   3.929  0.2790 -0.2915 -0.0127
   37CHL1  H22A 2721   3.752   4.725   3.989 -0.4974 -0.6411  1.2320
   37CHL1  H22B 2722   3.592   4.805   3.961  1.6873  1.2005 -0.7948
   37CHL1   C23 2723   3.587   4.595   3.967  0.0746 -0.0047 -0.1647
   37CHL1  H23A 2724   3.489   4.587   3.916 -0.3955  0.5019  0.6386
   37CHL1  H23B 2725   3.640   4.502   3.936 -1.3298 -0.5927 -0.8930
   37CHL1   C24 2726   3.565   4.573   4.116 -0.4160 -0.4512 -0.5363
   37CHL1  H24A 2727   3.670   4.558   4.148 -0.1374 -1.6177 -1.8876
   37CHL1  H24B 2728   3.519   4.661   4.166  0.5370 -1.2041  1.7814
   37CHL1   C25 2729   3.508   4.433   4.145 -0.1479 -0.6434 -0.1893
   37CHL1   H25 2730   3.577   4.363   4.095 -0.8253 -0.8372 -0.8604
   37CHL1   C26 2731   3.529   4.407   4.301 -0.3583 -0.3700  0.5673
   37CHL1  H26A 2732   3.476   4.494   4.343 -1.0625 -0.8808  0.7548
   37CHL1  H26B 2733   3.486   4.310   4.334 -1.0217 -1.5115 -3.1263
   37CHL1  H26C 2734   3.634   4.408   4.338 -0.7107 -0.5425  1.5871
   37CHL1   C27 2735   3.359   4.434   4.098 -0.3950  0.2932 -0.0876
   37CHL1  H27A 2736   3.308   4.521   4.145 -1.0102  1.0008 -1.9428
   37CHL1  H27B 2737   3.355   4.456   3.989 -1.8248  1.7038  0.2057
   37CHL1  H27C 2738   3.300   4.343   4.122 -0.3348  0.1996 -0.2927
   38CHL1    C3 2739   2.277   5.118   2.708 -0.1799 -0.1697 -0.0469
   38CHL1    H3 2740   2.169   5.094   2.696 -0.0116 -1.1557  0.3117
   38CHL1    O3 2741   2.328   5.171   2.590  0.1977 -0.3594 -0.1071
   38CHL1   H3' 2742   2.315   5.103   2.524 -0.7495 -0.8848  0.5916
   38CHL1    C4 2743   2.287   5.235   2.814 -0.2022 -0.0453  0.4068
   38CHL1   H4A 2744   2.390   5.277   2.810  0.0773 -0.7457  0.1196
   38CHL1   H4B 2745   2.225   5.315   2.769  0.2701 -0.0548 -0.2780
   38CHL1    C5 2746   2.244   5.189   2.953  0.0851  0.2427  0.3648
   38CHL1    C6 2747   2.146   5.243   3.028 -0.2278  0.2148  0.7023
   38CHL1    H6 2748   2.094   5.328   2.983  1.3227  0.5093 -0.6195
   38CHL1    C7 2749   2.110   5.197   3.161  0.3085 -0.3175 -0.6921
   38CHL1   H7A 2750   2.077   5.282   3.225 -0.5788 -0.0134 -1.5370
   38CHL1   H7B 2751   2.024   5.128   3.148 -0.3081  0.5445 -1.3150
   38CHL1    C8 2752   2.221   5.123   3.232 -0.0807  0.1406 -0.7010
   38CHL1    H8 2753   2.298   5.202   3.246  0.2152 -0.1803 -0.4791
   38CHL1   C14 2754   2.184   5.079   3.375 -0.3497  0.6494 -0.7690
   38CHL1   H14 2755   2.098   5.011   3.356  0.1343  0.6857 -3.3913
   38CHL1   C15 2756   2.131   5.179   3.482  0.2045  0.1142  0.0849
   38CHL1  H15A 2757   2.175   5.279   3.458  0.4263  0.3805  1.5079
   38CHL1  H15B 2758   2.020   5.180   3.473  0.2422 -0.0793 -0.3912
   38CHL1   C16 2759   2.167   5.117   3.618 -0.0456  0.0196  0.3787
   38CHL1  H16A 2760   2.240   5.167   3.685  3.0387 -1.0944 -1.8898
   38CHL1  H16B 2761   2.070   5.096   3.668 -0.3199 -2.8282 -1.1400
   38CHL1   C17 2762   2.232   4.982   3.591 -0.0249 -0.2953 -0.0653
   38CHL1   H17 2763   2.149   4.911   3.570  1.4820 -2.1841  0.1063
   38CHL1   C13 2764   2.297   4.998   3.448  0.1197 -0.6435 -0.9311
   38CHL1   C18 2765   2.416   5.087   3.473  0.1466 -0.5960  0.1221
   38CHL1  H18A 2766   2.395   5.190   3.509 -1.3794 -1.1933  1.0137
   38CHL1  H18B 2767   2.485   5.045   3.550 -0.6220 -0.8157  0.7011
   38CHL1  H18C 2768   2.470   5.108   3.378  1.6236 -1.4147  0.7429
   38CHL1   C12 2769   2.323   4.871   3.362  0.0390  0.4774  0.0341
   38CHL1  H12A 2770   2.403   4.804   3.399  1.6422  2.4780  0.3841
   38CHL1  H12B 2771   2.226   4.817   3.355 -0.0198  0.4667  0.8206
   38CHL1   C11 2772   2.363   4.912   3.214 -0.8457 -0.4252  0.2495
   38CHL1  H11A 2773   2.459   4.965   3.233 -0.6854 -0.4214 -0.5469
   38CHL1  H11B 2774   2.382   4.814   3.165  1.5116 -1.5898  3.1963
   38CHL1    C9 2775   2.269   5.013   3.140  0.1197 -0.3513  0.4690
   38CHL1    H9 2776   2.184   4.951   3.105  1.3722 -1.8745  0.0399
   38CHL1   C10 2777   2.329   5.072   3.008 -0.2998  0.1636  0.9517
   38CHL1   C19 2778   2.469   5.138   3.028  0.0786  0.2931 -0.2328
   38CHL1  H19A 2779   2.517   5.175   2.935  1.1940  0.7850  0.5156
   38CHL1  H19B 2780   2.457   5.219   3.104 -1.9852 -1.0505  0.9701
   38CHL1  H19C 2781   2.532   5.054   3.062  1.1489  1.3767  0.5243
   38CHL1    C1 2782   2.324   4.958   2.896 -0.0381 -0.0474  0.3461
   38CHL1   H1A 2783   2.379   4.868   2.931  0.2983  0.1697  0.3724
   38CHL1   H1B 2784   2.220   4.920   2.885 -0.1329  0.2869  0.0794
   38CHL1    C2 2785   2.362   4.999   2.751  0.0212 -0.0648  0.2156
   38CHL1   H2A 2786   2.358   4.925   2.668 -0.8453  2.5637 -2.2274
   38CHL1   H2B 2787   2.469   5.031   2.758  0.4443 -1.6020  1.4414
   38CHL1   C20 2788   2.319   4.916   3.706  0.3385  0.2678 -0.0312
   38CHL1   H20 2789   2.423   4.952   3.718  0.1474  1.0070 -0.4928
   38CHL1   C21 2790   2.306   4.765   3.683 -0.3849 -0.4461 -0.3394
   38CHL1  H21A 2791   2.211   4.728   3.728  0.3284 -2.2062 -0.1757
   38CHL1  H21B 2792   2.379   4.703   3.740 -0.0099 -0.8585 -1.2335
   38CHL1  H21C 2793   2.307   4.737   3.575 -0.7133 -1.1428 -0.1700
   38CHL1   C22 2794   2.248   4.945   3.839  0.1682  0.2107 -0.4801
   38CHL1  H22A 2795   2.253   5.055   3.852  1.4819 -0.0299  1.5349
   38CHL1  H22B 2796   2.147   4.900   3.832  0.5013 -0.5329 -0.7015
   38CHL1   C23 2797   2.309   4.893   3.970  0.2525  0.9873  0.4631
   38CHL1  H23A 2798   2.361   4.796   3.950  0.5188  1.4370 -1.1797
   38CHL1  H23B 2799   2.390   4.962   4.003  1.8330 -0.8852  0.6909
   38CHL1   C24 2800   2.210   4.882   4.085  0.5309 -0.2944 -0.0923
   38CHL1  H24A 2801   2.181   4.988   4.102 -1.0884 -0.1155 -3.2489
   38CHL1  H24B 2802   2.125   4.816   4.058 -0.0862 -0.3104  1.7434
   38CHL1   C25 2803   2.270   4.827   4.209  0.1412  0.1807  0.0386
   38CHL1   H25 2804   2.373   4.864   4.228  0.3395  0.1145 -0.8725
   38CHL1   C26 2805   2.195   4.863   4.337  0.0926  0.6558  0.1928
   38CHL1  H26A 2806   2.256   4.816   4.418  1.1261 -0.3426 -1.1265
   38CHL1  H26B 2807   2.204   4.973   4.345  0.3576  0.7992 -1.7936
   38CHL1  H26C 2808   2.086   4.839   4.326  0.0951  0.8890 -0.3278
   38CHL1   C27 2809   2.276   4.672   4.210  0.0209  0.0075 -0.2475
   38CHL1  H27A 2810   2.326   4.642   4.305  2.1357 -0.0075 -1.2957
   38CHL1  H27B 2811   2.170   4.641   4.214  0.2799 -2.2224 -4.6955
   38CHL1  H27C 2812   2.319   4.623   4.120 -2.4403  0.3022 -1.6526
   39CHL1    C3 2813   6.274   4.896   3.230  0.0262 -0.2800  0.0586
   39CHL1    H3 2814   6.337   4.977   3.273  1.2880 -1.6972  1.0011
   39CHL1    O3 2815   6.286   4.879   3.093 -0.0820 -0.0075  0.1671
   39CHL1   H3' 2816   6.232   4.802   3.073 -0.9860  0.7545 -0.3821
   39CHL1    C4 2817   6.320   4.761   3.295  0.1296 -0.0742  0.4017
   39CHL1   H4A 2818   6.272   4.676   3.243 -2.6758  1.2445  0.6440
   39CHL1   H4B 2819   6.430   4.762   3.277  0.0156 -1.4986 -0.5037
   39CHL1    C5 2820   6.286   4.743   3.435 -0.3147  0.0740 -0.6688
   39CHL1    C6 2821   6.377   4.717   3.535  0.0716 -0.1142 -0.1125
   39CHL1    H6 2822   6.483   4.694   3.518  0.2187  0.3874  0.1013
   39CHL1    C7 2823   6.350   4.711   3.680  0.0681 -0.6827  0.9896
   39CHL1   H7A 2824   6.409   4.628   3.726  3.3382  0.9657  0.1152
   39CHL1   H7B 2825   6.376   4.803   3.736  2.9440 -0.9536  0.2562
   39CHL1    C8 2826   6.192   4.693   3.699 -0.0587  0.1616  0.5998
   39CHL1    H8 2827   6.169   4.591   3.660  0.4832  0.1866  0.2045
   39CHL1   C14 2828   6.158   4.688   3.845  0.1404 -0.0633 -0.2418
   39CHL1   H14 2829   6.190   4.784   3.892  1.6907  0.6397 -2.5404
   39CHL1   C15 2830   6.239   4.575   3.915  0.2787  0.3641  0.4165
   39CHL1  H15A 2831   6.254   4.494   3.840 -0.5517  0.1787  0.4358
   39CHL1  H15B 2832   6.340   4.604   3.950  1.4723 -1.7086 -1.1039
   39CHL1   C16 2833   6.147   4.531   4.031  0.0702 -0.3250 -0.8184
   39CHL1  H16A 2834   6.117   4.424   4.025 -2.7579  0.3736 -0.5697
   39CHL1  H16B 2835   6.198   4.535   4.130  1.0143  0.0132 -1.3183
   39CHL1   C17 2836   6.020   4.629   4.033 -0.7418  0.3594  0.1021
   39CHL1   H17 2837   6.050   4.724   4.082 -1.5447  0.7399 -0.1302
   39CHL1   C13 2838   6.012   4.668   3.880 -0.4114  0.0732  0.0846
   39CHL1   C18 2839   5.942   4.547   3.815 -0.3108  0.4204  0.2945
   39CHL1  H18A 2840   5.941   4.548   3.704 -0.0737 -1.7438  0.2246
   39CHL1  H18B 2841   5.998   4.455   3.843  0.6150  0.8967  0.0539
   39CHL1  H18C 2842   5.834   4.536   3.837 -0.3031 -0.2886  0.0144
   39CHL1   C12 2843   5.952   4.801   3.832 -0.0842  0.1019  0.6392
   39CHL1  H12A 2844   5.841   4.813   3.839 -0.2530 -0.9135 -0.0731
   39CHL1  H12B 2845   5.998   4.885   3.888  2.4231 -0.9240  0.2596
   39CHL1   C11 2846   5.973   4.823   3.681  0.3003 -0.1248  0.1599
   39CHL1  H11A 2847   5.898   4.764   3.624  0.6754  0.0695 -0.5385
   39CHL1  H11B 2848   5.943   4.927   3.656 -0.3959 -0.2485  0.4564
   39CHL1    C9 2849   6.115   4.799   3.626 -0.0425  0.8530  0.3271
   39CHL1    H9 2850   6.172   4.889   3.658  2.1734 -1.3124  3.0276
   39CHL1   C10 2851   6.139   4.782   3.474 -0.3066  0.2339 -0.1507
   39CHL1   C19 2852   6.053   4.676   3.411 -0.2337 -0.3849 -0.6856
   39CHL1  H19A 2853   6.068   4.579   3.464  0.1555  1.0558  1.9935
   39CHL1  H19B 2854   5.946   4.707   3.411 -0.3000 -0.4058  1.6919
   39CHL1  H19C 2855   6.067   4.658   3.302 -0.5080 -0.5517 -0.6966
   39CHL1    C1 2856   6.101   4.915   3.409 -0.0645 -0.2976  0.3263
   39CHL1   H1A 2857   5.996   4.941   3.430 -0.3139 -0.2797 -0.8792
   39CHL1   H1B 2858   6.165   4.997   3.449  0.4931 -0.9618  0.8124
   39CHL1    C2 2859   6.131   4.916   3.257  0.3120 -0.3701  0.6552
   39CHL1   H2A 2860   6.107   5.017   3.215 -0.1116  0.2539  2.3210
   39CHL1   H2B 2861   6.062   4.844   3.209  2.8358 -2.5312  0.0683
   39CHL1   C20 2862   5.893   4.572   4.107  0.2387 -0.3363  0.1509
   39CHL1   H20 2863   5.838   4.506   4.035 -0.9672  1.9446 -1.1422
   39CHL1   C21 2864   5.806   4.700   4.134  0.1270  0.3021 -0.9889
   39CHL1  H21A 2865   5.857   4.769   4.204 -1.3683  0.6316 -0.1677
   39CHL1  H21B 2866   5.711   4.672   4.185  0.5747  2.1119  0.9713
   39CHL1  H21C 2867   5.784   4.749   4.036 -1.1520  0.1480 -0.7959
   39CHL1   C22 2868   5.931   4.500   4.238 -0.1649 -0.8069 -0.9150
   39CHL1  H22A 2869   5.979   4.406   4.203  1.6400 -1.0201  1.7800
   39CHL1  H22B 2870   6.000   4.553   4.307 -1.3721  0.2576 -0.4662
   39CHL1   C23 2871   5.804   4.464   4.313  0.2688  0.5655 -0.1734
   39CHL1  H23A 2872   5.744   4.549   4.354 -0.9939  0.0442 -0.8814
   39CHL1  H23B 2873   5.730   4.424   4.241  0.6796 -0.5614  0.0176
   39CHL1   C24 2874   5.830   4.369   4.431 -0.8098  0.4142  0.0911
   39CHL1  H24A 2875   5.862   4.266   4.404 -0.3312  0.7682 -0.7481
   39CHL1  H24B 2876   5.906   4.409   4.501 -0.5636 -2.0647  1.3378
   39CHL1   C25 2877   5.710   4.341   4.516  0.1134 -0.7046  0.5445
   39CHL1   H25 2878   5.664   4.438   4.541  1.0710 -0.0079 -0.2929
   39CHL1   C26 2879   5.597   4.257   4.442 -0.5852  0.2180 -0.2685
   39CHL1  H26A 2880   5.553   4.327   4.367  4.3124  6.3414  1.6575
   39CHL1  H26B 2881   5.646   4.172   4.390 -1.0717  1.2419 -2.5356
   39CHL1  H26C 2882   5.518   4.219   4.510 -1.0178 -0.5439 -1.1763
   39CHL1   C27 2883   5.749   4.265   4.644  0.8499 -0.0211  0.8576
   39CHL1  H27A 2884   5.665   4.229   4.707  1.3503 -3.2225 -0.1330
   39CHL1  H27B 2885   5.808   4.181   4.601  1.9462  1.7957 -1.4042
   39CHL1  H27C 2886   5.806   4.332   4.712  0.4658  0.1718  0.9917
   40CHL1    C3 2887   4.850   4.003   2.753 -0.6380  0.7771  1.0205
   40CHL1    H3 2888   4.933   4.055   2.807 -0.0131  2.3892 -1.3453
   40CHL1    O3 2889   4.837   4.068   2.630  0.0314 -0.1448 -0.0531
   40CHL1   H3' 2890   4.763   4.027   2.585 -0.6294  1.9271 -0.9579
   40CHL1    C4 2891   4.883   3.856   2.756  0.0777 -0.1846  0.3148
   40CHL1   H4A 2892   4.805   3.797   2.703  0.9896  1.5883 -3.3073
   40CHL1   H4B 2893   4.974   3.835   2.696 -0.7899 -0.9198 -0.7778
   40CHL1    C5 2894   4.911   3.806   2.895 -0.2567  0.3094 -0.1584
   40CHL1    C6 2895   5.031   3.752   2.925 -0.4624  0.7682  0.5352
   40CHL1    H6 2896   5.099   3.734   2.840 -1.8307 -0.5258 -0.3419
   40CHL1    C7 2897   5.067   3.692   3.056 -0.0653  0.0993 -0.6889
   40CHL1   H7A 2898   5.116   3.593   3.044 -1.3680 -0.5623 -0.7196
   40CHL1   H7B 2899   5.145   3.756   3.103 -1.3192  0.6812  0.6985
   40CHL1    C8 2900   4.948   3.684   3.149 -0.0714  0.7359 -0.3042
   40CHL1    H8 2901   4.903   3.585   3.127  1.4262  0.3379 -1.7324
   40CHL1   C14 2902   4.996   3.691   3.294 -0.1794  0.4127 -0.7733
   40CHL1   H14 2903   5.034   3.794   3.310 -0.2263  0.4196 -0.7026
   40CHL1   C15 2904   5.107   3.594   3.329 -0.2884  0.4165  0.4360
   40CHL1  H15A 2905   5.076   3.491   3.300 -1.2008  0.4000  1.4152
   40CHL1  H15B 2906   5.208   3.617   3.288  0.5931 -0.2627  2.1176
   40CHL1   C16 2907   5.105   3.585   3.483 -0.1946  0.0788  0.6532
   40CHL1  H16A 2908   5.111   3.480   3.520  1.9162 -0.4333 -0.9309
   40CHL1  H16B 2909   5.195   3.640   3.516  0.6993  0.2493 -1.8585
   40CHL1   C17 2910   4.978   3.661   3.526  1.1424 -0.5847  0.4244
   40CHL1   H17 2911   5.003   3.766   3.550  1.1046 -0.7580  1.2748
   40CHL1   C13 2912   4.888   3.662   3.398  0.1855  0.0938  1.3551
   40CHL1   C18 2913   4.817   3.526   3.374  0.7873 -0.1447  0.3983
   40CHL1  H18A 2914   4.756   3.486   3.457  0.1276 -1.2107 -0.5720
   40CHL1  H18B 2915   4.756   3.535   3.282  0.7337 -0.1077  0.4375
   40CHL1  H18C 2916   4.891   3.445   3.359  1.1931  0.5198 -1.4993
   40CHL1   C12 2917   4.790   3.781   3.392  0.4213 -0.1053  0.1450
   40CHL1  H12A 2918   4.700   3.786   3.458 -0.6302  1.6073 -1.3115
   40CHL1  H12B 2919   4.852   3.869   3.418  0.2535  0.2543 -0.6641
   40CHL1   C11 2920   4.734   3.794   3.246  0.3287  0.1004 -0.0619
   40CHL1  H11A 2921   4.664   3.710   3.228  0.8878 -0.8383  1.8990
   40CHL1  H11B 2922   4.683   3.893   3.251 -1.0390 -0.4819 -1.3819
   40CHL1    C9 2923   4.847   3.799   3.138 -0.7141 -0.0537  0.0606
   40CHL1    H9 2924   4.906   3.887   3.171 -0.5213  0.0531 -0.5732
   40CHL1   C10 2925   4.798   3.830   2.996  0.0323  0.2711  0.2719
   40CHL1   C19 2926   4.673   3.741   2.963  0.5235  0.2898  0.4834
   40CHL1  H19A 2927   4.696   3.633   2.960  0.4454  0.2341  1.4897
   40CHL1  H19B 2928   4.581   3.766   3.020  0.6326  0.5179  0.5661
   40CHL1  H19C 2929   4.642   3.754   2.858 -1.3527 -3.3857  0.4439
   40CHL1    C1 2930   4.747   3.984   2.986 -0.9909  0.6366 -0.1512
   40CHL1   H1A 2931   4.651   4.007   3.036 -1.2228  2.3448 -1.3070
   40CHL1   H1B 2932   4.819   4.053   3.034 -0.6247 -0.1115  0.4032
   40CHL1    C2 2933   4.726   4.028   2.839  0.3177 -0.0459  0.2778
   40CHL1   H2A 2934   4.701   4.136   2.836 -1.4149 -0.4318 -1.7842
   40CHL1   H2B 2935   4.641   3.984   2.782 -0.8227  1.6884  0.5531
   40CHL1   C20 2936   4.923   3.595   3.653 -0.5108  0.7879  0.3831
   40CHL1   H20 2937   4.915   3.485   3.638  4.5778 -0.1246  2.2769
   40CHL1   C21 2938   4.795   3.674   3.695 -0.0014 -0.4062 -0.1305
   40CHL1  H21A 2939   4.771   3.654   3.802 -0.3921 -0.8438 -0.2991
   40CHL1  H21B 2940   4.705   3.658   3.632  0.1477 -2.7658  0.1705
   40CHL1  H21C 2941   4.825   3.780   3.709 -0.5711 -0.3319  0.6005
   40CHL1   C22 2942   5.030   3.606   3.767 -0.0615 -0.2695  0.2568
   40CHL1  H22A 2943   5.134   3.590   3.732  0.0342  1.1369 -0.1819
   40CHL1  H22B 2944   5.029   3.712   3.802 -0.7981 -0.0726 -0.3621
   40CHL1   C23 2945   5.005   3.514   3.883 -0.1956 -0.0949 -0.2512
   40CHL1  H23A 2946   4.898   3.522   3.909  0.3614  0.5607  2.0864
   40CHL1  H23B 2947   5.023   3.413   3.839 -1.4331 -0.5643  0.2817
   40CHL1   C24 2948   5.095   3.533   4.005 -1.1212  0.5061 -0.2164
   40CHL1  H24A 2949   5.200   3.512   3.975 -0.7646 -0.4018  1.5035
   40CHL1  H24B 2950   5.088   3.635   4.049  0.1428 -0.0717  1.4406
   40CHL1   C25 2951   5.066   3.439   4.127  0.0072 -0.9640 -0.0602
   40CHL1   H25 2952   5.145   3.440   4.204 -0.4874  2.0090  0.5461
   40CHL1   C26 2953   4.941   3.487   4.211 -0.4086  0.0399  0.8306
   40CHL1  H26A 2954   4.847   3.474   4.152 -0.5742 -0.8970  1.2854
   40CHL1  H26B 2955   4.931   3.415   4.295  1.0541 -0.2411  0.7823
   40CHL1  H26C 2956   4.956   3.589   4.253 -1.2051 -0.5113  2.5806
   40CHL1   C27 2957   5.052   3.297   4.082 -0.1054  0.0164  0.1817
   40CHL1  H27A 2958   5.069   3.224   4.164  3.3812 -0.4747 -0.8381
   40CHL1  H27B 2959   4.949   3.287   4.041  0.4044 -0.8307 -0.9378
   40CHL1  H27C 2960   5.123   3.272   4.001  0.3929  0.5675  0.4453
   41CHL1    C3 2961   0.509   0.163   2.709 -0.4828 -0.0045 -0.1820
   41CHL1    H3 2962   0.477   0.269   2.706 -0.2109  0.1311  1.0041
   41CHL1    O3 2963   0.530   0.124   2.575 -0.1410 -0.3834 -0.4015
   41CHL1   H3' 2964   0.514   0.030   2.586  0.9784 -0.3982  1.6499
   41CHL1    C4 2965   0.633   0.152   2.793 -0.1802  0.3122  0.7683
   41CHL1   H4A 2966   0.705   0.074   2.760  0.6664  2.0542 -1.7864
   41CHL1   H4B 2967   0.691   0.230   2.739 -2.2989  0.9888 -0.6447
   41CHL1    C5 2968   0.608   0.177   2.942 -0.3891 -0.0108 -1.4268
   41CHL1    C6 2969   0.691   0.257   3.007 -0.4742 -0.1545  0.0451
   41CHL1    H6 2970   0.756   0.318   2.942  1.0942 -1.4232  0.3518
   41CHL1    C7 2971   0.691   0.268   3.162 -0.0557  0.3121  0.3116
   41CHL1   H7A 2972   0.794   0.276   3.205  0.3579 -1.6657 -0.2090
   41CHL1   H7B 2973   0.631   0.357   3.189 -1.5588 -0.6518  0.2430
   41CHL1    C8 2974   0.614   0.149   3.225 -0.2077 -0.1252  0.3993
   41CHL1    H8 2975   0.678   0.059   3.216 -2.1844 -1.4646 -0.8910
   41CHL1   C14 2976   0.583   0.178   3.376  0.3524 -0.6763  0.6164
   41CHL1   H14 2977   0.522   0.271   3.377 -1.2080 -1.6482  0.0279
   41CHL1   C15 2978   0.707   0.206   3.461  0.4656 -0.0082  0.5621
   41CHL1  H15A 2979   0.794   0.142   3.439 -0.3571 -1.0819  0.3254
   41CHL1  H15B 2980   0.745   0.309   3.445 -0.6548  0.2135 -0.9503
   41CHL1   C16 2981   0.658   0.188   3.601  0.6230  0.7636  0.1979
   41CHL1  H16A 2982   0.728   0.116   3.648 -1.6987 -1.1893  0.8785
   41CHL1  H16B 2983   0.652   0.279   3.664  2.9743 -0.1648  1.9124
   41CHL1   C17 2984   0.520   0.122   3.599 -0.4026 -0.7023  0.1306
   41CHL1   H17 2985   0.446   0.204   3.614 -0.8549 -1.2993  1.3061
   41CHL1   C13 2986   0.501   0.072   3.450  0.3008 -0.2878  0.3362
   41CHL1   C18 2987   0.565  -0.064   3.436 -0.5938 -0.2061 -0.6235
   41CHL1  H18A 2988   0.669  -0.048   3.469 -0.3164  0.5161 -1.7780
   41CHL1  H18B 2989   0.506  -0.147   3.479 -0.5115 -1.0851 -2.1681
   41CHL1  H18C 2990   0.581  -0.090   3.329  1.5311  1.2223 -0.7287
   41CHL1   C12 2991   0.364   0.073   3.375  0.4067  0.5642  0.4078
   41CHL1  H12A 2992   0.296   0.001   3.425 -2.5455  2.3930 -0.6639
   41CHL1  H12B 2993   0.317   0.173   3.372  0.7411  0.7034 -1.1631
   41CHL1   C11 2994   0.387   0.028   3.222 -0.0080 -0.5149 -0.0886
   41CHL1  H11A 2995   0.418  -0.078   3.216 -1.9478 -1.1417  0.3276
   41CHL1  H11B 2996   0.282   0.037   3.185 -0.5577 -2.5398  0.8367
   41CHL1    C9 2997   0.488   0.119   3.152  0.5725  0.3991 -0.5453
   41CHL1    H9 2998   0.432   0.215   3.149  1.1086  0.7475  0.3958
   41CHL1   C10 2999   0.506   0.085   3.006 -0.1416 -0.8125 -0.0629
   41CHL1   C19 3000   0.541  -0.063   2.998 -0.0515 -0.2551  0.3299
   41CHL1  H19A 3001   0.606  -0.108   3.077 -1.9795  0.0210  2.1789
   41CHL1  H19B 3002   0.447  -0.121   3.002 -0.3885  0.2774  0.2106
   41CHL1  H19C 3003   0.596  -0.077   2.903  0.0187 -1.7053  0.5594
   41CHL1    C1 3004   0.383   0.127   2.919  0.3179 -0.4630 -0.1376
   41CHL1   H1A 3005   0.292   0.105   2.979  0.7211  0.5265  0.8765
   41CHL1   H1B 3006   0.370   0.237   2.916  1.9482 -0.2098  0.6898
   41CHL1    C2 3007   0.393   0.084   2.771  0.2610 -0.4098 -0.2217
   41CHL1   H2A 3008   0.296   0.088   2.718 -0.2338 -2.0344  0.4787
   41CHL1   H2B 3009   0.423  -0.024   2.771 -0.4350 -0.6325  1.1390
   41CHL1   C20 3010   0.488   0.036   3.722  0.0946  0.1558 -0.0126
   41CHL1   H20 3011   0.555  -0.053   3.730  1.4107  1.0799 -0.3541
   41CHL1   C21 3012   0.347  -0.011   3.701 -0.1075  0.0010  0.3036
   41CHL1  H21A 3013   0.321  -0.058   3.604 -2.1566  2.1297 -0.2856
   41CHL1  H21B 3014   0.285   0.081   3.711 -0.1713  0.0632 -0.6031
   41CHL1  H21C 3015   0.312  -0.078   3.782  1.5216  0.8406  1.7812
   41CHL1   C22 3016   0.505   0.100   3.859  0.4896 -0.9456  0.0696
   41CHL1  H22A 3017   0.615   0.106   3.877  0.7170 -1.8297 -0.9136
   41CHL1  H22B 3018   0.471   0.206   3.864  1.1545 -0.6225 -1.5135
   41CHL1   C23 3019   0.442   0.029   3.978 -0.0030  0.0046  0.1941
   41CHL1  H23A 3020   0.332   0.039   3.973  0.0682  1.9147  1.4123
   41CHL1  H23B 3021   0.471  -0.079   3.974  2.0685  0.4396  1.9278
   41CHL1   C24 3022   0.476   0.092   4.110  0.7905  0.4995 -0.4928
   41CHL1  H24A 3023   0.585   0.082   4.127  0.3825  0.2075  2.5907
   41CHL1  H24B 3024   0.473   0.203   4.115  1.6607  0.5112 -0.0933
   41CHL1   C25 3025   0.405   0.039   4.234 -0.0627 -0.2049 -0.1814
   41CHL1   H25 3026   0.411  -0.072   4.226 -0.6464 -0.3405  0.9720
   41CHL1   C26 3027   0.462   0.077   4.371  0.1297  0.2134 -0.2735
   41CHL1  H26A 3028   0.480   0.185   4.390  0.2138 -0.0763  1.4868
   41CHL1  H26B 3029   0.397   0.033   4.449 -1.7527 -2.3295 -3.0362
   41CHL1  H26C 3030   0.562   0.030   4.383  0.1136  0.1366 -0.4351
   41CHL1   C27 3031   0.259   0.078   4.241 -0.1019  0.1801 -0.1711
   41CHL1  H27A 3032   0.220   0.009   4.318  0.6424 -0.3589 -0.2672
   41CHL1  H27B 3033   0.234   0.182   4.270 -1.1615 -0.1319  0.1105
   41CHL1  H27C 3034   0.206   0.048   4.147 -0.9117  1.3366 -0.1086
   42CHL1    C3 3035   2.636   5.717   2.614 -0.0538 -0.0798  0.0688
   42CHL1    H3 3036   2.681   5.818   2.619  1.2766 -0.6808  0.7506
   42CHL1    O3 3037   2.619   5.668   2.482  0.2851  0.2341 -0.4601
   42CHL1   H3' 3038   2.534   5.626   2.495 -0.3277  1.8102  1.0824
   42CHL1    C4 3039   2.744   5.624   2.682  0.5836  0.2248  0.3325
   42CHL1   H4A 3040   2.702   5.524   2.655  0.3927 -0.3957  2.6994
   42CHL1   H4B 3041   2.844   5.633   2.635  2.0283  0.2318  3.1990
   42CHL1    C5 3042   2.753   5.629   2.833 -0.2766  0.7479  1.0417
   42CHL1    C6 3043   2.870   5.653   2.897 -0.1921 -0.8512  0.0986
   42CHL1    H6 3044   2.960   5.673   2.837  0.6573  1.7423  2.0295
   42CHL1    C7 3045   2.887   5.693   3.043  0.7590 -0.1832 -0.4393
   42CHL1   H7A 3046   2.985   5.655   3.080  0.3408 -1.3940 -0.5191
   42CHL1   H7B 3047   2.883   5.801   3.065 -0.0017 -0.1384 -0.7623
   42CHL1    C8 3048   2.770   5.641   3.125  0.2110  0.3096 -0.5371
   42CHL1    H8 3049   2.784   5.532   3.136 -1.4420  0.0349 -0.8579
   42CHL1   C14 3050   2.782   5.707   3.264  0.3719  0.2017 -0.1330
   42CHL1   H14 3051   2.776   5.817   3.251  1.0323  0.1436 -1.0526
   42CHL1   C15 3052   2.912   5.691   3.342  0.2771  0.7062  0.2877
   42CHL1  H15A 3053   2.962   5.593   3.332  0.4112  0.6924  1.0602
   42CHL1  H15B 3054   2.979   5.775   3.313  0.0485  1.1030  0.8837
   42CHL1   C16 3055   2.875   5.706   3.494 -0.4709 -0.1349  0.0481
   42CHL1  H16A 3056   2.913   5.610   3.535  2.8720  0.6909 -0.8057
   42CHL1  H16B 3057   2.925   5.788   3.551  2.4141 -2.2109  0.7720
   42CHL1   C17 3058   2.721   5.733   3.493  0.1105  0.3739  0.1119
   42CHL1   H17 3059   2.711   5.842   3.475 -1.4137  0.0878 -0.9596
   42CHL1   C13 3060   2.668   5.667   3.352  0.0251  0.5106 -0.5443
   42CHL1   C18 3061   2.665   5.508   3.370  0.1373 -0.1985 -0.6344
   42CHL1  H18A 3062   2.623   5.452   3.284 -1.9457 -0.0056  0.1878
   42CHL1  H18B 3063   2.763   5.469   3.405 -0.5877  0.0277  1.8188
   42CHL1  H18C 3064   2.595   5.493   3.455 -0.3894 -0.1502 -1.0549
   42CHL1   C12 3065   2.542   5.731   3.297  0.1208 -0.2987 -0.4863
   42CHL1  H12A 3066   2.454   5.709   3.361  1.0949 -0.7141  0.7610
   42CHL1  H12B 3067   2.536   5.842   3.291 -3.5983 -0.2584  1.4208
   42CHL1   C11 3068   2.520   5.674   3.156  0.1106 -0.6068 -0.1247
   42CHL1  H11A 3069   2.482   5.570   3.171  0.1500 -0.9765 -2.2524
   42CHL1  H11B 3070   2.432   5.732   3.122 -0.8581 -2.4530 -0.9365
   42CHL1    C9 3071   2.641   5.693   3.065  0.1704  0.2937  0.3286
   42CHL1    H9 3072   2.662   5.800   3.046  1.0344 -0.0319 -0.6689
   42CHL1   C10 3073   2.620   5.636   2.916  0.1713  0.2892 -0.8511
   42CHL1   C19 3074   2.562   5.497   2.922  0.3311 -0.6490 -0.2338
   42CHL1  H19A 3075   2.468   5.480   2.979 -0.1365  2.3363  0.0134
   42CHL1  H19B 3076   2.542   5.450   2.824  1.1070  0.0988 -0.7630
   42CHL1  H19C 3077   2.640   5.439   2.977  1.2141 -0.6228 -1.4299
   42CHL1    C1 3078   2.529   5.737   2.838  0.0566 -0.4002  0.1175
   42CHL1   H1A 3079   2.428   5.725   2.881  0.2477  0.0590  0.6997
   42CHL1   H1B 3080   2.574   5.838   2.852  1.1484 -0.1971 -3.6280
   42CHL1    C2 3081   2.507   5.706   2.693 -0.0237 -0.1522  0.5302
   42CHL1   H2A 3082   2.440   5.788   2.661  0.5781  0.2455  0.2735
   42CHL1   H2B 3083   2.467   5.603   2.679  1.4252 -0.8641  1.3190
   42CHL1   C20 3084   2.662   5.694   3.631 -0.5118  0.3090  0.5330
   42CHL1   H20 3085   2.681   5.587   3.650  2.4073 -0.0351 -3.1396
   42CHL1   C21 3086   2.514   5.724   3.629  0.0365 -0.1088  0.2803
   42CHL1  H21A 3087   2.470   5.703   3.728 -1.6293 -1.7016 -0.7452
   42CHL1  H21B 3088   2.465   5.655   3.557 -2.3352  0.0428  1.6740
   42CHL1  H21C 3089   2.504   5.832   3.603 -0.1855  0.4426  2.5003
   42CHL1   C22 3090   2.725   5.755   3.749  0.0519 -0.3520 -0.0823
   42CHL1  H22A 3091   2.836   5.747   3.741  0.0923 -1.2306  1.0731
   42CHL1  H22B 3092   2.701   5.863   3.744 -0.0977 -0.3157  1.1924
   42CHL1   C23 3093   2.686   5.697   3.888  0.3121 -0.1111  0.1959
   42CHL1  H23A 3094   2.577   5.711   3.908  0.8612  2.3590  2.0358
   42CHL1  H23B 3095   2.698   5.587   3.879  0.4686 -0.3177  2.3302
   42CHL1   C24 3096   2.767   5.769   3.995 -0.1366 -0.2680  0.0385
   42CHL1  H24A 3097   2.875   5.762   3.970  0.0322 -0.8545  0.8569
   42CHL1  H24B 3098   2.734   5.874   3.994 -2.3785 -0.9202 -1.7782
   42CHL1   C25 3099   2.740   5.710   4.135 -0.4419  0.1833 -0.5082
   42CHL1   H25 3100   2.724   5.600   4.131 -0.4432 -0.0415  2.8234
   42CHL1   C26 3101   2.867   5.738   4.211  0.1555  0.1537 -0.0812
   42CHL1  H26A 3102   2.876   5.716   4.320 -1.2681  0.6031  0.1432
   42CHL1  H26B 3103   2.955   5.684   4.170  1.2048  1.6570  0.1171
   42CHL1  H26C 3104   2.879   5.848   4.201 -0.8475  0.1711 -1.3858
   42CHL1   C27 3105   2.618   5.769   4.200  0.4770  0.2298 -0.4561
   42CHL1  H27A 3106   2.543   5.767   4.119 -0.6923  0.8220  0.5728
   42CHL1  H27B 3107   2.573   5.704   4.278 -1.2401 -0.2787 -1.8100
   42CHL1  H27C 3108   2.628   5.874   4.237 -0.0871  0.0004  0.3707
   43CHL1    C3 3109   5.788   4.191   2.820 -0.1719  0.6337  0.0242
   43CHL1    H3 3110   5.701   4.124   2.805 -0.7979  1.2363  0.8737
   43CHL1    O3 3111   5.860   4.198   2.696  0.6227 -0.2730 -0.0591
   43CHL1   H3' 3112   5.943   4.245   2.707  0.1865  0.2878  0.9184
   43CHL1    C4 3113   5.731   4.325   2.855  0.0735 -0.4428 -0.9437
   43CHL1   H4A 3114   5.805   4.407   2.848 -0.0283 -0.3340 -0.7295
   43CHL1   H4B 3115   5.656   4.363   2.783 -1.0380  0.6947  0.7542
   43CHL1    C5 3116   5.661   4.328   2.988 -0.4603 -0.7856  0.0938
   43CHL1    C6 3117   5.536   4.359   3.007 -0.5944 -0.2468 -0.4438
   43CHL1    H6 3118   5.482   4.398   2.920  0.8159 -0.1483 -1.3089
   43CHL1    C7 3119   5.476   4.381   3.142  0.4227  0.7939 -0.0815
   43CHL1   H7A 3120   5.407   4.467   3.146 -1.8307 -0.9173 -0.0234
   43CHL1   H7B 3121   5.412   4.292   3.161  2.1205 -0.0435  2.1130
   43CHL1    C8 3122   5.582   4.383   3.258 -0.0631  0.1772 -0.1330
   43CHL1    H8 3123   5.613   4.490   3.254 -3.1688  1.1446 -1.9467
   43CHL1   C14 3124   5.518   4.352   3.396 -0.1596 -0.0082  0.5015
   43CHL1   H14 3125   5.485   4.247   3.380  1.4891 -1.1174  3.5083
   43CHL1   C15 3126   5.388   4.436   3.419 -0.1191  0.1472 -0.4895
   43CHL1  H15A 3127   5.409   4.544   3.399  1.2015  0.1511  0.7494
   43CHL1  H15B 3128   5.311   4.404   3.346 -0.1090 -2.8503  0.6737
   43CHL1   C16 3129   5.367   4.406   3.566  0.4235 -0.1068  0.2144
   43CHL1  H16A 3130   5.348   4.505   3.613  2.7333 -0.5956  2.4233
   43CHL1  H16B 3131   5.278   4.343   3.584  1.4041 -1.0934  1.8989
   43CHL1   C17 3132   5.502   4.334   3.625 -0.1843  0.0040  0.1678
   43CHL1   H17 3133   5.479   4.225   3.632 -0.7572  0.2142  1.7869
   43CHL1   C13 3134   5.605   4.354   3.516 -0.4710 -0.5600 -0.2765
   43CHL1   C18 3135   5.680   4.496   3.515  0.0089  0.3096  0.9687
   43CHL1  H18A 3136   5.595   4.568   3.526 -0.5899 -0.5101  1.8690
   43CHL1  H18B 3137   5.751   4.503   3.600  1.5812 -1.5124 -0.1406
   43CHL1  H18C 3138   5.733   4.526   3.423  0.2924 -2.1254  0.2769
   43CHL1   C12 3139   5.703   4.247   3.501  0.7876  0.0395  0.2870
   43CHL1  H12A 3140   5.787   4.259   3.572  0.8333 -1.3263  0.5021
   43CHL1  H12B 3141   5.667   4.142   3.505 -0.2755  0.3264 -0.9208
   43CHL1   C11 3142   5.775   4.251   3.363 -0.6928  0.4277  0.3534
   43CHL1  H11A 3143   5.860   4.323   3.365 -0.2284  0.1929 -3.5958
   43CHL1  H11B 3144   5.826   4.153   3.354 -1.7143 -0.1129  0.3126
   43CHL1    C9 3145   5.690   4.275   3.233  0.4680  0.7862 -0.9627
   43CHL1    H9 3146   5.629   4.185   3.213  2.4097  0.0994 -4.9951
   43CHL1   C10 3147   5.766   4.287   3.105  1.0574 -0.1193 -0.1462
   43CHL1   C19 3148   5.862   4.399   3.113 -0.1469 -0.6152  0.5100
   43CHL1  H19A 3149   5.807   4.494   3.130  1.1431 -0.0920  1.9160
   43CHL1  H19B 3150   5.938   4.385   3.193  1.5984 -0.5188 -1.0530
   43CHL1  H19C 3151   5.918   4.410   3.018  0.8883 -0.2006  1.1519
   43CHL1    C1 3152   5.841   4.161   3.074  0.1164  0.1634 -0.3646
   43CHL1   H1A 3153   5.925   4.147   3.146 -0.0177  0.8794 -0.0616
   43CHL1   H1B 3154   5.781   4.069   3.092 -2.9935  2.5860  2.9849
   43CHL1    C2 3155   5.895   4.154   2.930  0.1385  0.4756 -0.1808
   43CHL1   H2A 3156   5.948   4.062   2.896 -0.3667 -0.0382  0.3886
   43CHL1   H2B 3157   5.976   4.230   2.920 -1.1039  1.7187 -1.1702
   43CHL1   C20 3158   5.526   4.378   3.776  0.5290  0.2326 -0.6268
   43CHL1   H20 3159   5.558   4.485   3.769  1.6314 -0.0816 -0.6151
   43CHL1   C21 3160   5.648   4.308   3.837 -0.1919 -0.1484 -0.1985
   43CHL1  H21A 3161   5.661   4.347   3.941 -1.0636 -0.2581 -0.0355
   43CHL1  H21B 3162   5.737   4.330   3.775 -2.0745  1.4297 -2.4710
   43CHL1  H21C 3163   5.632   4.198   3.849  2.1671 -0.6093 -0.8038
   43CHL1   C22 3164   5.406   4.353   3.867  0.7850 -0.4992  0.0494
   43CHL1  H22A 3165   5.326   4.411   3.817 -0.2190 -2.1892 -0.3854
   43CHL1  H22B 3166   5.368   4.249   3.873 -0.4493 -0.3377 -3.0093
   43CHL1   C23 3167   5.412   4.415   4.008  0.3437 -0.2732  0.2485
   43CHL1  H23A 3168   5.501   4.397   4.071  1.4910  1.9303 -0.6676
   43CHL1  H23B 3169   5.398   4.524   3.997 -0.9545 -0.6408 -2.5289
   43CHL1   C24 3170   5.292   4.348   4.090 -0.1645 -0.8865  0.0766
   43CHL1  H24A 3171   5.196   4.366   4.036  0.4810 -0.7390 -1.0664
   43CHL1  H24B 3172   5.313   4.239   4.100  2.0277 -0.4759  0.5246
   43CHL1   C25 3173   5.289   4.412   4.232 -0.3391  0.3265  0.1564
   43CHL1   H25 3174   5.397   4.423   4.259  0.0806  1.7758 -1.8447
   43CHL1   C26 3175   5.218   4.542   4.222 -0.7228 -0.8292 -0.3888
   43CHL1  H26A 3176   5.277   4.614   4.161 -0.3591 -0.2543  0.6172
   43CHL1  H26B 3177   5.110   4.544   4.194 -1.1784  4.3080  0.6135
   43CHL1  H26C 3178   5.228   4.584   4.324  0.2719  0.6206 -1.0446
   43CHL1   C27 3179   5.218   4.316   4.326  0.1488 -0.9799 -0.4243
   43CHL1  H27A 3180   5.260   4.213   4.322 -0.7273 -1.3564 -0.1460
   43CHL1  H27B 3181   5.212   4.361   4.428  0.8645 -1.6486 -0.0723
   43CHL1  H27C 3182   5.113   4.301   4.293 -0.1829 -0.5790  0.4247
   44CHL1    C3 3183   3.361   6.232   2.991  1.1279 -0.2359 -0.0658
   44CHL1    H3 3184   3.352   6.122   2.998 -0.0028 -0.1522  0.0981
   44CHL1    O3 3185   3.351   6.261   2.857  0.3208  0.0006  0.5235
   44CHL1   H3' 3186   3.438   6.298   2.838  0.6184 -0.6856  0.5142
   44CHL1    C4 3187   3.236   6.294   3.063  0.1161  0.9367  0.1682
   44CHL1   H4A 3188   3.240   6.405   3.059 -1.0174  0.9855 -3.6217
   44CHL1   H4B 3189   3.145   6.260   3.009  0.0501  1.4001 -0.0157
   44CHL1    C5 3190   3.242   6.253   3.205  0.0077 -0.1244  0.0695
   44CHL1    C6 3191   3.141   6.198   3.272  0.0880  1.4258  0.1239
   44CHL1    H6 3192   3.053   6.170   3.213 -0.1996 -0.0165  1.1599
   44CHL1    C7 3193   3.129   6.189   3.422 -0.2432  0.1114  0.4925
   44CHL1   H7A 3194   3.028   6.220   3.455  0.1748  1.5467  0.4822
   44CHL1   H7B 3195   3.143   6.079   3.434  1.9886 -0.3727 -4.3173
   44CHL1    C8 3196   3.248   6.256   3.498 -0.2011 -0.9397 -0.3137
   44CHL1    H8 3197   3.219   6.363   3.509  3.3434  0.0556  0.5099
   44CHL1   C14 3198   3.253   6.205   3.639  0.2625 -0.0862 -0.5603
   44CHL1   H14 3199   3.274   6.096   3.631 -1.1051 -0.2264 -3.7103
   44CHL1   C15 3200   3.126   6.231   3.722  0.1930  0.4261  0.6848
   44CHL1  H15A 3201   3.089   6.334   3.706  2.0767  0.7967 -1.8321
   44CHL1  H15B 3202   3.038   6.164   3.708 -0.6582  1.0755  2.6330
   44CHL1   C16 3203   3.176   6.211   3.865 -0.0187 -0.1422  0.0801
   44CHL1  H16A 3204   3.141   6.297   3.926 -0.2131 -2.6428  3.8211
   44CHL1  H16B 3205   3.149   6.115   3.914  1.4110  0.3373  1.9060
   44CHL1   C17 3206   3.334   6.205   3.862  0.1715 -0.0907 -0.3192
   44CHL1   H17 3207   3.354   6.096   3.859  0.9232  0.0663 -1.4904
   44CHL1   C13 3208   3.363   6.271   3.720  0.4832  0.3622  0.0736
   44CHL1   C18 3209   3.355   6.421   3.733  0.8875 -0.1468  0.0790
   44CHL1  H18A 3210   3.265   6.445   3.794  0.4605 -0.5143 -0.4007
   44CHL1  H18B 3211   3.444   6.461   3.787 -0.7670  2.9648  0.7482
   44CHL1  H18C 3212   3.344   6.480   3.640  1.0004  1.8057  1.2495
   44CHL1   C12 3213   3.501   6.228   3.657 -0.0200 -0.5687 -0.7068
   44CHL1  H12A 3214   3.590   6.262   3.714  0.5806 -2.1807 -0.6333
   44CHL1  H12B 3215   3.514   6.118   3.652  2.5169 -0.4559  1.1130
   44CHL1   C11 3216   3.512   6.277   3.510  0.1699 -0.8003 -0.3349
   44CHL1  H11A 3217   3.519   6.387   3.510  0.4476 -0.8165  0.0634
   44CHL1  H11B 3218   3.601   6.229   3.464 -1.3760 -1.6820 -2.6300
   44CHL1    C9 3219   3.387   6.240   3.429  0.0700  0.1696  0.2585
   44CHL1    H9 3220   3.391   6.130   3.414 -1.6617  0.2072 -0.7440
   44CHL1   C10 3221   3.378   6.300   3.280 -0.4722  0.1935  0.1982
   44CHL1   C19 3222   3.390   6.453   3.281  0.1476 -0.1467  0.2025
   44CHL1  H19A 3223   3.487   6.481   3.329 -0.1419  4.7424 -1.5087
   44CHL1  H19B 3224   3.390   6.489   3.176  0.4346 -1.0282 -0.1110
   44CHL1  H19C 3225   3.309   6.496   3.344  1.1842  0.7201  0.9837
   44CHL1    C1 3226   3.498   6.247   3.192 -0.4906  0.5108  0.0950
   44CHL1   H1A 3227   3.598   6.286   3.220  0.7609 -0.8040 -2.3112
   44CHL1   H1B 3228   3.511   6.137   3.195 -3.3168  0.0744 -0.6063
   44CHL1    C2 3229   3.490   6.287   3.044  0.3809 -0.0430  0.3023
   44CHL1   H2A 3230   3.568   6.230   2.989 -0.3173 -0.2181 -0.5281
   44CHL1   H2B 3231   3.507   6.393   3.018  1.9556 -0.7264 -1.6665
   44CHL1   C20 3232   3.405   6.254   3.985 -0.1637 -0.1271 -0.0189
   44CHL1   H20 3233   3.413   6.365   3.989 -0.0750  0.0419 -3.1416
   44CHL1   C21 3234   3.549   6.186   3.977  0.0737 -0.5138 -0.7328
   44CHL1  H21A 3235   3.625   6.258   3.940 -0.9707  1.4885  0.7932
   44CHL1  H21B 3236   3.554   6.093   3.917  0.0221 -2.3953  1.9610
   44CHL1  H21C 3237   3.581   6.170   4.082 -0.3045  0.9831 -0.3637
   44CHL1   C22 3238   3.334   6.213   4.125  0.3059 -0.4838  1.3896
   44CHL1  H22A 3239   3.395   6.258   4.207 -0.1969  0.6875  1.1435
   44CHL1  H22B 3240   3.233   6.257   4.135  1.2769  1.9587  1.3231
   44CHL1   C23 3241   3.313   6.066   4.162  0.2710 -0.2622  0.9934
   44CHL1  H23A 3242   3.244   6.013   4.093  1.2762 -0.1649 -0.1317
   44CHL1  H23B 3243   3.409   6.010   4.154 -0.3372 -1.2241  0.1395
   44CHL1   C24 3244   3.253   6.064   4.298  0.2225  0.5212  0.4661
   44CHL1  H24A 3245   3.302   6.134   4.370 -0.4084  0.5697  0.8507
   44CHL1  H24B 3246   3.147   6.094   4.292 -0.7967 -2.5392  1.3414
   44CHL1   C25 3247   3.250   5.923   4.363  0.7000  0.1884 -0.6153
   44CHL1   H25 3248   3.189   5.858   4.296  0.1356  1.5827 -1.4920
   44CHL1   C26 3249   3.381   5.857   4.353 -0.0441  0.4695 -0.2469
   44CHL1  H26A 3250   3.463   5.918   4.396 -2.1293  1.7680  2.1703
   44CHL1  H26B 3251   3.388   5.762   4.409  0.7251  1.3439  1.1854
   44CHL1  H26C 3252   3.400   5.811   4.253  1.8233 -1.2744  0.8446
   44CHL1   C27 3253   3.199   5.926   4.506  0.0886 -0.0596 -0.6139
   44CHL1  H27A 3254   3.091   5.952   4.510 -0.4650 -2.2890  1.3971
   44CHL1  H27B 3255   3.203   5.823   4.546  2.5697  0.1927 -0.0814
   44CHL1  H27C 3256   3.260   5.995   4.569  0.9477 -0.6085 -0.8299
   45CHL1    C3 3257   4.601   6.178   3.361 -0.7645 -0.3722  0.4751
   45CHL1    H3 3258   4.531   6.095   3.382  0.3566 -1.0873  1.5635
   45CHL1    O3 3259   4.615   6.178   3.212  0.2047  0.2792  0.0689
   45CHL1   H3' 3260   4.681   6.247   3.198 -0.1157  0.6244  0.2208
   45CHL1    C4 3261   4.567   6.318   3.404  0.4697 -0.1835 -0.1947
   45CHL1   H4A 3262   4.635   6.392   3.357  0.2518  1.0887  1.4118
   45CHL1   H4B 3263   4.468   6.347   3.364  0.5761  1.3965  0.6206
   45CHL1    C5 3264   4.570   6.338   3.550  0.5691  0.5046  0.1262
   45CHL1    C6 3265   4.460   6.374   3.609  0.5183  0.2907 -0.5294
   45CHL1    H6 3266   4.374   6.393   3.544  0.6483 -1.1974 -1.1607
   45CHL1    C7 3267   4.447   6.418   3.752  0.4347  0.2963  0.3419
   45CHL1   H7A 3268   4.405   6.519   3.767 -0.8030  0.4257 -3.0836
   45CHL1   H7B 3269   4.372   6.351   3.800 -0.5974  0.2098 -1.2876
   45CHL1    C8 3270   4.584   6.412   3.831 -0.8124 -0.2412  0.2788
   45CHL1    H8 3271   4.643   6.506   3.825 -2.3079  0.6514 -1.2393
   45CHL1   C14 3272   4.547   6.394   3.977 -0.1328 -0.3615  0.5447
   45CHL1   H14 3273   4.507   6.291   3.989 -1.9161  0.1435 -0.7629
   45CHL1   C15 3274   4.449   6.498   4.032 -0.2233 -0.0149  0.5385
   45CHL1  H15A 3275   4.478   6.601   4.005 -0.3573  0.5758  2.4813
   45CHL1  H15B 3276   4.340   6.488   4.010 -0.7327  1.7788  2.0288
   45CHL1   C16 3277   4.474   6.496   4.185  0.2945 -0.1173 -0.5043
   45CHL1  H16A 3278   4.496   6.593   4.235 -0.5379 -0.7200  1.0935
   45CHL1  H16B 3279   4.380   6.460   4.231  0.0620 -0.0166 -0.8915
   45CHL1   C17 3280   4.588   6.391   4.212 -1.2025  0.5992  0.3439
   45CHL1   H17 3281   4.543   6.290   4.222  0.0529 -0.0986 -0.7099
   45CHL1   C13 3282   4.668   6.393   4.079  0.5121 -0.7649 -0.1570
   45CHL1   C18 3283   4.745   6.529   4.072 -0.4792 -0.3561 -0.6710
   45CHL1  H18A 3284   4.783   6.545   3.968  0.5832 -1.4160 -0.4624
   45CHL1  H18B 3285   4.688   6.618   4.107  0.5747  0.1257 -0.1216
   45CHL1  H18C 3286   4.840   6.528   4.130 -0.5338  1.1311 -0.5180
   45CHL1   C12 3287   4.760   6.278   4.028  0.7016  0.4986 -0.5837
   45CHL1  H12A 3288   4.855   6.286   4.086  0.8998  0.4974 -0.9045
   45CHL1  H12B 3289   4.710   6.185   4.063 -1.1678  1.6276 -0.1421
   45CHL1   C11 3290   4.798   6.276   3.872  0.2292  0.4008  0.0976
   45CHL1  H11A 3291   4.861   6.366   3.857  1.2032  0.1107  2.1265
   45CHL1  H11B 3292   4.848   6.185   3.833  0.8040  0.0118  1.6564
   45CHL1    C9 3293   4.674   6.298   3.784  0.5394  0.2606  0.2098
   45CHL1    H9 3294   4.621   6.202   3.801 -1.1485  0.8967 -1.1787
   45CHL1   C10 3295   4.695   6.298   3.628 -0.1064 -0.1614  0.3581
   45CHL1   C19 3296   4.813   6.391   3.592 -0.0380 -0.3132 -0.5829
   45CHL1  H19A 3297   4.906   6.353   3.640 -0.8995  0.2327  1.6850
   45CHL1  H19B 3298   4.823   6.407   3.483 -0.5590 -0.4403 -0.6537
   45CHL1  H19C 3299   4.793   6.490   3.638 -1.2288 -0.7184 -0.1957
   45CHL1    C1 3300   4.751   6.154   3.580 -0.2722  0.5477  0.0188
   45CHL1   H1A 3301   4.853   6.133   3.617 -0.3496 -2.3118 -1.1230
   45CHL1   H1B 3302   4.694   6.064   3.613  1.5453 -1.1422 -1.2466
   45CHL1    C2 3303   4.739   6.129   3.427  0.3562  0.4151  0.7483
   45CHL1   H2A 3304   4.770   6.024   3.407 -0.0729  0.4611 -0.1874
   45CHL1   H2B 3305   4.824   6.182   3.381  0.2980  0.4725  0.7073
   45CHL1   C20 3306   4.663   6.409   4.349 -0.1840  0.3387  0.7690
   45CHL1   H20 3307   4.725   6.501   4.339 -0.3159  0.3949  0.4728
   45CHL1   C21 3308   4.767   6.306   4.382  0.4490  0.0020  0.1492
   45CHL1  H21A 3309   4.724   6.204   4.389  0.5203 -0.1687 -1.5584
   45CHL1  H21B 3310   4.823   6.330   4.475  1.4169  1.9670 -0.8780
   45CHL1  H21C 3311   4.842   6.291   4.302  0.7687  0.4663  0.3569
   45CHL1   C22 3312   4.560   6.404   4.459  0.0701 -0.1832  0.8249
   45CHL1  H22A 3313   4.602   6.438   4.556  0.9938  3.8363 -0.7831
   45CHL1  H22B 3314   4.477   6.475   4.439 -0.7463 -0.5365  2.6795
   45CHL1   C23 3315   4.494   6.271   4.484 -0.2856 -0.6796 -0.7863
   45CHL1  H23A 3316   4.455   6.217   4.395 -2.2605 -0.9554  0.2072
   45CHL1  H23B 3317   4.575   6.207   4.526  1.1618  2.2339  1.1710
   45CHL1   C24 3318   4.377   6.275   4.582 -0.4487  0.8588 -0.2307
   45CHL1  H24A 3319   4.413   6.328   4.672  0.6177  1.5657 -1.0460
   45CHL1  H24B 3320   4.290   6.327   4.536  1.0706  1.5705 -2.4544
   45CHL1   C25 3321   4.311   6.137   4.620 -0.0560 -0.4999 -0.2913
   45CHL1   H25 3322   4.388   6.069   4.661 -0.3241  1.4773  4.0135
   45CHL1   C26 3323   4.218   6.156   4.743 -0.0978  0.0458 -0.7130
   45CHL1  H26A 3324   4.282   6.205   4.819 -1.0796 -1.3139  1.0741
   45CHL1  H26B 3325   4.139   6.230   4.720  2.3794  3.0003 -0.4414
   45CHL1  H26C 3326   4.176   6.060   4.779 -0.3096  0.0029 -1.0645
   45CHL1   C27 3327   4.233   6.064   4.503 -0.3084 -0.1555 -0.2386
   45CHL1  H27A 3328   4.167   6.146   4.468 -0.5102  0.8043  2.2422
   45CHL1  H27B 3329   4.315   6.043   4.430 -0.6645 -1.3036 -0.3375
   45CHL1  H27C 3330   4.182   5.970   4.534  1.0981 -0.3241  1.7404
   46CHL1    C3 3331   6.665   0.341   2.674  0.2476  0.6086 -0.3693
   46CHL1    H3 3332   6.775   0.320   2.676  0.1765  0.2831  0.2370
   46CHL1    O3 3333   6.615   0.328   2.540  0.5184  0.3765 -0.3405
   46CHL1   H3' 3334   6.521   0.343   2.545  0.1125 -1.5149 -1.3856
   46CHL1    C4 3335   6.602   0.229   2.759 -0.2445  0.5434 -0.0929
   46CHL1   H4A 3336   6.492   0.230   2.742 -0.6509  0.5148  2.1605
   46CHL1   H4B 3337   6.640   0.131   2.723 -2.8611 -0.7742  0.4437
   46CHL1    C5 3338   6.626   0.253   2.906  0.1690 -0.0509  0.3793
   46CHL1    C6 3339   6.685   0.155   2.970 -1.1128 -0.1716  0.2942
   46CHL1    H6 3340   6.713   0.069   2.907  1.5975  0.8843 -0.0824
   46CHL1    C7 3341   6.710   0.148   3.116  0.1072  0.2651  0.7879
   46CHL1   H7A 3342   6.681   0.054   3.166 -0.4621  0.2262  0.3945
   46CHL1   H7B 3343   6.821   0.155   3.122  0.5632  0.1774 -3.8221
   46CHL1    C8 3344   6.638   0.271   3.191  0.6295  0.5417 -0.0372
   46CHL1    H8 3345   6.528   0.255   3.183  0.7436  0.6873 -3.0599
   46CHL1   C14 3346   6.696   0.286   3.328 -0.4536 -0.2161  0.0181
   46CHL1   H14 3347   6.802   0.316   3.314 -0.1390 -1.4609 -0.3060
   46CHL1   C15 3348   6.718   0.166   3.422  0.2496 -0.1649 -0.0759
   46CHL1  H15A 3349   6.635   0.094   3.405  0.9038 -0.8292 -0.5384
   46CHL1  H15B 3350   6.814   0.115   3.400 -0.3729 -0.3979 -2.5202
   46CHL1   C16 3351   6.723   0.227   3.563  0.2343  0.0238  0.1613
   46CHL1  H16A 3352   6.639   0.186   3.623  0.2861 -1.4478 -0.7124
   46CHL1  H16B 3353   6.812   0.209   3.628  1.1247 -0.2681 -1.1018
   46CHL1   C17 3354   6.704   0.386   3.544 -0.3643 -0.1954 -0.1514
   46CHL1   H17 3355   6.805   0.431   3.531 -1.0804  0.8743 -2.5531
   46CHL1   C13 3356   6.633   0.404   3.404  0.1302  0.1405 -0.1683
   46CHL1   C18 3357   6.485   0.378   3.429 -0.5239 -0.7795 -0.0335
   46CHL1  H18A 3358   6.445   0.470   3.476  0.3482  0.6004 -1.8695
   46CHL1  H18B 3359   6.435   0.365   3.331  0.6909 -2.3616 -0.4978
   46CHL1  H18C 3360   6.454   0.289   3.489 -3.6263  0.0442 -0.2549
   46CHL1   C12 3361   6.656   0.534   3.333  0.2567 -0.1608  0.2847
   46CHL1  H12A 3362   6.608   0.615   3.392  3.0262  1.1569  0.9029
   46CHL1  H12B 3363   6.762   0.567   3.336  0.1551  0.5919 -2.3146
   46CHL1   C11 3364   6.607   0.532   3.182  0.0820 -0.6149  0.1938
   46CHL1  H11A 3365   6.496   0.531   3.190  0.1104 -1.6740  0.5743
   46CHL1  H11B 3366   6.647   0.622   3.130  0.4800 -0.9125 -0.0140
   46CHL1    C9 3367   6.653   0.406   3.105  0.5077  0.1100 -0.3765
   46CHL1    H9 3368   6.763   0.422   3.107  0.1937  2.5411  0.6254
   46CHL1   C10 3369   6.590   0.392   2.963  0.3318  0.2615 -0.1242
   46CHL1   C19 3370   6.436   0.410   2.957  0.5985  0.2950 -0.6150
   46CHL1  H19A 3371   6.416   0.512   2.996  1.1003 -0.0144  0.5174
   46CHL1  H19B 3372   6.395   0.393   2.855 -1.1293 -2.9801  0.4637
   46CHL1  H19C 3373   6.385   0.342   3.029  1.1596 -0.5144 -0.9552
   46CHL1    C1 3374   6.659   0.496   2.876 -0.2258  0.1563  0.5330
   46CHL1   H1A 3375   6.637   0.601   2.905  2.7588  1.8088 -2.3946
   46CHL1   H1B 3376   6.770   0.494   2.884 -0.2439 -3.0491  1.2360
   46CHL1    C2 3377   6.631   0.480   2.722 -0.2270  0.1822  0.1423
   46CHL1   H2A 3378   6.692   0.554   2.667 -0.1810 -1.5752 -2.3159
   46CHL1   H2B 3379   6.523   0.500   2.701 -1.6413 -4.3914  1.8040
   46CHL1   C20 3380   6.666   0.455   3.670  0.6989 -0.0275  0.2535
   46CHL1   H20 3381   6.559   0.458   3.697  0.9069 -3.0072  1.7984
   46CHL1   C21 3382   6.706   0.605   3.664 -0.1047  0.2540 -0.5709
   46CHL1  H21A 3383   6.815   0.610   3.683 -0.1458 -1.5589  0.3259
   46CHL1  H21B 3384   6.651   0.666   3.739 -0.2566 -0.6692  0.0950
   46CHL1  H21C 3385   6.702   0.654   3.564  0.0296  1.0818 -0.1730
   46CHL1   C22 3386   6.716   0.388   3.794 -0.2462 -0.1346 -0.2021
   46CHL1  H22A 3387   6.679   0.283   3.792 -2.6765  0.6662 -2.4693
   46CHL1  H22B 3388   6.826   0.404   3.796 -0.1664 -0.7014  1.2891
   46CHL1   C23 3389   6.663   0.452   3.922  0.2532  0.3899 -0.0572
   46CHL1  H23A 3390   6.711   0.552   3.937 -2.6102  1.6950  1.2231
   46CHL1  H23B 3391   6.558   0.482   3.905  0.8441  1.4189 -2.1613
   46CHL1   C24 3392   6.697   0.377   4.055 -0.8073  0.2394  0.0658
   46CHL1  H24A 3393   6.643   0.281   4.041 -0.4740  0.2064 -1.0955
   46CHL1  H24B 3394   6.804   0.354   4.069 -1.4200 -3.1232  0.0387
   46CHL1   C25 3395   6.647   0.448   4.188 -0.6742 -0.5770  0.1323
   46CHL1   H25 3396   6.552   0.498   4.157  0.0239  1.1476  0.6508
   46CHL1   C26 3397   6.607   0.344   4.294  0.4397 -0.8575  0.0450
   46CHL1  H26A 3398   6.547   0.261   4.251  0.4531 -0.4757 -0.7214
   46CHL1  H26B 3399   6.697   0.295   4.337  0.8781 -0.7395 -0.7390
   46CHL1  H26C 3400   6.552   0.389   4.380  0.0802  1.4986 -1.3530
   46CHL1   C27 3401   6.736   0.556   4.235 -0.0768 -0.4081 -0.3022
   46CHL1  H27A 3402   6.841   0.521   4.244  0.6788  0.9184 -2.9061
   46CHL1  H27B 3403   6.737   0.647   4.172  0.7386 -0.8931 -1.0164
   46CHL1  H27C 3404   6.692   0.586   4.333 -1.4065 -0.0267 -0.9965
   47CHL1    C3 3405   5.191   0.705   2.620  0.7858  0.0386  0.0711
   47CHL1    H3 3406   5.164   0.598   2.607 -1.2388  0.2741  1.7602
   47CHL1    O3 3407   5.229   0.764   2.495  0.1596  0.7991  0.0526
   47CHL1   H3' 3408   5.165   0.724   2.436  1.0108 -2.0333  0.8880
   47CHL1    C4 3409   5.062   0.777   2.670 -0.5862  0.4833 -0.6630
   47CHL1   H4A 3410   5.082   0.886   2.677  0.8602  0.1484  1.8935
   47CHL1   H4B 3411   4.984   0.753   2.595 -0.3433  0.9507 -1.0641
   47CHL1    C5 3412   5.020   0.721   2.807  0.3260  0.2834  0.2740
   47CHL1    C6 3413   4.895   0.675   2.823  0.1247 -0.1768 -0.5618
   47CHL1    H6 3414   4.833   0.665   2.733  1.3706 -0.9436 -1.3634
   47CHL1    C7 3415   4.842   0.621   2.953  0.7446  0.0425 -0.2275
   47CHL1   H7A 3416   4.741   0.665   2.969  0.9034  1.0403 -1.7414
   47CHL1   H7B 3417   4.848   0.510   2.956  2.6540 -0.1552 -4.4385
   47CHL1    C8 3418   4.922   0.676   3.078  0.2322  0.3673 -0.0949
   47CHL1    H8 3419   4.899   0.784   3.082 -0.1079  0.2682  0.6761
   47CHL1   C14 3420   4.873   0.608   3.204 -0.1833  0.0579 -0.1203
   47CHL1   H14 3421   4.877   0.498   3.187 -0.7362  0.3063 -2.1876
   47CHL1   C15 3422   4.728   0.635   3.246 -0.0407 -0.5837  0.9203
   47CHL1  H15A 3423   4.701   0.738   3.214  0.8781 -0.5862  0.0698
   47CHL1  H15B 3424   4.654   0.568   3.198  0.5888  1.4417 -3.4338
   47CHL1   C16 3425   4.724   0.622   3.401  0.0995  0.1168  0.1405
   47CHL1  H16A 3426   4.686   0.717   3.444 -0.9190 -1.5177  3.1324
   47CHL1  H16B 3427   4.644   0.549   3.426 -1.1448  0.8152 -1.5891
   47CHL1   C17 3428   4.871   0.567   3.435 -0.2519  0.1632 -0.1613
   47CHL1   H17 3429   4.875   0.456   3.425  2.4678 -0.0244  2.0106
   47CHL1   C13 3430   4.952   0.646   3.331 -0.0015 -0.0042 -0.2942
   47CHL1   C18 3431   4.950   0.805   3.363 -0.0083  0.1421  1.2511
   47CHL1  H18A 3432   4.997   0.866   3.283  0.6633 -0.8024  0.9063
   47CHL1  H18B 3433   4.856   0.849   3.403  1.3939  0.3488  4.6064
   47CHL1  H18C 3434   5.029   0.819   3.439  0.5300 -2.6549  1.2959
   47CHL1   C12 3435   5.102   0.600   3.303  0.3168 -0.0288 -0.2271
   47CHL1  H12A 3436   5.163   0.620   3.393  0.4804  0.1879 -0.3843
   47CHL1  H12B 3437   5.110   0.492   3.282  3.2642  0.5138 -2.5664
   47CHL1   C11 3438   5.155   0.675   3.179 -0.9683  0.3964 -0.0580
   47CHL1  H11A 3439   5.161   0.785   3.199 -1.2716  0.6540 -1.3035
   47CHL1  H11B 3440   5.259   0.638   3.163 -1.2376  0.2227 -1.6151
   47CHL1    C9 3441   5.074   0.655   3.050  1.0093  0.5539 -0.4721
   47CHL1    H9 3442   5.084   0.546   3.028  2.7973  0.8356 -1.1968
   47CHL1   C10 3443   5.122   0.732   2.922 -0.1933  0.5873  0.1396
   47CHL1   C19 3444   5.146   0.888   2.954 -0.1734  0.2197  0.3769
   47CHL1  H19A 3445   5.060   0.941   2.999 -0.6491 -0.7138  0.6012
   47CHL1  H19B 3446   5.226   0.903   3.030 -1.0574 -0.2223  1.4239
   47CHL1  H19C 3447   5.184   0.945   2.867 -1.1547  1.4826  0.7424
   47CHL1    C1 3448   5.253   0.667   2.870  0.1984  0.0558 -0.6278
   47CHL1   H1A 3449   5.323   0.687   2.955 -1.7269  1.8600  0.6379
   47CHL1   H1B 3450   5.240   0.557   2.866 -2.0795  0.2325  0.5017
   47CHL1    C2 3451   5.299   0.721   2.731 -0.0285 -0.2971  0.3249
   47CHL1   H2A 3452   5.386   0.673   2.684  0.0587  0.2423 -0.0674
   47CHL1   H2B 3453   5.318   0.830   2.728  0.6018 -0.3587  1.3494
   47CHL1   C20 3454   4.908   0.598   3.583 -0.2978  0.0154 -0.2283
   47CHL1   H20 3455   4.978   0.684   3.589  1.2170 -1.2165  0.5557
   47CHL1   C21 3456   4.990   0.478   3.624  0.1363  0.1037 -0.9641
   47CHL1  H21A 3457   5.021   0.489   3.730 -0.4980  0.6664 -0.8311
   47CHL1  H21B 3458   5.085   0.472   3.566  0.0431  1.9620 -1.3593
   47CHL1  H21C 3459   4.928   0.388   3.601 -1.1679  0.9577 -0.8609
   47CHL1   C22 3460   4.787   0.629   3.677 -0.5022  0.3683 -0.2850
   47CHL1  H22A 3461   4.713   0.702   3.638  1.0329  1.3909 -1.4329
   47CHL1  H22B 3462   4.727   0.541   3.708 -0.6356  1.5935  3.5472
   47CHL1   C23 3463   4.833   0.670   3.821  0.2148 -0.5060  0.0114
   47CHL1  H23A 3464   4.907   0.598   3.862 -1.2889 -1.6374  0.8716
   47CHL1  H23B 3465   4.888   0.765   3.813 -0.3332  0.0714  2.2390
   47CHL1   C24 3466   4.712   0.702   3.918  0.2746  1.0406  0.0717
   47CHL1  H24A 3467   4.656   0.771   3.852 -0.2628  2.1938  1.6748
   47CHL1  H24B 3468   4.667   0.602   3.930  0.0166  1.2576  0.9248
   47CHL1   C25 3469   4.732   0.780   4.044  0.1767 -1.2989 -0.1869
   47CHL1   H25 3470   4.760   0.882   4.007 -1.7598 -0.5718  0.2509
   47CHL1   C26 3471   4.609   0.784   4.149 -0.7708 -0.0216 -0.3075
   47CHL1  H26A 3472   4.584   0.683   4.189 -0.5269  0.3771  0.8812
   47CHL1  H26B 3473   4.648   0.840   4.237  3.3801 -0.2804 -1.7331
   47CHL1  H26C 3474   4.517   0.825   4.102 -0.5123 -0.1795 -0.9668
   47CHL1   C27 3475   4.853   0.724   4.127 -0.0638 -0.1881 -0.2388
   47CHL1  H27A 3476   4.841   0.624   4.173  1.1954  0.0588  0.6772
   47CHL1  H27B 3477   4.937   0.718   4.055 -1.3088  1.1416 -1.9052
   47CHL1  H27C 3478   4.877   0.792   4.211 -0.4375 -0.8913  0.4504
   48CHL1    C3 3479   6.259   4.084   2.771  0.3690 -0.9511  0.3542
   48CHL1    H3 3480   6.153   4.112   2.789  0.4070 -1.6554  1.8110
   48CHL1    O3 3481   6.286   4.098   2.632 -0.0403 -0.1927 -0.4144
   48CHL1   H3' 3482   6.242   4.181   2.611 -2.8467 -1.8117 -1.5893
   48CHL1    C4 3483   6.336   4.191   2.849 -0.2111  0.0078  0.1455
   48CHL1   H4A 3484   6.445   4.172   2.835 -0.3243 -0.7346  0.2104
   48CHL1   H4B 3485   6.315   4.294   2.813  1.4658 -0.0385 -1.0749
   48CHL1    C5 3486   6.300   4.185   2.990 -0.9343  0.1368  0.2987
   48CHL1    C6 3487   6.263   4.297   3.061  0.1888  0.5523  0.1527
   48CHL1    H6 3488   6.240   4.387   3.002  0.2113 -0.7457 -1.9586
   48CHL1    C7 3489   6.230   4.300   3.203 -0.4361  0.4181  0.1335
   48CHL1   H7A 3490   6.292   4.381   3.246 -1.3691  1.0331  0.3436
   48CHL1   H7B 3491   6.124   4.331   3.212 -0.6945  0.1287 -1.4617
   48CHL1    C8 3492   6.250   4.170   3.282  0.2924 -0.5569 -0.3689
   48CHL1    H8 3493   6.354   4.185   3.318  0.9796  3.1177 -3.1610
   48CHL1   C14 3494   6.155   4.172   3.400 -0.1355 -0.4809  0.2284
   48CHL1   H14 3495   6.054   4.159   3.355 -0.2873  1.6464 -0.1427
   48CHL1   C15 3496   6.145   4.303   3.491  0.4403  0.1443  0.1048
   48CHL1  H15A 3497   6.246   4.348   3.504  0.3562  1.1857 -2.3885
   48CHL1  H15B 3498   6.079   4.370   3.434  1.1837  2.5298  1.8819
   48CHL1   C16 3499   6.086   4.236   3.620  0.1879  0.3190  0.4173
   48CHL1  H16A 3500   6.162   4.251   3.700  1.8567 -0.2487 -0.9896
   48CHL1  H16B 3501   5.990   4.280   3.655 -0.6261 -0.2228 -1.0315
   48CHL1   C17 3502   6.061   4.080   3.591 -0.2911  0.1531  0.1119
   48CHL1   H17 3503   5.964   4.073   3.537  0.3028 -1.1240 -0.8354
   48CHL1   C13 3504   6.167   4.051   3.489  0.3018 -0.0616  0.1848
   48CHL1   C18 3505   6.315   4.041   3.546  0.9474  0.3986 -0.2486
   48CHL1  H18A 3506   6.378   3.998   3.467 -0.8462 -1.1693 -0.8955
   48CHL1  H18B 3507   6.345   4.145   3.574 -2.5634  1.8320 -1.2530
   48CHL1  H18C 3508   6.315   3.963   3.625 -0.7392  0.4669 -0.1489
   48CHL1   C12 3509   6.142   3.920   3.405 -0.2873  0.1257  0.6347
   48CHL1  H12A 3510   6.171   3.832   3.467 -2.3196  0.2089  1.7849
   48CHL1  H12B 3511   6.034   3.915   3.378  0.4811  0.1016 -2.8801
   48CHL1   C11 3512   6.226   3.917   3.265  0.2421  1.0406 -0.3083
   48CHL1  H11A 3513   6.330   3.895   3.298 -0.5164 -0.4707  1.1789
   48CHL1  H11B 3514   6.182   3.826   3.219  1.4684 -0.5677  1.5255
   48CHL1    C9 3515   6.222   4.047   3.192 -0.2698 -0.2632  0.2156
   48CHL1    H9 3516   6.119   4.057   3.151  0.1343 -2.9035 -1.7070
   48CHL1   C10 3517   6.297   4.047   3.061 -0.2965 -0.6203  0.6500
   48CHL1   C19 3518   6.445   4.006   3.079 -0.3353  0.5534 -0.3374
   48CHL1  H19A 3519   6.497   4.070   3.152  0.9045 -0.4376 -0.3126
   48CHL1  H19B 3520   6.444   3.901   3.117  1.4279  0.1932 -1.1706
   48CHL1  H19C 3521   6.512   4.003   2.991  0.1606 -1.1352  0.0602
   48CHL1    C1 3522   6.229   3.940   2.968 -0.1209 -0.6168  0.0867
   48CHL1   H1A 3523   6.245   3.838   3.009  1.1454 -0.0834  0.9866
   48CHL1   H1B 3524   6.120   3.960   2.962  0.1384  0.3616 -2.1050
   48CHL1    C2 3525   6.286   3.943   2.830  0.2209  0.1941 -0.0883
   48CHL1   H2A 3526   6.248   3.869   2.757  0.8651  1.0779 -1.3823
   48CHL1   H2B 3527   6.395   3.921   2.832  0.3900  1.0309  1.4716
   48CHL1   C20 3528   6.047   3.982   3.702  0.3945 -0.2922 -0.1714
   48CHL1   H20 3529   6.065   3.880   3.662 -1.9673 -0.6815 -0.3769
   48CHL1   C21 3530   5.896   3.979   3.751  0.6143 -0.2827 -0.0351
   48CHL1  H21A 3531   5.868   3.901   3.825 -1.7692  0.0080 -0.5376
   48CHL1  H21B 3532   5.840   3.973   3.655  1.8881  2.6236 -1.0762
   48CHL1  H21C 3533   5.859   4.074   3.796 -3.4762 -1.9747  0.5972
   48CHL1   C22 3534   6.138   4.001   3.831  0.6913 -0.0778  0.1283
   48CHL1  H22A 3535   6.235   4.048   3.803  0.6727 -1.8308 -3.4243
   48CHL1  H22B 3536   6.084   4.070   3.900 -0.0949  0.0006 -0.5473
   48CHL1   C23 3537   6.167   3.886   3.915  0.0880  0.4764  0.2312
   48CHL1  H23A 3538   6.076   3.834   3.951  0.6524  0.2231  1.3384
   48CHL1  H23B 3539   6.228   3.810   3.861 -0.5392 -1.8030  2.5465
   48CHL1   C24 3540   6.248   3.930   4.038 -0.1207  0.2767 -0.1731
   48CHL1  H24A 3541   6.338   3.978   3.995  0.0527 -0.4590 -0.6444
   48CHL1  H24B 3542   6.193   4.012   4.089 -0.6242 -0.8176  1.1007
   48CHL1   C25 3543   6.296   3.819   4.138 -0.4130 -0.5940 -0.3567
   48CHL1   H25 3544   6.213   3.750   4.164 -1.7888  0.9318 -0.5235
   48CHL1   C26 3545   6.415   3.736   4.068 -0.0511  0.5472  0.7311
   48CHL1  H26A 3546   6.519   3.774   4.074  0.6744 -1.2886  0.5574
   48CHL1  H26B 3547   6.429   3.635   4.113 -2.0726  0.6267  1.6502
   48CHL1  H26C 3548   6.387   3.721   3.962  0.0686  1.2665  0.5916
   48CHL1   C27 3549   6.353   3.878   4.277  0.1884 -0.4774  0.2292
   48CHL1  H27A 3550   6.281   3.950   4.320  0.3578  0.4434 -0.9528
   48CHL1  H27B 3551   6.364   3.794   4.348 -0.6529 -0.2305  0.6618
   48CHL1  H27C 3552   6.453   3.926   4.263  0.0081  0.2821  1.4178
   49CHL1    C3 3553   3.117   0.937   2.685 -0.3232  0.2617 -0.3878
   49CHL1    H3 3554   3.018   0.901   2.651 -0.4958  1.2929 -1.0396
   49CHL1    O3 3555   3.193   0.942   2.565  0.4226 -0.5884 -0.4825
   49CHL1   H3' 3556   3.233   0.856   2.551  1.1289 -0.7284  1.9319
   49CHL1    C4 3557   3.099   1.074   2.751 -0.3423 -0.4586 -0.1397
   49CHL1   H4A 3558   3.199   1.123   2.748 -1.9952  3.1399 -1.0961
   49CHL1   H4B 3559   3.036   1.131   2.680 -1.7084 -0.4674  1.0192
   49CHL1    C5 3560   3.052   1.068   2.896 -0.1435  0.1324 -0.3488
   49CHL1    C6 3561   2.943   1.139   2.924 -0.1292 -0.4312 -0.6005
   49CHL1    H6 3562   2.881   1.177   2.841 -0.8659 -0.8931 -0.2691
   49CHL1    C7 3563   2.884   1.160   3.061 -0.2944  0.3802 -0.2264
   49CHL1   H7A 3564   2.866   1.267   3.086 -3.1931  0.0434 -0.4609
   49CHL1   H7B 3565   2.783   1.112   3.062 -0.2306 -0.0189 -3.0615
   49CHL1    C8 3566   2.978   1.101   3.172  0.9126  0.8653  0.0336
   49CHL1    H8 3567   3.063   1.169   3.193  0.1302  1.7891  0.2908
   49CHL1   C14 3568   2.892   1.063   3.299 -0.2149  0.1231  0.5688
   49CHL1   H14 3569   2.833   0.971   3.277 -0.1764  0.2575 -0.1258
   49CHL1   C15 3570   2.792   1.167   3.346  0.2371  1.3600  0.7399
   49CHL1  H15A 3571   2.832   1.269   3.328 -0.5439  1.6479  0.5861
   49CHL1  H15B 3572   2.692   1.161   3.297  1.1599 -0.8011 -1.0218
   49CHL1   C16 3573   2.774   1.143   3.496  0.0094 -0.0007 -0.1118
   49CHL1  H16A 3574   2.808   1.226   3.561 -0.3431  1.1146 -1.3164
   49CHL1  H16B 3575   2.670   1.110   3.518  1.0317 -3.4615  0.1141
   49CHL1   C17 3576   2.864   1.014   3.532 -0.3677  0.1611  0.1648
   49CHL1   H17 3577   2.796   0.929   3.510  2.0433 -2.2071  1.3042
   49CHL1   C13 3578   2.974   1.014   3.422 -0.2386 -0.4376 -0.2138
   49CHL1   C18 3579   3.080   1.126   3.464 -0.5728 -0.2254 -0.1790
   49CHL1  H18A 3580   3.154   1.127   3.381 -1.1280  1.9554 -0.7246
   49CHL1  H18B 3581   3.050   1.232   3.473 -1.1201 -0.3890 -0.0751
   49CHL1  H18C 3582   3.138   1.088   3.551 -2.6479  0.0163  1.3800
   49CHL1   C12 3583   3.043   0.881   3.369 -0.1793  0.3524  0.4362
   49CHL1  H12A 3584   3.109   0.835   3.446  0.5254 -1.5080 -1.1954
   49CHL1  H12B 3585   2.957   0.814   3.348 -0.3605  0.5374  0.5736
   49CHL1   C11 3586   3.131   0.895   3.237  0.7076 -0.1109 -0.0589
   49CHL1  H11A 3587   3.217   0.959   3.267 -1.0444  1.6840  1.4441
   49CHL1  H11B 3588   3.170   0.794   3.211 -0.7554 -0.3279 -1.5659
   49CHL1    C9 3589   3.053   0.965   3.129  0.4729 -0.1249 -0.5209
   49CHL1    H9 3590   2.963   0.903   3.107 -0.8412  2.0453 -1.6814
   49CHL1   C10 3591   3.124   0.979   2.995 -1.3818  0.3545 -0.0705
   49CHL1   C19 3592   3.265   1.042   3.018  0.1594 -0.1612 -0.0777
   49CHL1  H19A 3593   3.325   0.963   3.068 -3.1994 -2.9335 -0.0832
   49CHL1  H19B 3594   3.303   1.071   2.917 -1.0884 -2.2874 -1.2351
   49CHL1  H19C 3595   3.267   1.140   3.070  1.3391 -0.8777  1.3100
   49CHL1    C1 3596   3.130   0.839   2.923 -0.0824  0.2229 -0.1003
   49CHL1   H1A 3597   3.184   0.767   2.988  0.4268  1.3067  0.7064
   49CHL1   H1B 3598   3.028   0.794   2.922  0.1229 -0.2413 -0.8293
   49CHL1    C2 3599   3.192   0.841   2.781 -0.5441  0.4377 -0.1933
   49CHL1   H2A 3600   3.191   0.743   2.728  2.7851  0.5819 -0.7624
   49CHL1   H2B 3601   3.301   0.860   2.778 -0.1292 -1.6405  0.3019
   49CHL1   C20 3602   2.903   1.002   3.680  0.6313 -0.6471 -0.1453
   49CHL1   H20 3603   2.975   1.084   3.705  0.0362  0.1440 -0.9512
   49CHL1   C21 3604   2.963   0.859   3.717  0.7259 -0.4120  0.5883
   49CHL1  H21A 3605   2.958   0.779   3.640 -2.4889 -0.5087  0.7684
   49CHL1  H21B 3606   2.903   0.812   3.797  0.4956 -1.2539 -0.0638
   49CHL1  H21C 3607   3.072   0.866   3.740  0.4659  0.7250  1.5378
   49CHL1   C22 3608   2.779   1.040   3.773 -1.2962  0.4424  0.3533
   49CHL1  H22A 3609   2.724   1.129   3.734 -0.7973 -0.7166 -3.3607
   49CHL1  H22B 3610   2.705   0.958   3.762 -0.2836 -0.4195 -0.1325
   49CHL1   C23 3611   2.808   1.045   3.926 -0.7299  0.6310 -0.2314
   49CHL1  H23A 3612   2.847   0.950   3.970  2.4573  1.2312 -1.4603
   49CHL1  H23B 3613   2.890   1.119   3.940  2.3333 -2.1112 -2.1201
   49CHL1   C24 3614   2.671   1.086   3.995 -1.0925 -0.2074  0.0334
   49CHL1  H24A 3615   2.642   1.188   3.963 -2.2909 -0.6970 -0.5109
   49CHL1  H24B 3616   2.599   1.016   3.948 -0.2796 -1.8960  1.2131
   49CHL1   C25 3617   2.672   1.070   4.148 -0.5832  0.1214 -0.2836
   49CHL1   H25 3618   2.753   1.128   4.196  0.4797 -1.0665 -0.6117
   49CHL1   C26 3619   2.535   1.123   4.202 -0.8198  0.4121 -0.1138
   49CHL1  H26A 3620   2.459   1.050   4.169 -0.2904  1.0381 -3.0074
   49CHL1  H26B 3621   2.547   1.141   4.311  2.9526 -0.5054 -0.2293
   49CHL1  H26C 3622   2.513   1.219   4.152  0.9396  1.9650  1.9198
   49CHL1   C27 3623   2.671   0.911   4.177 -0.2798  0.0468 -0.3609
   49CHL1  H27A 3624   2.573   0.867   4.148 -1.4809  3.9669 -3.2064
   49CHL1  H27B 3625   2.755   0.856   4.129  0.0119  0.9365 -0.9206
   49CHL1  H27C 3626   2.683   0.908   4.287  0.0465  1.1028 -0.3520
   50CHL1    C3 3627   1.790   0.419   2.875 -0.1803 -0.2659 -0.4637
   50CHL1    H3 3628   1.817   0.516   2.922 -0.3553  0.8388 -2.5169
   50CHL1    O3 3629   1.757   0.447   2.743 -0.0048  0.4714  0.1473
   50CHL1   H3' 3630   1.844   0.437   2.703  0.4574  2.6294  0.4768
   50CHL1    C4 3631   1.920   0.331   2.886  0.2623  0.3532  0.2863
   50CHL1   H4A 3632   1.897   0.231   2.844  0.5456  0.8712 -1.1803
   50CHL1   H4B 3633   1.998   0.386   2.828  1.1461 -1.6108 -0.4844
   50CHL1    C5 3634   1.960   0.301   3.031 -0.1566  0.2534 -0.6399
   50CHL1    C6 3635   2.077   0.348   3.078 -0.1055  0.9757 -0.2984
   50CHL1    H6 3636   2.147   0.414   3.024  0.2451  3.0534  2.5214
   50CHL1    C7 3637   2.125   0.332   3.220  0.4446 -0.5098 -0.1586
   50CHL1   H7A 3638   2.228   0.289   3.220  0.0615 -1.4834  0.4065
   50CHL1   H7B 3639   2.132   0.431   3.269  0.0518  0.4053 -1.9085
   50CHL1    C8 3640   2.041   0.221   3.300  0.1854  0.3521  0.5552
   50CHL1    H8 3641   2.058   0.120   3.257  0.7702  1.1292 -1.1257
   50CHL1   C14 3642   2.066   0.247   3.447 -0.2566 -0.2828  0.3103
   50CHL1   H14 3643   2.032   0.352   3.455  0.7810  0.0685  0.2916
   50CHL1   C15 3644   2.209   0.233   3.498 -0.3891  0.3853 -0.7074
   50CHL1  H15A 3645   2.244   0.130   3.473  2.0468  0.9487  0.0961
   50CHL1  H15B 3646   2.280   0.312   3.467  1.2374 -0.1193  1.4745
   50CHL1   C16 3647   2.197   0.232   3.648  0.9801  0.5063 -0.4868
   50CHL1  H16A 3648   2.269   0.160   3.691  1.7947  1.2021 -0.6458
   50CHL1  H16B 3649   2.230   0.330   3.689 -0.1102  0.2254  1.1134
   50CHL1   C17 3650   2.047   0.205   3.677  0.4875  0.6027  0.2199
   50CHL1   H17 3651   2.016   0.310   3.692  2.4674  1.2923 -0.1816
   50CHL1   C13 3652   1.978   0.172   3.547  0.0133 -0.5467  1.1713
   50CHL1   C18 3653   1.998   0.020   3.525  0.7538 -0.2117 -0.5591
   50CHL1  H18A 3654   1.994  -0.000   3.416  3.5951  1.3590 -1.0265
   50CHL1  H18B 3655   2.096  -0.017   3.561 -0.5860 -2.6763  0.9254
   50CHL1  H18C 3656   1.913  -0.039   3.567  0.9065  1.4774  2.4474
   50CHL1   C12 3657   1.830   0.216   3.517 -0.0792  0.3148  0.9707
   50CHL1  H12A 3658   1.752   0.166   3.579 -0.4339 -0.1509  0.1652
   50CHL1  H12B 3659   1.829   0.326   3.533  2.5249  0.3279  1.5597
   50CHL1   C11 3660   1.790   0.187   3.370  0.4043 -0.1905 -0.1220
   50CHL1  H11A 3661   1.797   0.076   3.358  2.6605 -0.0724 -0.4984
   50CHL1  H11B 3662   1.686   0.222   3.359  0.6591  0.5644 -0.1691
   50CHL1    C9 3663   1.887   0.253   3.270 -0.3097 -0.2866 -0.2627
   50CHL1    H9 3664   1.880   0.363   3.289  2.2855  0.0463 -0.8707
   50CHL1   C10 3665   1.850   0.239   3.121  0.2795  0.9696 -0.2771
   50CHL1   C19 3666   1.856   0.086   3.080 -0.1572  0.1761 -0.2187
   50CHL1  H19A 3667   1.947   0.037   3.122  1.2732  1.7757 -1.3101
   50CHL1  H19B 3668   1.780   0.022   3.129 -0.2089 -0.4175 -1.0412
   50CHL1  H19C 3669   1.837   0.071   2.971 -0.5463  1.4981 -0.3454
   50CHL1    C1 3670   1.706   0.299   3.092  0.1892 -0.0211 -0.0944
   50CHL1   H1A 3671   1.632   0.218   3.106  2.2880 -2.5402 -2.4343
   50CHL1   H1B 3672   1.691   0.380   3.167  3.0015 -0.3695  0.9744
   50CHL1    C2 3673   1.673   0.350   2.945  0.5525  0.1820  0.4820
   50CHL1   H2A 3674   1.590   0.423   2.957  1.0724  0.9352 -0.3606
   50CHL1   H2B 3675   1.634   0.268   2.881 -0.8445  1.3892 -0.2621
   50CHL1   C20 3676   2.016   0.128   3.801 -0.0727 -0.4053  0.3962
   50CHL1   H20 3677   2.047   0.022   3.788  0.1104 -0.0638 -2.5978
   50CHL1   C21 3678   1.865   0.128   3.826  0.1320 -0.0896 -0.1067
   50CHL1  H21A 3679   1.848   0.088   3.929  1.7776 -0.1262  0.1764
   50CHL1  H21B 3680   1.804   0.068   3.754 -0.3905  1.3280 -0.8723
   50CHL1  H21C 3681   1.811   0.224   3.814 -1.2623 -0.9705 -1.2263
   50CHL1   C22 3682   2.098   0.186   3.920  0.3052  0.0209  0.2510
   50CHL1  H22A 3683   2.206   0.193   3.897 -0.1574  2.4982 -1.5821
   50CHL1  H22B 3684   2.062   0.290   3.940 -0.3583  1.2752 -5.7399
   50CHL1   C23 3685   2.091   0.108   4.053 -0.1589  0.0003 -1.0030
   50CHL1  H23A 3686   1.985   0.077   4.061  0.1456 -1.2023 -1.4704
   50CHL1  H23B 3687   2.144   0.010   4.057 -1.2684 -0.6317  2.6045
   50CHL1   C24 3688   2.140   0.198   4.163  0.2263  0.6182 -0.0862
   50CHL1  H24A 3689   2.239   0.239   4.135  0.3354  0.8711  0.6430
   50CHL1  H24B 3690   2.064   0.277   4.184  0.4659  0.3077  2.2885
   50CHL1   C25 3691   2.148   0.127   4.306  0.2026  0.0648 -0.3305
   50CHL1   H25 3692   2.208   0.035   4.289  0.6233  0.6629 -2.3148
   50CHL1   C26 3693   2.239   0.218   4.401  0.6098 -0.4151  0.3476
   50CHL1  H26A 3694   2.245   0.165   4.499 -0.8672  0.2084  0.8110
   50CHL1  H26B 3695   2.343   0.219   4.362 -0.2431 -1.0542 -2.1259
   50CHL1  H26C 3696   2.205   0.324   4.405 -2.4946 -1.2240 -1.4037
   50CHL1   C27 3697   2.017   0.087   4.372  0.6962 -0.0227 -0.2477
   50CHL1  H27A 3698   1.968   0.177   4.413  2.8177  0.4237  1.5049
   50CHL1  H27B 3699   1.955   0.017   4.311  1.7593 -1.2435  0.0188
   50CHL1  H27C 3700   2.044   0.022   4.458 -1.6989 -0.1316  0.4848
   51CHL1    C3 3701   5.166   6.659   2.741 -0.1344  0.0083  0.2810
   51CHL1    H3 3702   5.083   6.732   2.725 -1.9380 -2.1648 -0.7586
   51CHL1    O3 3703   5.220   6.616   2.616  0.2608  0.2830  0.0646
   51CHL1   H3' 3704   5.269   6.535   2.631 -0.7178 -1.0942 -3.2761
   51CHL1    C4 3705   5.282   6.727   2.820 -0.0993 -0.3209  0.2396
   51CHL1   H4A 3706   5.359   6.646   2.824 -1.6326 -1.7975  0.9884
   51CHL1   H4B 3707   5.324   6.814   2.766  0.6111 -0.7732  0.0360
   51CHL1    C5 3708   5.246   6.751   2.963 -0.8436 -0.4561 -0.6019
   51CHL1    C6 3709   5.271   6.870   3.023  0.2294 -0.0193 -0.1773
   51CHL1    H6 3710   5.307   6.952   2.959  0.2115 -0.3189 -0.5741
   51CHL1    C7 3711   5.260   6.901   3.170  0.0538  0.4542  0.2733
   51CHL1   H7A 3712   5.345   6.966   3.197 -1.1428  2.3445 -0.2846
   51CHL1   H7B 3713   5.178   6.973   3.190 -0.0579  0.2007  0.7422
   51CHL1    C8 3714   5.253   6.770   3.257 -0.0211 -0.3953  0.4501
   51CHL1    H8 3715   5.356   6.729   3.273  0.2806  0.3166  0.3605
   51CHL1   C14 3716   5.205   6.803   3.395  0.0769 -0.6497 -0.5701
   51CHL1   H14 3717   5.102   6.845   3.392  0.8991  1.7050  1.5755
   51CHL1   C15 3718   5.280   6.915   3.476 -0.5241 -0.4657 -1.2538
   51CHL1  H15A 3719   5.390   6.899   3.480 -0.3440  0.7933  0.2474
   51CHL1  H15B 3720   5.258   7.023   3.457  0.0239  0.0946  0.9429
   51CHL1   C16 3721   5.233   6.889   3.625 -0.3241 -0.7115 -0.0286
   51CHL1  H16A 3722   5.325   6.895   3.687  0.9257  0.2968 -1.8711
   51CHL1  H16B 3723   5.158   6.970   3.632  2.2110  1.8459 -0.4503
   51CHL1   C17 3724   5.163   6.759   3.629  0.8208 -0.0456 -0.3979
   51CHL1   H17 3725   5.053   6.775   3.624  0.6216 -0.8208  0.9364
   51CHL1   C13 3726   5.198   6.686   3.492  0.8597 -0.0531 -0.1772
   51CHL1   C18 3727   5.337   6.619   3.508 -0.5490 -0.6583  0.1941
   51CHL1  H18A 3728   5.410   6.683   3.562 -0.8586 -0.8807  0.8845
   51CHL1  H18B 3729   5.328   6.529   3.572 -1.8795 -0.2130  0.6547
   51CHL1  H18C 3730   5.375   6.599   3.405 -0.3745  4.5099 -1.0622
   51CHL1   C12 3731   5.097   6.582   3.433 -0.0824  1.0629  0.0994
   51CHL1  H12A 3732   5.073   6.491   3.491 -0.8026 -0.0509 -1.8558
   51CHL1  H12B 3733   5.001   6.639   3.428 -2.2337 -2.0918  2.0261
   51CHL1   C11 3734   5.137   6.541   3.289  0.4318 -0.0578 -0.3584
   51CHL1  H11A 3735   5.229   6.478   3.294 -0.1432 -1.1136 -2.1005
   51CHL1  H11B 3736   5.053   6.476   3.256 -0.7772 -0.2743  2.7555
   51CHL1    C9 3737   5.159   6.659   3.188  0.0962 -0.1192 -0.2818
   51CHL1    H9 3738   5.062   6.714   3.187  0.4895  0.7870  2.2007
   51CHL1   C10 3739   5.198   6.637   3.040 -0.5281  0.2888  0.3393
   51CHL1   C19 3740   5.314   6.531   3.046  0.4673  0.3153  0.6524
   51CHL1  H19A 3741   5.350   6.486   2.952  0.3854  1.0266  0.2723
   51CHL1  H19B 3742   5.394   6.590   3.096 -1.7775  1.8516  2.6467
   51CHL1  H19C 3743   5.282   6.437   3.095  1.8622 -1.1816 -1.1646
   51CHL1    C1 3744   5.070   6.579   2.964  0.3197 -0.4055 -0.1792
   51CHL1   H1A 3745   5.016   6.498   3.017  0.5178  0.5802  1.5780
   51CHL1   H1B 3746   5.002   6.666   2.958  0.8774 -0.0168 -1.2314
   51CHL1    C2 3747   5.101   6.541   2.818  0.0285 -0.0383  0.7805
   51CHL1   H2A 3748   5.010   6.513   2.761  1.6335 -2.5914 -0.7382
   51CHL1   H2B 3749   5.166   6.455   2.793  0.5276  0.9212 -1.3781
   51CHL1   C20 3750   5.178   6.671   3.755 -0.3557 -0.6131  0.2117
   51CHL1   H20 3751   5.278   6.621   3.756 -0.3928 -0.8125 -1.8904
   51CHL1   C21 3752   5.074   6.562   3.767  0.4621  0.2222  0.6338
   51CHL1  H21A 3753   5.056   6.533   3.873 -0.3994 -0.4063  0.3284
   51CHL1  H21B 3754   5.104   6.473   3.708  0.5608  0.1420  0.8049
   51CHL1  H21C 3755   4.970   6.602   3.758 -0.0366 -1.2598 -0.8172
   51CHL1   C22 3756   5.160   6.756   3.886 -0.0642  0.2075 -0.0182
   51CHL1  H22A 3757   5.177   6.687   3.971 -1.1873  0.2631  0.2628
   51CHL1  H22B 3758   5.229   6.843   3.891  0.3278  0.1050 -2.5754
   51CHL1   C23 3759   5.018   6.832   3.900 -0.0488  0.3332  0.0402
   51CHL1  H23A 3760   5.009   6.918   3.831 -1.1235  0.3238  0.1492
   51CHL1  H23B 3761   4.938   6.761   3.869  1.8284 -1.7538 -0.2897
   51CHL1   C24 3762   4.974   6.874   4.044  1.0411 -0.9344  0.4518
   51CHL1  H24A 3763   4.870   6.913   4.042  1.1718 -0.5588 -1.3633
   51CHL1  H24B 3764   4.989   6.777   4.096 -0.8218 -0.9222  1.1079
   51CHL1   C25 3765   5.058   6.985   4.111 -0.3220 -0.0465 -0.7531
   51CHL1   H25 3766   5.099   7.037   4.021 -0.9353 -0.6349 -1.3827
   51CHL1   C26 3767   4.981   7.093   4.188 -0.4966  0.1527  0.1123
   51CHL1  H26A 3768   4.928   7.041   4.270 -1.0282  3.3738  1.9490
   51CHL1  H26B 3769   5.042   7.174   4.233  0.1278 -0.5062  0.4829
   51CHL1  H26C 3770   4.908   7.140   4.119  0.5313  0.0784 -1.0760
   51CHL1   C27 3771   5.178   6.939   4.195 -0.1377  0.3668 -0.5835
   51CHL1  H27A 3772   5.248   7.023   4.214  0.0371  0.6206 -2.2227
   51CHL1  H27B 3773   5.148   6.890   4.290  0.3946  1.4909  0.1819
   51CHL1  H27C 3774   5.232   6.858   4.142  0.2662 -0.4674  1.0375
   52CHL1    C3 3775   4.222   4.046   2.908 -0.1158  0.2287 -0.6351
   52CHL1    H3 3776   4.184   3.942   2.897 -2.2531  0.9550 -0.7235
   52CHL1    O3 3777   4.203   4.119   2.788  0.3764  0.5013 -0.2404
   52CHL1   H3' 3778   4.224   4.211   2.805 -1.5889  0.8260  0.7172
   52CHL1    C4 3779   4.121   4.109   3.015 -0.2016  0.0817  0.8656
   52CHL1   H4A 3780   4.135   4.218   3.005 -3.4988  0.6255  0.8812
   52CHL1   H4B 3781   4.021   4.077   2.978  0.7298 -1.4561 -0.4644
   52CHL1    C5 3782   4.139   4.069   3.157  0.1698 -0.8292 -0.1083
   52CHL1    C6 3783   4.039   4.001   3.225 -0.6398 -0.1806  0.3894
   52CHL1    H6 3784   3.952   3.968   3.167 -0.7276 -1.0080  0.9806
   52CHL1    C7 3785   4.048   3.961   3.370  0.2046  0.6324  0.2014
   52CHL1   H7A 3786   3.952   3.983   3.421  0.9683 -1.6414  2.9457
   52CHL1   H7B 3787   4.055   3.850   3.370  2.6607  0.6357  3.2047
   52CHL1    C8 3788   4.168   4.016   3.445 -0.2250  0.1548 -0.6834
   52CHL1    H8 3789   4.146   4.124   3.459  0.1260  0.3269 -1.4445
   52CHL1   C14 3790   4.194   3.939   3.581 -0.9420 -0.6313  0.0455
   52CHL1   H14 3791   4.209   3.836   3.545 -1.0281  0.0035 -1.9080
   52CHL1   C15 3792   4.082   3.921   3.679  0.3374 -0.5563  0.1166
   52CHL1  H15A 3793   4.018   4.012   3.680 -1.5366 -1.8123  0.4255
   52CHL1  H15B 3794   4.017   3.836   3.648 -1.9139  1.7796 -1.9829
   52CHL1   C16 3795   4.149   3.888   3.811  0.4101  0.2663 -0.1103
   52CHL1  H16A 3796   4.141   3.969   3.887  1.7267 -0.3816  0.7531
   52CHL1  H16B 3797   4.107   3.794   3.851  2.4648 -1.0395 -0.8717
   52CHL1   C17 3798   4.298   3.883   3.784 -0.8568 -0.9172 -0.0180
   52CHL1   H17 3799   4.322   3.781   3.748 -2.0074 -1.6136  1.1153
   52CHL1   C13 3800   4.321   3.975   3.661  0.2773 -0.9467  0.8066
   52CHL1   C18 3801   4.302   4.118   3.706 -0.6891 -0.5752 -0.3768
   52CHL1  H18A 3802   4.398   4.157   3.745 -0.7684 -0.6682 -0.0862
   52CHL1  H18B 3803   4.284   4.183   3.617  0.6415  0.5862  0.1608
   52CHL1  H18C 3804   4.214   4.138   3.772 -1.0058 -0.8143 -0.7182
   52CHL1   C12 3805   4.439   3.938   3.569 -0.3166  0.0776  0.2177
   52CHL1  H12A 3806   4.536   3.972   3.613 -1.7998  3.3581  1.2825
   52CHL1  H12B 3807   4.448   3.832   3.537  0.0002 -0.4526  1.9654
   52CHL1   C11 3808   4.423   4.008   3.434 -0.5690  0.1757 -0.7872
   52CHL1  H11A 3809   4.443   4.115   3.455  0.2224 -0.0361 -0.3960
   52CHL1  H11B 3810   4.514   3.991   3.372  1.1277  0.9470  1.3323
   52CHL1    C9 3811   4.290   3.992   3.352 -0.2802  0.3354 -0.1554
   52CHL1    H9 3812   4.288   3.888   3.313  1.6050  0.3636 -0.4410
   52CHL1   C10 3813   4.280   4.072   3.222 -0.0246  0.5542  0.0468
   52CHL1   C19 3814   4.328   4.215   3.238 -0.0464 -0.0514  0.5301
   52CHL1  H19A 3815   4.423   4.217   3.295  1.2061 -3.7487 -1.1117
   52CHL1  H19B 3816   4.323   4.267   3.139 -0.8158 -1.9227 -0.4580
   52CHL1  H19C 3817   4.260   4.275   3.302  1.2325 -0.3144  2.2080
   52CHL1    C1 3818   4.370   4.005   3.115  0.6705 -0.7215 -0.1346
   52CHL1   H1A 3819   4.476   4.019   3.147  0.2163  2.1433  0.3856
   52CHL1   H1B 3820   4.354   3.896   3.109  0.9648 -0.6997 -2.2627
   52CHL1    C2 3821   4.362   4.058   2.972 -0.0888  0.6004 -0.3875
   52CHL1   H2A 3822   4.427   3.999   2.905 -1.5679 -0.9796 -0.5124
   52CHL1   H2B 3823   4.388   4.166   2.966  0.6383  0.6748  2.6008
   52CHL1   C20 3824   4.385   3.922   3.910  0.2047 -0.0212  0.4577
   52CHL1   H20 3825   4.360   4.027   3.936 -1.2385 -0.0580 -0.6540
   52CHL1   C21 3826   4.533   3.925   3.885 -0.5819 -0.5413  1.1936
   52CHL1  H21A 3827   4.553   4.012   3.819 -1.4115 -0.4332  1.0720
   52CHL1  H21B 3828   4.560   3.829   3.836 -1.9924 -0.5781  0.4509
   52CHL1  H21C 3829   4.593   3.932   3.978  1.5800  0.7976 -0.2244
   52CHL1   C22 3830   4.346   3.844   4.036 -0.3528 -0.2088 -0.3277
   52CHL1  H22A 3831   4.237   3.824   4.028 -0.6765  0.7368  1.2548
   52CHL1  H22B 3832   4.416   3.758   4.033  0.2159  0.1642  1.3105
   52CHL1   C23 3833   4.359   3.903   4.181 -0.3857 -0.2385  0.6626
   52CHL1  H23A 3834   4.463   3.944   4.180 -0.5320  0.1417  0.7110
   52CHL1  H23B 3835   4.294   3.991   4.199  0.4693  0.5836 -0.1110
   52CHL1   C24 3836   4.324   3.806   4.296  0.0603 -0.0920 -0.9334
   52CHL1  H24A 3837   4.217   3.782   4.280 -0.1501  0.2169 -0.0765
   52CHL1  H24B 3838   4.386   3.715   4.281  1.6603  1.0539 -1.7080
   52CHL1   C25 3839   4.336   3.856   4.442  0.3310  0.1294 -0.1143
   52CHL1   H25 3840   4.310   3.767   4.504 -0.3998  0.1682 -0.3577
   52CHL1   C26 3841   4.478   3.888   4.469 -0.3466  0.2721 -0.2215
   52CHL1  H26A 3842   4.489   3.895   4.579 -1.1273  0.8838 -0.1685
   52CHL1  H26B 3843   4.545   3.808   4.432  2.7605  1.0471  3.1150
   52CHL1  H26C 3844   4.521   3.982   4.427  2.5648  0.1459  2.1462
   52CHL1   C27 3845   4.238   3.962   4.482 -0.0104  0.3561  1.0016
   52CHL1  H27A 3846   4.137   3.929   4.450  0.6060 -0.1922 -0.4521
   52CHL1  H27B 3847   4.234   3.976   4.593 -1.1789 -0.9982  1.1661
   52CHL1  H27C 3848   4.247   4.061   4.433 -0.1425 -1.2370 -2.5196
   53CHL1    C3 3849   6.279   6.310   3.209 -0.6007  0.0183 -0.3576
   53CHL1    H3 3850   6.223   6.403   3.233  0.9164  1.4060 -1.9858
   53CHL1    O3 3851   6.244   6.267   3.076 -0.1474  0.0856 -0.2132
   53CHL1   H3' 3852   6.284   6.181   3.065 -1.0659 -0.5126  0.8637
   53CHL1    C4 3853   6.434   6.333   3.227 -0.4129 -0.1418 -0.5416
   53CHL1   H4A 3854   6.492   6.243   3.200  0.8830  0.4773  0.1030
   53CHL1   H4B 3855   6.463   6.408   3.150 -1.5073  1.2191  0.3193
   53CHL1    C5 3856   6.463   6.382   3.370 -0.7586  0.6165 -0.3423
   53CHL1    C6 3857   6.534   6.493   3.384 -0.1520  0.2944 -0.1851
   53CHL1    H6 3858   6.556   6.554   3.295 -2.5643  0.9779 -0.4002
   53CHL1    C7 3859   6.582   6.534   3.514 -0.3176  0.6157 -0.6230
   53CHL1   H7A 3860   6.693   6.534   3.524 -0.3226  0.0060 -0.5248
   53CHL1   H7B 3861   6.557   6.642   3.520 -0.8135  0.6099 -2.2699
   53CHL1    C8 3862   6.539   6.443   3.633 -0.0873 -0.4274 -0.1333
   53CHL1    H8 3863   6.621   6.368   3.648 -0.5294 -1.3853 -2.1306
   53CHL1   C14 3864   6.539   6.523   3.758 -0.0664  0.3000  0.5978
   53CHL1   H14 3865   6.454   6.593   3.742 -0.0177  0.6145  1.6057
   53CHL1   C15 3866   6.665   6.608   3.784  0.3989  0.4976 -0.5981
   53CHL1  H15A 3867   6.762   6.560   3.760  1.7915  2.5813  0.6015
   53CHL1  H15B 3868   6.666   6.698   3.720  0.5224  1.5548  0.8396
   53CHL1   C16 3869   6.657   6.638   3.929  0.4214  0.0542  0.3825
   53CHL1  H16A 3870   6.744   6.603   3.989  0.1781 -0.1003  0.6458
   53CHL1  H16B 3871   6.660   6.745   3.959 -1.0550 -0.4887  2.7380
   53CHL1   C17 3872   6.530   6.571   3.986 -0.4469 -0.4106  0.5250
   53CHL1   H17 3873   6.453   6.650   3.978  0.4965  0.4434 -0.2334
   53CHL1   C13 3874   6.498   6.450   3.891  0.7872  0.8533  0.4295
   53CHL1   C18 3875   6.597   6.332   3.918  0.3522  0.1408 -0.3078
   53CHL1  H18A 3876   6.575   6.290   4.019  1.5738  0.7017  0.2161
   53CHL1  H18B 3877   6.598   6.258   3.835 -3.8523  0.5520 -0.9415
   53CHL1  H18C 3878   6.703   6.365   3.924  0.6589 -1.0120  1.3997
   53CHL1   C12 3879   6.360   6.389   3.870 -0.4192 -0.3484  0.4412
   53CHL1  H12A 3880   6.323   6.330   3.957  0.0092  1.5243  1.9431
   53CHL1  H12B 3881   6.293   6.476   3.851  1.4200  1.1669  0.6190
   53CHL1   C11 3882   6.354   6.294   3.736 -0.1376 -0.1316 -1.1724
   53CHL1  H11A 3883   6.417   6.209   3.771 -1.4147 -0.4164  0.5712
   53CHL1  H11B 3884   6.247   6.267   3.749  0.5870 -3.3170 -0.9012
   53CHL1    C9 3885   6.410   6.370   3.615  0.1962 -0.0320 -0.2457
   53CHL1    H9 3886   6.336   6.450   3.595 -0.0479 -0.1878  0.0169
   53CHL1   C10 3887   6.400   6.296   3.482  0.3698 -0.5541 -0.1492
   53CHL1   C19 3888   6.477   6.164   3.488  0.0992  0.3184  0.2448
   53CHL1  H19A 3889   6.435   6.097   3.565  3.7407 -1.6230  0.7693
   53CHL1  H19B 3890   6.463   6.107   3.394  4.6887 -1.3490  0.3167
   53CHL1  H19C 3891   6.585   6.193   3.493 -0.0642  1.3846 -1.4386
   53CHL1    C1 3892   6.253   6.261   3.446  0.2033 -0.8160  0.3334
   53CHL1   H1A 3893   6.203   6.198   3.523 -0.5417 -0.2918  0.2920
   53CHL1   H1B 3894   6.189   6.351   3.443  1.8743  0.3810 -1.3165
   53CHL1    C2 3895   6.231   6.200   3.310  0.8156  0.3127  0.1645
   53CHL1   H2A 3896   6.123   6.195   3.282  0.7780  2.9509 -0.3562
   53CHL1   H2B 3897   6.278   6.102   3.285 -1.8629 -0.6433 -1.6699
   53CHL1   C20 3898   6.547   6.538   4.134 -0.5644  0.3150 -0.5350
   53CHL1   H20 3899   6.625   6.460   4.148 -0.8661  0.1900  0.5523
   53CHL1   C21 3900   6.419   6.484   4.191  0.2924 -0.1935  0.1979
   53CHL1  H21A 3901   6.380   6.403   4.126  0.8595  0.7017 -1.3229
   53CHL1  H21B 3902   6.345   6.566   4.191 -0.2906 -0.7144  0.4127
   53CHL1  H21C 3903   6.428   6.451   4.296 -0.5611  0.1391  0.3805
   53CHL1   C22 3904   6.590   6.658   4.225  0.9422  0.2638 -0.1692
   53CHL1  H22A 3905   6.689   6.694   4.189 -0.2329  2.5357 -1.3751
   53CHL1  H22B 3906   6.518   6.742   4.217 -0.0735 -0.4882  0.8882
   53CHL1   C23 3907   6.611   6.627   4.376  0.4187  0.3704 -0.4542
   53CHL1  H23A 3908   6.509   6.623   4.420  0.1780  0.5084 -0.9962
   53CHL1  H23B 3909   6.662   6.528   4.381 -0.7860 -0.2461  0.3038
   53CHL1   C24 3910   6.684   6.730   4.462  0.6811  0.7652 -0.7728
   53CHL1  H24A 3911   6.786   6.747   4.421  0.8513  1.0055 -0.2552
   53CHL1  H24B 3912   6.625   6.824   4.465 -0.3727  0.1054 -0.0630
   53CHL1   C25 3913   6.705   6.674   4.609  0.4940  0.4310 -0.2326
   53CHL1   H25 3914   6.748   6.574   4.591  1.2201  0.4759  1.0954
   53CHL1   C26 3915   6.811   6.745   4.692  0.3633  0.4595 -0.0199
   53CHL1  H26A 3916   6.780   6.842   4.736  1.1266 -0.6274  3.1540
   53CHL1  H26B 3917   6.838   6.689   4.784  0.4621 -0.6300 -0.6940
   53CHL1  H26C 3918   6.886   6.761   4.612 -0.7530  2.7799 -0.6786
   53CHL1   C27 3919   6.575   6.676   4.691 -0.6168 -0.3888  0.0513
   53CHL1  H27A 3920   6.542   6.782   4.694  1.7180  0.3947 -0.0117
   53CHL1  H27B 3921   6.489   6.627   4.639 -0.8731 -0.9457  0.9717
   53CHL1  H27C 3922   6.590   6.656   4.799 -0.4486  0.8785  0.2736
   54CHL1    C3 3923   3.952   1.646   2.627  0.7394  0.0301 -0.5202
   54CHL1    H3 3924   3.968   1.756   2.623  1.1303 -0.0431 -4.2995
   54CHL1    O3 3925   3.980   1.601   2.495 -0.4400 -0.7111 -0.2600
   54CHL1   H3' 3926   4.063   1.646   2.478  0.0314 -0.5127  2.1847
   54CHL1    C4 3927   4.058   1.588   2.723 -0.4655 -0.0137  0.1340
   54CHL1   H4A 3928   4.067   1.481   2.696  0.2397  0.5140 -1.9629
   54CHL1   H4B 3929   4.159   1.625   2.694 -0.3872 -0.5797 -0.3313
   54CHL1    C5 3930   4.027   1.597   2.871 -0.2432 -0.3554  0.5052
   54CHL1    C6 3931   4.120   1.654   2.951 -0.3320 -1.0656  0.7822
   54CHL1    H6 3932   4.212   1.701   2.915 -0.2816 -1.8004 -0.0850
   54CHL1    C7 3933   4.101   1.663   3.095 -0.3575  0.1403 -0.2172
   54CHL1   H7A 3934   4.190   1.631   3.153 -2.5610 -0.6126  3.0122
   54CHL1   H7B 3935   4.088   1.770   3.120 -2.2315 -0.4681  1.6810
   54CHL1    C8 3936   3.978   1.587   3.147  0.0447 -0.5000 -0.0510
   54CHL1    H8 3937   4.006   1.480   3.154 -0.2516 -0.5320  0.7799
   54CHL1   C14 3938   3.943   1.638   3.293 -0.5564  0.0697 -0.4602
   54CHL1   H14 3939   3.908   1.743   3.288 -0.1263  0.2989  0.9232
   54CHL1   C15 3940   4.063   1.650   3.386 -0.4548 -0.0714 -0.0493
   54CHL1  H15A 3941   4.121   1.556   3.394  1.5055  1.0328 -0.5684
   54CHL1  H15B 3942   4.126   1.733   3.348 -0.9473 -0.0542 -0.8546
   54CHL1   C16 3943   3.994   1.685   3.522 -0.5259 -0.2879  0.5177
   54CHL1  H16A 3944   4.040   1.628   3.605 -1.4252  0.0353  1.2492
   54CHL1  H16B 3945   3.997   1.788   3.564 -1.6648 -0.3622  0.8141
   54CHL1   C17 3946   3.843   1.649   3.486  0.3943 -0.0041 -0.5269
   54CHL1   H17 3947   3.795   1.746   3.462  2.5530  0.8545 -1.5938
   54CHL1   C13 3948   3.830   1.571   3.358  0.4316 -0.2923  0.5162
   54CHL1   C18 3949   3.867   1.424   3.383 -0.3466 -0.1810  0.2198
   54CHL1  H18A 3950   3.778   1.373   3.425 -0.8510  1.8916  1.8265
   54CHL1  H18B 3951   3.907   1.379   3.289  2.0722  1.8706  0.1713
   54CHL1  H18C 3952   3.943   1.418   3.463 -1.0050 -0.1259  0.8560
   54CHL1   C12 3953   3.702   1.603   3.270 -0.6063  0.5872  0.0507
   54CHL1  H12A 3954   3.612   1.548   3.306  0.2129  0.2073  1.5836
   54CHL1  H12B 3955   3.687   1.713   3.271 -2.5258  0.3542  0.5520
   54CHL1   C11 3956   3.728   1.553   3.123  0.3454 -0.0632 -0.0915
   54CHL1  H11A 3957   3.736   1.442   3.122  0.9647 -0.0177 -0.2620
   54CHL1  H11B 3958   3.637   1.592   3.072 -0.0705 -0.9376 -0.0415
   54CHL1    C9 3959   3.860   1.606   3.059  0.6735 -0.3317  0.0326
   54CHL1    H9 3960   3.847   1.717   3.053  2.0757 -0.2401 -2.3314
   54CHL1   C10 3961   3.887   1.552   2.917 -0.3145 -0.9731  0.3232
   54CHL1   C19 3962   3.872   1.397   2.912  0.0287  0.1813  0.6701
   54CHL1  H19A 3963   3.916   1.359   2.817 -0.5070  2.3448 -0.5064
   54CHL1  H19B 3964   3.916   1.357   3.006 -0.6297 -0.0880  0.8677
   54CHL1  H19C 3965   3.763   1.376   2.914 -0.3311  1.8733  0.1682
   54CHL1    C1 3966   3.781   1.614   2.822 -0.5059  0.4898  0.5422
   54CHL1   H1A 3967   3.685   1.568   2.855 -0.7990  0.9030  0.2812
   54CHL1   H1B 3968   3.774   1.723   2.845 -1.4995  0.3356  1.0514
   54CHL1    C2 3969   3.810   1.590   2.672 -0.4730  0.6859 -0.2375
   54CHL1   H2A 3970   3.731   1.642   2.613 -0.0327 -1.6153 -3.0926
   54CHL1   H2B 3971   3.802   1.485   2.634 -0.0800  0.7942 -0.6266
   54CHL1   C20 3972   3.774   1.591   3.610  0.4131  0.5096  0.7056
   54CHL1   H20 3973   3.811   1.488   3.631  0.3796  0.6387  1.4229
   54CHL1   C21 3974   3.622   1.580   3.588  0.5559  0.1517 -0.7870
   54CHL1  H21A 3975   3.600   1.680   3.546 -2.0648  2.0035  4.1854
   54CHL1  H21B 3976   3.565   1.563   3.682  0.1590 -2.1138 -1.3746
   54CHL1  H21C 3977   3.593   1.501   3.515 -0.9175  0.9775 -1.1429
   54CHL1   C22 3978   3.796   1.669   3.739 -0.3988 -0.2931  0.7066
   54CHL1  H22A 3979   3.747   1.619   3.825  0.1095  0.3595  1.3928
   54CHL1  H22B 3980   3.904   1.670   3.765 -0.0605  3.0599 -0.2910
   54CHL1   C23 3981   3.747   1.816   3.734  0.3168  0.3380 -0.2126
   54CHL1  H23A 3982   3.793   1.871   3.649  0.4886 -1.9539 -1.6918
   54CHL1  H23B 3983   3.638   1.830   3.716  0.2769  1.0099  0.5062
   54CHL1   C24 3984   3.765   1.888   3.869  0.0367 -0.1490 -0.3501
   54CHL1  H24A 3985   3.705   1.834   3.946  1.3395 -0.0077  0.8115
   54CHL1  H24B 3986   3.869   1.875   3.905  0.0441  3.5668  1.5184
   54CHL1   C25 3987   3.742   2.046   3.861  0.1851  0.0299 -0.1926
   54CHL1   H25 3988   3.639   2.066   3.825  0.2499  0.4072 -0.1723
   54CHL1   C26 3989   3.751   2.100   4.006  0.0309  0.0015  0.0978
   54CHL1  H26A 3990   3.855   2.089   4.043  0.0612  2.3240  0.8129
   54CHL1  H26B 3991   3.729   2.209   4.006 -0.3395 -0.0718  0.0071
   54CHL1  H26C 3992   3.679   2.051   4.075  0.0417 -0.9272 -0.5300
   54CHL1   C27 3993   3.846   2.130   3.778 -0.3061 -0.9828 -0.5811
   54CHL1  H27A 3994   3.947   2.090   3.802 -2.0041 -4.0902  2.3088
   54CHL1  H27B 3995   3.829   2.112   3.670 -0.5437 -1.6569 -0.4391
   54CHL1  H27C 3996   3.829   2.239   3.794 -0.8374 -0.7700 -2.3868
   55CHL1    C3 3997   2.621   0.694   2.726 -0.0511 -0.4265  0.1411
   55CHL1    H3 3998   2.622   0.585   2.708 -0.1668 -0.2909 -0.7262
   55CHL1    O3 3999   2.648   0.754   2.600  0.1631  0.1661 -0.1512
   55CHL1   H3' 4000   2.576   0.715   2.550  1.9299 -2.6122 -0.6998
   55CHL1    C4 4001   2.482   0.749   2.775  0.3292  0.3132 -0.0408
   55CHL1   H4A 4002   2.477   0.855   2.744 -0.7423 -0.4327 -2.7467
   55CHL1   H4B 4003   2.402   0.704   2.711 -1.2067  2.8367 -0.0353
   55CHL1    C5 4004   2.454   0.732   2.926 -0.5404  0.0413  0.3179
   55CHL1    C6 4005   2.330   0.696   2.961 -0.2538 -0.8797 -0.5254
   55CHL1    H6 4006   2.251   0.680   2.886 -0.6932 -2.0619  0.1529
   55CHL1    C7 4007   2.300   0.690   3.111  0.0008  0.3397 -0.2348
   55CHL1   H7A 4008   2.204   0.744   3.128 -0.5097 -0.7705  0.5246
   55CHL1   H7B 4009   2.283   0.586   3.148 -0.1870  1.1977  2.3483
   55CHL1    C8 4010   2.402   0.736   3.213  0.1615 -0.3536  0.4449
   55CHL1    H8 4011   2.397   0.847   3.219  1.6133 -0.0692 -2.2274
   55CHL1   C14 4012   2.377   0.674   3.344 -0.1836 -0.5735  0.3537
   55CHL1   H14 4013   2.403   0.567   3.326  0.6407 -0.0473 -1.8288
   55CHL1   C15 4014   2.240   0.679   3.411  0.3651 -0.1528  0.2348
   55CHL1  H15A 4015   2.192   0.779   3.424  0.7374  0.0123  0.3382
   55CHL1  H15B 4016   2.167   0.614   3.358 -1.0820  0.7851  1.0113
   55CHL1   C16 4017   2.274   0.635   3.549 -0.2809  1.1114  0.0808
   55CHL1  H16A 4018   2.211   0.696   3.617 -1.0440  0.0340  0.3768
   55CHL1  H16B 4019   2.240   0.530   3.561  2.2262  0.2905  0.5750
   55CHL1   C17 4020   2.426   0.637   3.569 -0.4609  0.3753 -0.4338
   55CHL1   H17 4021   2.468   0.535   3.556 -1.0668 -0.0260  0.6142
   55CHL1   C13 4022   2.477   0.716   3.449  0.3163 -0.7086  0.0915
   55CHL1   C18 4023   2.459   0.863   3.481 -0.4914 -0.2090 -0.6076
   55CHL1  H18A 4024   2.527   0.893   3.564  2.5035 -0.4189 -2.8141
   55CHL1  H18B 4025   2.500   0.918   3.394 -1.1982  0.9081 -0.2550
   55CHL1  H18C 4026   2.358   0.889   3.519  0.0096  1.3234 -0.2325
   55CHL1   C12 4027   2.621   0.686   3.411 -0.2252  0.0348  0.1113
   55CHL1  H12A 4028   2.687   0.745   3.479 -0.7289  0.4463  0.2468
   55CHL1  H12B 4029   2.635   0.576   3.427 -0.3828 -0.2165 -1.4011
   55CHL1   C11 4030   2.648   0.728   3.269 -0.4701 -0.2064 -0.4862
   55CHL1  H11A 4031   2.650   0.839   3.267 -0.0372 -0.1962  0.1561
   55CHL1  H11B 4032   2.747   0.687   3.237  0.4529  0.7426  1.0451
   55CHL1    C9 4033   2.543   0.703   3.160 -0.6583  0.6348 -0.4936
   55CHL1    H9 4034   2.543   0.592   3.151 -1.7507  0.5895 -0.1492
   55CHL1   C10 4035   2.575   0.757   3.019  0.1163  0.4274 -0.1175
   55CHL1   C19 4036   2.592   0.913   3.020  0.2930 -0.0366 -0.7149
   55CHL1  H19A 4037   2.690   0.944   3.064  0.0585  2.0327 -1.5103
   55CHL1  H19B 4038   2.581   0.953   2.917 -0.0436  0.6131 -0.4308
   55CHL1  H19C 4039   2.514   0.958   3.085 -1.3798  1.7076 -3.6813
   55CHL1    C1 4040   2.698   0.687   2.964 -0.1162 -0.3390 -0.3542
   55CHL1   H1A 4041   2.778   0.717   3.036  0.9115 -0.6805 -1.3248
   55CHL1   H1B 4042   2.689   0.577   2.956 -0.1324 -0.3772  0.1669
   55CHL1    C2 4043   2.738   0.732   2.823 -0.2436  0.7331  0.2262
   55CHL1   H2A 4044   2.825   0.671   2.789  0.9378  3.7795 -2.9209
   55CHL1   H2B 4045   2.766   0.839   2.809 -1.0918  0.9286 -0.0228
   55CHL1   C20 4046   2.454   0.677   3.710  0.0843  0.3930 -0.6489
   55CHL1   H20 4047   2.418   0.780   3.730  0.5293  0.6072 -0.9307
   55CHL1   C21 4048   2.605   0.687   3.734  0.1137 -0.2724 -0.4287
   55CHL1  H21A 4049   2.624   0.700   3.843 -1.1217 -1.7106 -0.0183
   55CHL1  H21B 4050   2.649   0.778   3.686  3.6300 -0.2207  2.4398
   55CHL1  H21C 4051   2.662   0.599   3.696 -0.3147 -0.7156 -0.0466
   55CHL1   C22 4052   2.380   0.588   3.820 -1.1366  0.3141 -0.2151
   55CHL1  H22A 4053   2.280   0.554   3.787 -0.5203 -0.1012 -1.7635
   55CHL1  H22B 4054   2.443   0.497   3.834  0.0395  0.8441 -1.6958
   55CHL1   C23 4055   2.385   0.661   3.949  0.2228  0.1395 -0.5814
   55CHL1  H23A 4056   2.491   0.662   3.983 -0.1867 -1.7404  0.9044
   55CHL1  H23B 4057   2.350   0.766   3.936 -0.2418  0.0651  0.0091
   55CHL1   C24 4058   2.302   0.580   4.054 -0.6218 -0.3344 -0.2962
   55CHL1  H24A 4059   2.203   0.541   4.022  0.2807 -1.8353 -1.4072
   55CHL1  H24B 4060   2.368   0.493   4.077  2.3789  1.6586 -0.8005
   55CHL1   C25 4061   2.286   0.663   4.181  0.1085  1.1115  0.5134
   55CHL1   H25 4062   2.387   0.699   4.208  1.5336 -1.4284 -1.0483
   55CHL1   C26 4063   2.193   0.786   4.173  0.4854  0.0735 -0.1248
   55CHL1  H26A 4064   2.110   0.762   4.103  0.8256 -1.7282  0.0463
   55CHL1  H26B 4065   2.156   0.825   4.270  1.0354  0.8325 -0.2068
   55CHL1  H26C 4066   2.254   0.864   4.124  0.8832  1.2968  2.1917
   55CHL1   C27 4067   2.227   0.576   4.298 -0.2936  0.4358  0.3274
   55CHL1  H27A 4068   2.138   0.517   4.267  0.6799 -0.4422 -0.9143
   55CHL1  H27B 4069   2.309   0.505   4.323 -0.6609 -0.3911 -0.7197
   55CHL1  H27C 4070   2.211   0.639   4.388 -0.6094  1.3383 -0.3523
   56CHL1    C3 4071   2.549   1.205   2.701 -0.0447 -0.2041 -0.4969
   56CHL1    H3 4072   2.597   1.117   2.748 -0.0166  1.9554  3.9780
   56CHL1    O3 4073   2.587   1.212   2.563 -0.3008 -0.7162  0.2587
   56CHL1   H3' 4074   2.546   1.293   2.532 -1.3483 -0.6964  1.6150
   56CHL1    C4 4075   2.399   1.182   2.712 -0.6242 -0.0958  0.0254
   56CHL1   H4A 4076   2.336   1.255   2.657  1.0754  0.3667 -1.3593
   56CHL1   H4B 4077   2.368   1.087   2.663 -1.6400  1.0530 -1.6381
   56CHL1    C5 4078   2.352   1.186   2.860  0.1260  0.1212  0.1871
   56CHL1    C6 4079   2.288   1.085   2.915 -0.2805 -0.1962  0.2577
   56CHL1    H6 4080   2.260   1.005   2.845  2.3288 -0.2407 -0.8556
   56CHL1    C7 4081   2.242   1.078   3.054  1.2006 -0.4712 -1.2775
   56CHL1   H7A 4082   2.132   1.068   3.054  0.7352  2.5222  2.1347
   56CHL1   H7B 4083   2.291   0.988   3.098  0.3111 -0.7866 -0.8975
   56CHL1    C8 4084   2.264   1.206   3.147  0.0351  0.4623  0.1215
   56CHL1    H8 4085   2.183   1.280   3.129  0.4239  1.4260  2.0876
   56CHL1   C14 4086   2.264   1.160   3.293  0.2696 -0.5680  0.2178
   56CHL1   H14 4087   2.356   1.098   3.300  0.9254  0.3949  0.3232
   56CHL1   C15 4088   2.146   1.084   3.342 -0.6735  0.0747 -0.5321
   56CHL1  H15A 4089   2.051   1.117   3.295 -0.3696  0.9590 -0.5456
   56CHL1  H15B 4090   2.165   0.977   3.318 -1.4688 -0.2683  0.2822
   56CHL1   C16 4091   2.147   1.100   3.497 -0.0293 -0.1939  0.2806
   56CHL1  H16A 4092   2.050   1.141   3.533 -0.3743 -1.7048  1.1523
   56CHL1  H16B 4093   2.163   0.997   3.536 -0.9667  0.1307  1.5682
   56CHL1   C17 4094   2.273   1.194   3.522  0.0021  0.1525 -0.3970
   56CHL1   H17 4095   2.368   1.140   3.538  0.9474  1.5316 -1.1091
   56CHL1   C13 4096   2.295   1.274   3.388  0.1059  0.0591  0.4497
   56CHL1   C18 4097   2.192   1.390   3.378 -0.4524 -0.1818  0.3291
   56CHL1  H18A 4098   2.174   1.425   3.275  0.4610  1.0577  0.5628
   56CHL1  H18B 4099   2.092   1.363   3.419 -0.0355  0.9317  2.2133
   56CHL1  H18C 4100   2.240   1.478   3.426  2.7010 -1.4875 -0.1730
   56CHL1   C12 4101   2.439   1.330   3.350 -0.2194  1.1518 -0.9925
   56CHL1  H12A 4102   2.460   1.412   3.422  0.1296 -0.6658  1.0865
   56CHL1  H12B 4103   2.520   1.253   3.356 -0.5062  0.3900 -4.5542
   56CHL1   C11 4104   2.431   1.379   3.204  0.1144 -0.8954 -0.1605
   56CHL1  H11A 4105   2.361   1.463   3.186  3.0281  1.7386 -0.0064
   56CHL1  H11B 4106   2.530   1.420   3.177  0.2831 -0.0075  1.6821
   56CHL1    C9 4107   2.399   1.264   3.109 -0.6763  0.0625 -0.6366
   56CHL1    H9 4108   2.472   1.181   3.122  1.2924  1.7329 -0.5489
   56CHL1   C10 4109   2.412   1.295   2.953 -0.1290 -0.0572 -0.9298
   56CHL1   C19 4110   2.341   1.429   2.930  0.4376  0.1840  0.0853
   56CHL1  H19A 4111   2.239   1.429   2.974  0.0613  0.1954 -0.7641
   56CHL1  H19B 4112   2.401   1.514   2.967 -1.1112  1.6383 -0.6118
   56CHL1  H19C 4113   2.325   1.435   2.820 -2.3611 -0.4210  0.3837
   56CHL1    C1 4114   2.560   1.316   2.920  0.0218 -0.1262 -0.6313
   56CHL1   H1A 4115   2.602   1.405   2.973  0.8066  0.2685 -1.8661
   56CHL1   H1B 4116   2.611   1.226   2.960 -2.4594 -0.8151  1.2281
   56CHL1    C2 4117   2.589   1.333   2.769  0.5035  0.0368  0.3799
   56CHL1   H2A 4118   2.696   1.357   2.752  0.8778 -2.2959 -0.8889
   56CHL1   H2B 4119   2.537   1.407   2.704  0.0134 -1.2531 -0.7413
   56CHL1   C20 4120   2.261   1.277   3.649  0.2397  0.1617  0.9987
   56CHL1   H20 4121   2.173   1.345   3.637  0.4603 -0.0104 -3.1872
   56CHL1   C21 4122   2.391   1.353   3.676  0.3214  0.3866 -0.6122
   56CHL1  H21A 4123   2.398   1.452   3.627 -1.1614  0.8552  0.0611
   56CHL1  H21B 4124   2.482   1.297   3.644  0.2158 -0.4318  0.4300
   56CHL1  H21C 4125   2.399   1.383   3.783 -2.5915  1.8928 -0.7217
   56CHL1   C22 4126   2.235   1.175   3.764  0.3776  0.0962 -0.6875
   56CHL1  H22A 4127   2.152   1.107   3.736 -1.7571  1.6109  1.5082
   56CHL1  H22B 4128   2.325   1.128   3.808 -0.3540  1.2902  2.3769
   56CHL1   C23 4129   2.170   1.243   3.891 -0.0649  0.0422  0.0942
   56CHL1  H23A 4130   2.227   1.334   3.917  1.6586 -1.2683  1.1386
   56CHL1  H23B 4131   2.078   1.297   3.861  1.1218  0.7656 -2.4992
   56CHL1   C24 4132   2.165   1.158   4.014 -0.6450  0.2486  0.1065
   56CHL1  H24A 4133   2.094   1.075   3.991  0.2976 -0.5936  0.1708
   56CHL1  H24B 4134   2.265   1.118   4.042  0.4604  1.0634 -2.3901
   56CHL1   C25 4135   2.117   1.223   4.143  0.2296  0.3640 -0.2115
   56CHL1   H25 4136   2.012   1.259   4.133 -0.1059 -0.6395 -0.3557
   56CHL1   C26 4137   2.120   1.115   4.254 -0.2457  0.0109  0.8947
   56CHL1  H26A 4138   2.040   1.038   4.247 -0.0713 -0.3131  2.2643
   56CHL1  H26B 4139   2.219   1.065   4.258 -0.5023 -0.5605  0.1969
   56CHL1  H26C 4140   2.097   1.169   4.349 -3.7804  1.0115 -0.3645
   56CHL1   C27 4141   2.203   1.340   4.199  0.4878  0.0627  0.2203
   56CHL1  H27A 4142   2.197   1.431   4.137 -1.4894 -0.3669 -0.2898
   56CHL1  H27B 4143   2.149   1.378   4.289 -2.4380  0.5952 -1.6190
   56CHL1  H27C 4144   2.303   1.300   4.225 -0.6289 -1.2797  2.8006
   57SAPC     N 4145   3.277   1.850   6.685  0.2797 -0.1075  0.4016
   57SAPC   C12 4146   3.149   1.923   6.716  0.2007  0.1518  0.0393
   57SAPC  H12A 4147   3.110   1.965   6.625 -0.6581  0.7106  0.6485
   57SAPC  H12B 4148   3.172   2.011   6.774  2.5503 -0.7769  0.6711
   57SAPC   C13 4149   3.266   1.742   6.586  0.0162  0.7272 -0.0238
   57SAPC  H13A 4150   3.248   1.783   6.487 -0.4454  0.0311 -0.2353
   57SAPC  H13B 4151   3.348   1.672   6.593 -0.5124 -0.0314 -1.0195
   57SAPC  H13C 4152   3.177   1.692   6.620 -0.8656  1.5989 -0.9846
   57SAPC   C14 4153   3.375   1.958   6.635 -0.0870 -0.1936  0.4466
   57SAPC  H14A 4154   3.473   1.918   6.615  0.9417  1.4331  1.9184
   57SAPC  H14B 4155   3.337   2.014   6.551  0.7236  0.5353  0.5484
   57SAPC  H14C 4156   3.382   2.021   6.723 -3.3683 -1.4144  1.7672
   57SAPC   C15 4157   3.336   1.796   6.809  0.4380 -0.3451 -0.5876
   57SAPC  H15A 4158   3.272   1.722   6.853 -1.9955  2.0803  0.2162
   57SAPC  H15B 4159   3.433   1.749   6.799  0.7366 -0.3455  1.7940
   57SAPC  H15C 4160   3.346   1.879   6.878 -3.4653 -0.3516  0.1935
   57SAPC   C11 4161   3.035   1.825   6.774  0.0423 -0.3879  0.1340
   57SAPC  H11A 4162   2.971   1.889   6.839  3.1999  1.0112  2.1120
   57SAPC  H11B 4163   3.090   1.774   6.856  3.2708  0.8537 -1.1108
   57SAPC     P 4164   2.860   1.787   6.602 -0.1749 -0.0506 -0.4040
   57SAPC   O13 4165   2.751   1.809   6.692  0.3893 -0.0475 -0.5893
   57SAPC   O14 4166   2.912   1.901   6.522 -0.0310  0.0303 -0.9362
   57SAPC   O12 4167   2.980   1.729   6.682  0.0038 -0.4551 -0.3978
   57SAPC   O11 4168   2.827   1.665   6.509  0.5543 -0.5830 -0.7108
   57SAPC    C1 4169   2.862   1.532   6.551  0.5613 -0.4548  0.1683
   57SAPC    HA 4170   2.972   1.522   6.540  1.0600  2.7025  1.1110
   57SAPC    HB 4171   2.828   1.525   6.657 -1.4273 -1.5490 -0.5027
   57SAPC    C2 4172   2.779   1.430   6.476 -0.0285 -0.2587  0.1372
   57SAPC    HS 4173   2.777   1.332   6.529 -0.4510 -1.1447 -1.4487
   57SAPC   O21 4174   2.830   1.414   6.337  0.0792  0.6952 -0.1284
   57SAPC   C21 4175   2.950   1.353   6.329 -0.3060  0.3396 -0.4092
   57SAPC   O22 4176   3.006   1.295   6.423  0.0655 -0.6834 -0.2323
   57SAPC   C22 4177   3.008   1.360   6.186 -0.0983  0.3832  0.2472
   57SAPC   H2R 4178   3.036   1.258   6.155 -1.1509  0.1869 -0.0900
   57SAPC   H2S 4179   2.935   1.406   6.116  0.2645  1.2711  0.4301
   57SAPC    C3 4180   2.621   1.462   6.481 -0.4553 -0.4970  0.4480
   57SAPC    HX 4181   2.603   1.540   6.404  0.8707 -1.0360 -0.4463
   57SAPC    HY 4182   2.608   1.488   6.588  0.6684 -1.3808  0.8268
   57SAPC   O31 4183   2.538   1.352   6.435  0.3545  0.3029 -0.4089
   57SAPC   C31 4184   2.406   1.374   6.445  0.1341 -0.7558  0.0514
   57SAPC   O32 4185   2.362   1.476   6.500  0.4150 -0.1870 -0.4327
   57SAPC   C32 4186   2.323   1.256   6.375  0.1811  0.1422 -0.5848
   57SAPC   H2X 4187   2.220   1.296   6.361  0.0941  0.8010  1.6010
   57SAPC   H2Y 4188   2.321   1.184   6.460  1.1262  0.9521  0.1537
   57SAPC   C23 4189   3.131   1.452   6.190 -0.2504 -0.4664 -0.3457
   57SAPC   H3R 4190   3.213   1.405   6.248  0.2687 -0.0774 -0.7543
   57SAPC   H3S 4191   3.100   1.546   6.241  0.8651 -0.1101 -0.3092
   57SAPC   C24 4192   3.179   1.481   6.050  0.0990  0.4891  0.4703
   57SAPC   H4R 4193   3.178   1.393   5.983  0.1892  0.4934  0.4625
   57SAPC   H4S 4194   3.284   1.516   6.047  0.0336  0.6460 -1.8545
   57SAPC   C25 4195   3.094   1.592   5.988  0.1531  0.1962  0.2261
   57SAPC   H5R 4196   3.039   1.651   6.064  0.6192 -0.6231  1.2294
   57SAPC   C26 4197   3.061   1.613   5.857  0.0913  0.2140  0.8623
   57SAPC   H6R 4198   3.011   1.706   5.826  0.0954  0.2153  0.8594
   57SAPC   C27 4199   3.104   1.526   5.744  0.6223 -0.4640 -0.1802
   57SAPC   H7R 4200   3.034   1.439   5.748 -1.9357  1.5284  0.6629
   57SAPC   H7S 4201   3.211   1.497   5.752  0.2454 -1.7492  0.5564
   57SAPC   C28 4202   3.090   1.594   5.610  0.3982 -0.6295 -0.1905
   57SAPC   H8R 4203   3.091   1.703   5.606  0.3774 -0.6346 -0.3476
   57SAPC   C29 4204   3.078   1.533   5.487 -0.4754 -0.6805 -0.2360
   57SAPC   H9R 4205   3.059   1.596   5.399 -2.8391  0.6449  1.1372
   57SAPC  C210 4206   3.051   1.381   5.465  0.4429  0.0920  0.6584
   57SAPC  H10R 4207   3.056   1.331   5.565 -0.0444  0.6876  0.9846
   57SAPC  H10S 4208   3.136   1.347   5.402  0.4199  1.5947 -0.2144
   57SAPC  C211 4209   2.916   1.346   5.408  0.2919 -0.0537  0.2740
   57SAPC  H11R 4210   2.835   1.362   5.481  0.0938  0.1928  0.0032
   57SAPC  C212 4211   2.891   1.314   5.282 -0.6101 -0.3534 -0.1864
   57SAPC  H12R 4212   2.790   1.274   5.269 -1.4505  1.5283  0.1383
   57SAPC  C213 4213   2.989   1.303   5.166 -0.9641 -0.4874 -0.0640
   57SAPC  H13R 4214   2.927   1.255   5.088 -2.3055  1.4746 -0.2887
   57SAPC  H13S 4215   3.070   1.228   5.182 -1.3072 -1.3069 -1.9097
   57SAPC  C214 4216   3.050   1.435   5.117 -0.7869  0.1140  0.3136
   57SAPC  H14R 4217   3.139   1.470   5.171 -0.2680  0.3254 -0.6598
   57SAPC  C215 4218   3.017   1.505   5.006  0.0982  0.3177 -0.2665
   57SAPC  H15R 4219   3.080   1.593   4.987  0.7338 -0.3837 -1.4435
   57SAPC  C216 4220   2.909   1.464   4.911  0.2501 -0.1748 -0.6413
   57SAPC  H16R 4221   2.815   1.514   4.943  0.8729  0.6090  0.0078
   57SAPC  H16S 4222   2.894   1.354   4.916 -1.5880  0.0151 -1.2128
   57SAPC  C217 4223   2.935   1.506   4.765 -0.4332 -0.6149  0.0866
   57SAPC  H17R 4224   2.974   1.610   4.767  1.8112 -1.3275 -2.0425
   57SAPC  H17S 4225   2.842   1.488   4.708 -0.1351 -1.3825 -0.1647
   57SAPC  C218 4226   3.055   1.429   4.704  0.2870  0.5220 -0.5665
   57SAPC  H18R 4227   3.035   1.321   4.724 -1.2036  1.1503  1.5846
   57SAPC  H18S 4228   3.152   1.443   4.756  0.7716 -1.8132 -0.7192
   57SAPC  C219 4229   3.086   1.438   4.553  0.4286  0.4934  0.5896
   57SAPC  H19R 4230   2.996   1.411   4.494  2.0061 -0.3257 -1.5862
   57SAPC  H19S 4231   3.155   1.359   4.516  0.7994  0.4870  1.2664
   57SAPC  C220 4232   3.159   1.570   4.517  0.4913  0.1495  0.2812
   57SAPC  H20R 4233   3.169   1.579   4.406  0.4847  0.3230  0.2949
   57SAPC  H20S 4234   3.268   1.565   4.541  0.8369 -2.6846 -1.4346
   57SAPC  H20T 4235   3.107   1.658   4.561  1.8968 -1.0805  4.9047
   57SAPC   C33 4236   2.393   1.206   6.245 -0.1156  0.3303  0.2172
   57SAPC   H3X 4237   2.359   1.102   6.222  0.2275  0.3393 -0.3616
   57SAPC   H3Y 4238   2.504   1.204   6.244 -0.1062 -0.4485 -1.3624
   57SAPC   C34 4239   2.355   1.290   6.122  0.7158  0.4954  0.5619
   57SAPC   H4X 4240   2.370   1.398   6.142 -1.2958  0.8459  0.3590
   57SAPC   H4Y 4241   2.246   1.290   6.103  0.9738 -0.1620 -1.0502
   57SAPC   C35 4242   2.409   1.231   5.990 -0.1366 -0.1985  0.8366
   57SAPC   H5X 4243   2.388   1.123   5.975 -0.7941  0.1921 -1.4173
   57SAPC   H5Y 4244   2.519   1.240   5.985 -0.3017  2.6163  0.4048
   57SAPC   C36 4245   2.365   1.307   5.858 -0.4022  0.7669 -0.1502
   57SAPC   H6X 4246   2.401   1.412   5.869  0.8785  0.4131 -0.8221
   57SAPC   H6Y 4247   2.254   1.309   5.860 -0.4750 -1.4511  1.2202
   57SAPC   C37 4248   2.420   1.233   5.730 -0.1222  0.0713 -0.2078
   57SAPC   H7X 4249   2.391   1.126   5.733  2.1870 -0.6221 -0.6512
   57SAPC   H7Y 4250   2.530   1.229   5.748  0.3592  3.3172 -1.6779
   57SAPC   C38 4251   2.393   1.312   5.599  0.2108 -0.0774  0.7518
   57SAPC   H8X 4252   2.427   1.416   5.618 -1.0820  0.2153  1.5895
   57SAPC   H8Y 4253   2.284   1.301   5.579  0.2458  1.8648 -0.7641
   57SAPC   C39 4254   2.477   1.265   5.484  0.2585  0.0005  0.1885
   57SAPC   H9X 4255   2.453   1.161   5.456 -0.8833 -0.0280  1.2207
   57SAPC   H9Y 4256   2.585   1.276   5.510  1.6314  1.1945 -4.8217
   57SAPC  C310 4257   2.446   1.355   5.364 -0.1563  0.1256  0.3107
   57SAPC  H10X 4258   2.497   1.451   5.384 -1.1723  0.3357  1.9802
   57SAPC  H10Y 4259   2.339   1.381   5.353 -0.3534 -0.0268  1.7062
   57SAPC  C311 4260   2.485   1.290   5.235 -0.7503  0.8108 -0.0274
   57SAPC  H11X 4261   2.411   1.215   5.199  1.1920 -0.6922 -1.1274
   57SAPC  H11Y 4262   2.575   1.226   5.241 -2.3591 -1.5959  0.0726
   57SAPC  C312 4263   2.502   1.399   5.127 -0.0326 -0.2418 -0.5324
   57SAPC  H12X 4264   2.598   1.452   5.141 -0.1206 -0.2191  0.0076
   57SAPC  H12Y 4265   2.432   1.486   5.134  0.5674  0.1958  0.1253
   57SAPC  C313 4266   2.508   1.352   4.986 -0.1751 -0.4008 -0.1545
   57SAPC  H13X 4267   2.534   1.439   4.922  1.8827 -1.1850 -0.4746
   57SAPC  H13Y 4268   2.405   1.315   4.966 -0.0200 -1.3569  0.7151
   57SAPC  C314 4269   2.602   1.240   4.955  0.1214 -0.1030 -0.4150
   57SAPC  H14X 4270   2.558   1.145   4.992 -0.3364 -0.6091 -2.1594
   57SAPC  H14Y 4271   2.701   1.263   5.001  0.8764 -1.7810 -1.1105
   57SAPC  C315 4272   2.618   1.223   4.794  0.5008  0.7538 -0.8720
   57SAPC  H15X 4273   2.719   1.180   4.780  0.8043  0.9428  0.5467
   57SAPC  H15Y 4274   2.598   1.315   4.735 -0.6767  1.8539  1.1374
   57SAPC  C316 4275   2.520   1.116   4.745  0.0483  0.6562  0.4989
   57SAPC  H16X 4276   2.420   1.164   4.740 -0.3777  0.4223  4.2339
   57SAPC  H16Y 4277   2.522   1.026   4.809 -0.7480 -1.3513 -2.1017
   57SAPC  C317 4278   2.556   1.062   4.604  0.2136  0.7989 -0.2802
   57SAPC  H17X 4279   2.665   1.044   4.594 -0.2863 -2.0128 -1.4899
   57SAPC  H17Y 4280   2.506   1.140   4.541 -3.1953 -0.3635  0.7722
   57SAPC  C318 4281   2.478   0.933   4.583 -0.0992 -0.0326 -0.2950
   57SAPC  H18X 4282   2.520   0.885   4.492 -2.1831  0.8557 -1.7816
   57SAPC  H18Y 4283   2.371   0.961   4.579 -0.1854 -0.1742  0.7959
   57SAPC  H18Z 4284   2.488   0.862   4.668  0.0959 -0.7040 -0.8661
   58SAPC     N 4285   6.527   0.821   6.988 -0.1907 -0.0975  0.2935
   58SAPC   C12 4286   6.600   0.858   6.854  0.5488 -0.4695  0.1073
   58SAPC  H12A 4287   6.599   0.768   6.795 -0.2919  0.6219 -1.6419
   58SAPC  H12B 4288   6.702   0.882   6.880 -0.5938  1.4216  3.3992
   58SAPC   C13 4289   6.382   0.792   6.972  0.4014 -0.0183  0.0066
   58SAPC  H13A 4290   6.340   0.873   6.913  0.1542  0.5079  0.8840
   58SAPC  H13B 4291   6.354   0.704   6.917  0.1387 -0.4484  0.8174
   58SAPC  H13C 4292   6.338   0.791   7.070  1.2561  0.4212  0.4071
   58SAPC   C14 4293   6.592   0.700   7.049 -0.0753  0.3972  0.7774
   58SAPC  H14A 4294   6.534   0.657   7.130 -0.9676  0.2785  0.0952
   58SAPC  H14B 4295   6.586   0.612   6.987  2.4903 -0.9745  2.3152
   58SAPC  H14C 4296   6.695   0.711   7.077 -0.2095  0.9282  1.0747
   58SAPC   C15 4297   6.532   0.939   7.082 -0.3555  0.6882  0.1235
   58SAPC  H15A 4298   6.477   0.913   7.171 -1.3383 -1.0202 -0.9138
   58SAPC  H15B 4299   6.635   0.961   7.103 -0.0999  0.0943 -0.4681
   58SAPC  H15C 4300   6.488   1.028   7.040 -0.6459  0.6648  0.3757
   58SAPC   C11 4301   6.529   0.953   6.763  0.3801 -0.5709  0.0322
   58SAPC  H11A 4302   6.435   0.917   6.717 -2.1656  2.1203  2.6968
   58SAPC  H11B 4303   6.603   0.973   6.682 -1.6673 -0.8283 -2.0059
   58SAPC     P 4304   6.404   1.174   6.812 -0.0291  0.3019 -0.1682
   58SAPC   O13 4305   6.279   1.097   6.852 -0.0941  0.4469 -0.1007
   58SAPC   O14 4306   6.439   1.295   6.887  0.3368  0.2256  0.5920
   58SAPC   O12 4307   6.517   1.073   6.838 -0.0390  0.1711  0.3065
   58SAPC   O11 4308   6.403   1.192   6.659  0.0157  0.2170  0.2477
   58SAPC    C1 4309   6.518   1.241   6.585  0.6890 -0.4943 -0.5148
   58SAPC    HA 4310   6.535   1.347   6.611 -0.8446  0.2679 -2.3945
   58SAPC    HB 4311   6.610   1.180   6.602  0.1557 -0.7619  1.8030
   58SAPC    C2 4312   6.498   1.227   6.436  0.7208  0.1940  0.4863
   58SAPC    HS 4313   6.580   1.283   6.385 -0.8795 -0.2026 -2.8170
   58SAPC   O21 4314   6.372   1.279   6.391 -0.5917 -0.4544  0.1023
   58SAPC   C21 4315   6.371   1.411   6.390  0.3645  0.8752  0.0687
   58SAPC   O22 4316   6.456   1.485   6.442  0.5624 -0.0696  0.5030
   58SAPC   C22 4317   6.252   1.449   6.318 -0.4079 -0.0614  0.3806
   58SAPC   H2R 4318   6.198   1.373   6.259  0.7309  1.1300 -2.3608
   58SAPC   H2S 4319   6.177   1.488   6.390  0.2819 -0.1554  1.1729
   58SAPC    C3 4320   6.504   1.083   6.377 -0.1433  0.3494  0.7101
   58SAPC    HX 4321   6.416   1.024   6.409 -0.2033 -0.5692 -1.0390
   58SAPC    HY 4322   6.595   1.031   6.413 -0.1180 -0.2714 -0.2197
   58SAPC   O31 4323   6.517   1.078   6.235 -0.1930  0.0188  0.0471
   58SAPC   C31 4324   6.412   1.068   6.154  0.1582 -0.1161  0.5069
   58SAPC   O32 4325   6.293   1.053   6.192  0.2003  0.0474 -0.5157
   58SAPC   C32 4326   6.455   1.077   6.004  0.9211  0.7133  0.9743
   58SAPC   H2X 4327   6.494   0.978   5.972 -2.2524  0.0408 -1.2193
   58SAPC   H2Y 4328   6.532   1.157   6.005 -0.4808  2.0952  0.8993
   58SAPC   C23 4329   6.276   1.560   6.209  0.1828  0.1019  0.2381
   58SAPC   H3R 4330   6.325   1.654   6.244  2.5122 -0.5257 -1.1104
   58SAPC   H3S 4331   6.179   1.600   6.173  0.4413  0.8491  0.3500
   58SAPC   C24 4332   6.363   1.505   6.085 -0.4607  0.7602 -0.5160
   58SAPC   H4R 4333   6.302   1.432   6.026 -1.1484  2.7586 -2.4038
   58SAPC   H4S 4334   6.461   1.465   6.118 -0.8104  0.8299  0.6603
   58SAPC   C25 4335   6.396   1.618   5.984 -0.4782  0.7798  0.2895
   58SAPC   H5R 4336   6.483   1.679   6.014  0.9058 -1.1324  0.3428
   58SAPC   C26 4337   6.354   1.644   5.857  0.3487 -0.1806  0.1391
   58SAPC   H6R 4338   6.406   1.733   5.818 -0.4987 -0.2856 -1.2963
   58SAPC   C27 4339   6.256   1.562   5.769 -0.9028  0.2512 -0.4536
   58SAPC   H7R 4340   6.151   1.596   5.776 -1.0221 -0.2166  0.1543
   58SAPC   H7S 4341   6.267   1.454   5.794 -0.4813 -0.6361 -3.9259
   58SAPC   C28 4342   6.295   1.571   5.620 -0.0514 -0.2925 -0.2465
   58SAPC   H8R 4343   6.341   1.480   5.580  2.6589 -0.1169  2.0992
   58SAPC   C29 4344   6.249   1.664   5.530 -0.7522 -0.5375 -0.5070
   58SAPC   H9R 4345   6.295   1.674   5.430  2.8149  1.3907  1.1120
   58SAPC  C210 4346   6.166   1.781   5.563 -0.8266  0.4140 -0.0882
   58SAPC  H10R 4347   6.215   1.862   5.504 -0.1293 -0.5944 -0.9288
   58SAPC  H10S 4348   6.175   1.809   5.670  0.0298  1.7121 -0.4724
   58SAPC  C211 4349   6.019   1.754   5.549 -0.4457 -0.1766  0.4611
   58SAPC  H11R 4350   5.975   1.674   5.610  0.5415 -0.0260  1.4029
   58SAPC  C212 4351   5.931   1.841   5.482  0.2563  0.6836  0.0333
   58SAPC  H12R 4352   5.822   1.834   5.478  0.1093  2.6913 -0.4569
   58SAPC  C213 4353   5.979   1.970   5.427 -0.4374  0.4132 -0.2009
   58SAPC  H13R 4354   6.065   1.940   5.363 -0.1084  1.2924 -0.1885
   58SAPC  H13S 4355   6.022   2.019   5.518  0.2784 -0.1707 -0.2158
   58SAPC  C214 4356   5.871   2.062   5.376  0.1085 -0.1691  0.0471
   58SAPC  H14R 4357   5.868   2.160   5.425  0.6867 -0.1435  0.0433
   58SAPC  C215 4358   5.805   2.047   5.260 -0.4731  0.8993 -0.0779
   58SAPC  H15R 4359   5.731   2.125   5.237  0.4846  1.6062 -0.8444
   58SAPC  C216 4360   5.814   1.930   5.171  0.3003 -0.1085 -0.2789
   58SAPC  H16R 4361   5.714   1.880   5.180  0.6141 -0.6216  0.5191
   58SAPC  H16S 4362   5.901   1.866   5.196  0.7279 -0.1872 -1.8985
   58SAPC  C217 4363   5.835   1.964   5.021  0.9057 -0.3427 -0.1693
   58SAPC  H17R 4364   5.856   1.865   4.975 -0.1093 -0.9004  0.5314
   58SAPC  H17S 4365   5.928   2.020   4.998  1.3618 -1.1588 -0.3210
   58SAPC  C218 4366   5.705   2.028   4.961  0.3806 -0.0434  0.9416
   58SAPC  H18R 4367   5.692   2.126   5.013  2.1749  0.4731  0.4932
   58SAPC  H18S 4368   5.620   1.960   4.980  1.5477 -0.9336  3.3920
   58SAPC  C219 4369   5.721   2.068   4.812  0.1217 -0.6006 -0.3201
   58SAPC  H19R 4370   5.755   1.976   4.759  1.6455 -0.4506  0.3490
   58SAPC  H19S 4371   5.793   2.151   4.795 -1.8883  1.3803  0.4014
   58SAPC  C220 4372   5.591   2.127   4.757 -0.1802 -0.3837 -0.0845
   58SAPC  H20R 4373   5.536   2.167   4.845 -0.2262 -2.9989  1.1649
   58SAPC  H20S 4374   5.530   2.061   4.692 -0.0477 -2.0877  1.4526
   58SAPC  H20T 4375   5.615   2.216   4.694 -0.0218  0.1212  0.6690
   58SAPC   C33 4376   6.339   1.121   5.910 -0.4768 -0.1239 -0.5259
   58SAPC   H3X 4377   6.307   1.221   5.945  2.5790  1.2141 -1.2122
   58SAPC   H3Y 4378   6.256   1.048   5.920  0.1829 -0.6826  1.5100
   58SAPC   C34 4379   6.388   1.143   5.768 -0.0317  1.1013  0.1166
   58SAPC   H4X 4380   6.483   1.200   5.766  2.8907 -3.3089 -0.8179
   58SAPC   H4Y 4381   6.310   1.209   5.723 -1.4916 -0.5820  0.0695
   58SAPC   C35 4382   6.398   1.018   5.678  0.2255  0.1394 -0.3716
   58SAPC   H5X 4383   6.297   0.974   5.665  0.6469 -2.3398  3.2453
   58SAPC   H5Y 4384   6.468   0.943   5.722 -1.2008 -0.0955  1.6559
   58SAPC   C36 4385   6.470   1.054   5.549 -0.0435  0.7109 -0.6365
   58SAPC   H6X 4386   6.484   0.970   5.478 -2.8680  2.3599 -3.3968
   58SAPC   H6Y 4387   6.573   1.089   5.572  0.6150 -1.2972 -0.3510
   58SAPC   C37 4388   6.397   1.168   5.461  0.0195  0.3770 -0.8071
   58SAPC   H7X 4389   6.391   1.257   5.527  0.2811  0.9238 -1.5002
   58SAPC   H7Y 4390   6.299   1.121   5.439 -0.3549 -0.3252  2.0130
   58SAPC   C38 4391   6.489   1.210   5.347 -0.0505 -0.7905  0.0787
   58SAPC   H8X 4392   6.507   1.138   5.264 -0.0235  0.2779 -0.8656
   58SAPC   H8Y 4393   6.591   1.228   5.386 -0.3025  1.0799 -0.0339
   58SAPC   C39 4394   6.444   1.337   5.268 -0.2256 -1.1983 -0.0719
   58SAPC   H9X 4395   6.433   1.411   5.349 -1.8166 -2.6087  1.0660
   58SAPC   H9Y 4396   6.339   1.316   5.239 -0.7170 -1.9778  2.1278
   58SAPC  C310 4397   6.552   1.376   5.159  0.7378 -0.2140  0.1883
   58SAPC  H10X 4398   6.568   1.295   5.085  0.7798 -0.3274  0.3201
   58SAPC  H10Y 4399   6.642   1.418   5.209  1.0671  2.3738 -2.3141
   58SAPC  C311 4400   6.497   1.485   5.068 -0.0769 -0.1052  0.3918
   58SAPC  H11X 4401   6.473   1.563   5.144 -0.8338 -1.5379  1.6886
   58SAPC  H11Y 4402   6.406   1.454   5.012 -0.4445  0.3231  0.7443
   58SAPC  C312 4403   6.600   1.545   4.968 -0.3437  0.8175  0.0547
   58SAPC  H12X 4404   6.697   1.581   5.009  0.4249 -0.2963 -0.7123
   58SAPC  H12Y 4405   6.542   1.630   4.927 -1.9725 -1.2670 -2.2706
   58SAPC  C313 4406   6.641   1.441   4.862  0.3437 -0.4687  0.4187
   58SAPC  H13X 4407   6.541   1.395   4.842 -0.1571  0.1064  1.5257
   58SAPC  H13Y 4408   6.709   1.357   4.887 -1.0053 -2.5431 -2.2521
   58SAPC  C314 4409   6.699   1.504   4.738 -0.1819  0.3039 -0.0738
   58SAPC  H14X 4410   6.800   1.548   4.756 -0.4683  1.7737 -1.8239
   58SAPC  H14Y 4411   6.641   1.594   4.711  0.6548  1.1640  0.8722
   58SAPC  C315 4412   6.710   1.408   4.618  0.3017 -0.6288  0.6318
   58SAPC  H15X 4413   6.607   1.371   4.600  0.9446 -1.5885 -1.4195
   58SAPC  H15Y 4414   6.781   1.324   4.633  2.7593  1.2161 -0.0727
   58SAPC  C316 4415   6.731   1.493   4.494 -0.6241  0.0032  0.4155
   58SAPC  H16X 4416   6.837   1.526   4.495 -0.7947  0.5695 -0.0186
   58SAPC  H16Y 4417   6.647   1.565   4.489 -0.8034 -0.2518 -0.3417
   58SAPC  C317 4418   6.717   1.406   4.362 -0.1799 -0.4203  0.0375
   58SAPC  H17X 4419   6.706   1.477   4.277  0.5103 -0.4830 -0.1125
   58SAPC  H17Y 4420   6.630   1.338   4.378 -0.2974 -0.4012 -0.4973
   58SAPC  C318 4421   6.835   1.314   4.341 -0.0262 -0.2075  0.6743
   58SAPC  H18X 4422   6.929   1.366   4.312  0.2042  0.3935  2.4291
   58SAPC  H18Y 4423   6.798   1.235   4.271 -2.9453  1.2093  0.4385
   58SAPC  H18Z 4424   6.863   1.263   4.435  0.2372 -0.3568  0.5162
   59SAPC     N 4425   5.623   2.919   6.893 -0.1077  0.1530 -0.3288
   59SAPC   C12 4426   5.607   2.964   6.752 -0.2934 -0.1558 -0.1416
   59SAPC  H12A 4427   5.517   2.927   6.706 -0.0740 -0.5153 -0.2906
   59SAPC  H12B 4428   5.673   2.910   6.685 -1.1080  1.1121 -2.0639
   59SAPC   C13 4429   5.521   2.978   6.975  0.4982 -0.0374  0.4972
   59SAPC  H13A 4430   5.423   2.952   6.939  0.5043 -1.7995  1.6182
   59SAPC  H13B 4431   5.522   2.951   7.080  0.9251 -1.1927  0.2070
   59SAPC  H13C 4432   5.538   3.084   6.964 -0.9902 -0.0016 -2.0889
   59SAPC   C14 4433   5.627   2.777   6.885  0.2769  0.1442  0.0019
   59SAPC  H14A 4434   5.667   2.730   6.974  0.0965 -0.6280 -0.3194
   59SAPC  H14B 4435   5.530   2.737   6.860  0.3746 -0.6906  0.8939
   59SAPC  H14C 4436   5.686   2.742   6.802  2.1697 -2.0131  2.1207
   59SAPC   C15 4437   5.756   2.968   6.958  0.4698  0.2536 -0.0023
   59SAPC  H15A 4438   5.760   2.940   7.062  0.5811 -0.7370 -0.2589
   59SAPC  H15B 4439   5.838   2.919   6.909  1.5928  1.2223  0.8653
   59SAPC  H15C 4440   5.779   3.073   6.958  0.5722  0.2622 -2.0206
   59SAPC   C11 4441   5.628   3.110   6.719  0.0889 -0.3259  0.1021
   59SAPC  H11A 4442   5.642   3.129   6.611  0.5116 -0.1551  0.1855
   59SAPC  H11B 4443   5.723   3.136   6.772  1.0654  0.1482 -1.8056
   59SAPC     P 4444   5.380   3.186   6.684  0.7559  0.0686  0.1630
   59SAPC   O13 4445   5.332   3.044   6.682  0.1385 -0.6574 -0.0320
   59SAPC   O14 4446   5.293   3.283   6.745  0.2568 -0.0874  0.1611
   59SAPC   O12 4447   5.517   3.185   6.769 -0.3246 -0.5502 -0.0468
   59SAPC   O11 4448   5.429   3.234   6.544  0.5648  0.4958  0.2517
   59SAPC    C1 4449   5.401   3.141   6.434 -0.1676  0.4819  0.1710
   59SAPC    HA 4450   5.475   3.060   6.418 -2.4898 -1.5956 -0.6605
   59SAPC    HB 4451   5.299   3.101   6.445 -0.4304  1.1397  0.1830
   59SAPC    C2 4452   5.405   3.215   6.299 -0.3988 -0.3759 -0.1520
   59SAPC    HS 4453   5.395   3.138   6.219  1.7328 -2.0176  1.0501
   59SAPC   O21 4454   5.522   3.299   6.288  0.3648  0.2745  0.5240
   59SAPC   C21 4455   5.632   3.237   6.261 -0.2853 -0.5165 -0.2768
   59SAPC   O22 4456   5.648   3.113   6.255  0.2835 -0.0994  0.3103
   59SAPC   C22 4457   5.746   3.334   6.250 -0.5770 -0.8658 -0.5320
   59SAPC   H2R 4458   5.744   3.385   6.349  0.0670 -1.0680 -0.4128
   59SAPC   H2S 4459   5.841   3.281   6.228 -0.2421  0.6851 -3.2406
   59SAPC    C3 4460   5.283   3.314   6.299 -0.9817  0.3794  0.3036
   59SAPC    HX 4461   5.315   3.404   6.244  0.8687 -0.2844  0.2376
   59SAPC    HY 4462   5.253   3.351   6.400 -2.0817 -1.5137  0.7289
   59SAPC   O31 4463   5.172   3.253   6.243  0.1854  0.1064  0.1853
   59SAPC   C31 4464   5.169   3.228   6.113 -0.2127 -0.2666  0.2250
   59SAPC   O32 4465   5.230   3.292   6.027 -0.1527 -0.0551 -0.6983
   59SAPC   C32 4466   5.080   3.103   6.080 -0.0605  0.6823 -0.9451
   59SAPC   H2X 4467   4.995   3.103   6.151  1.1832 -0.8509  0.6323
   59SAPC   H2Y 4468   5.148   3.016   6.095 -1.0388  0.2606  1.3099
   59SAPC   C23 4469   5.723   3.456   6.151  0.0240 -0.2816 -0.1577
   59SAPC   H3R 4470   5.803   3.526   6.183 -2.5562  0.9210  4.5106
   59SAPC   H3S 4471   5.632   3.519   6.162  0.3485  0.9365 -3.3228
   59SAPC   C24 4472   5.734   3.409   6.004 -0.1159 -0.5914  0.2500
   59SAPC   H4R 4473   5.819   3.337   6.000 -0.9967 -1.6633  0.1703
   59SAPC   H4S 4474   5.747   3.499   5.941 -0.8190 -0.7158 -0.0836
   59SAPC   C25 4475   5.611   3.336   5.956 -0.1415 -0.5235 -0.3836
   59SAPC   H5R 4476   5.560   3.274   6.030  0.2763  1.5392  1.7558
   59SAPC   C26 4477   5.550   3.342   5.833  0.4275  1.1597  0.3870
   59SAPC   H6R 4478   5.461   3.279   5.819 -0.8290  2.3294  2.5180
   59SAPC   C27 4479   5.598   3.425   5.715  0.1758 -0.2028  1.0151
   59SAPC   H7R 4480   5.663   3.513   5.732 -1.3961  1.2990 -0.4160
   59SAPC   H7S 4481   5.502   3.467   5.679  0.0728 -1.3688 -0.1498
   59SAPC   C28 4482   5.673   3.357   5.595  0.0474  0.6281 -0.4690
   59SAPC   H8R 4483   5.750   3.289   5.634  0.7797  0.9936 -1.2437
   59SAPC   C29 4484   5.670   3.384   5.462  0.3978  0.9891  0.2740
   59SAPC   H9R 4485   5.742   3.329   5.399 -0.4118  0.7501 -0.4519
   59SAPC  C210 4486   5.570   3.469   5.392  0.5540  0.0984  0.3162
   59SAPC  H10R 4487   5.615   3.570   5.384 -0.4586  0.5367  0.1328
   59SAPC  H10S 4488   5.478   3.474   5.454  1.3787  1.1003  1.5053
   59SAPC  C211 4489   5.546   3.420   5.249  0.2261 -0.7744 -0.1557
   59SAPC  H11R 4490   5.451   3.365   5.245  1.5503 -3.1688 -0.7864
   59SAPC  C212 4491   5.629   3.437   5.140  0.0980  0.3091 -0.5945
   59SAPC  H12R 4492   5.605   3.385   5.046  3.4585 -0.1860 -1.3302
   59SAPC  C213 4493   5.762   3.508   5.139 -0.1662 -0.1393  0.6237
   59SAPC  H13R 4494   5.820   3.461   5.057 -1.3217  0.2586 -0.4530
   59SAPC  H13S 4495   5.830   3.510   5.227 -0.0316  0.7415  0.5119
   59SAPC  C214 4496   5.737   3.649   5.100  0.3399 -0.1593  0.5362
   59SAPC  H14R 4497   5.722   3.721   5.182 -0.6170 -0.5094  0.6817
   59SAPC  C215 4498   5.755   3.702   4.978  0.0201  0.0685  1.5728
   59SAPC  H15R 4499   5.736   3.808   4.955  0.7361 -0.1128  0.0475
   59SAPC  C216 4500   5.807   3.625   4.847  0.6551 -0.2743  0.1102
   59SAPC  H16R 4501   5.743   3.539   4.820 -0.6114  1.0805 -1.3954
   59SAPC  H16S 4502   5.913   3.594   4.860  0.4281 -1.4654 -0.7442
   59SAPC  C217 4503   5.796   3.695   4.713 -0.2170 -0.0659 -0.7931
   59SAPC  H17R 4504   5.850   3.792   4.716 -1.2741  0.6033  3.0141
   59SAPC  H17S 4505   5.690   3.719   4.690 -0.9097 -1.6786  0.5023
   59SAPC  C218 4506   5.838   3.606   4.591 -1.0183 -0.7515  0.2588
   59SAPC  H18R 4507   5.789   3.506   4.591 -2.4875 -0.0659  0.7081
   59SAPC  H18S 4508   5.947   3.592   4.610 -1.0706 -0.2362  0.9876
   59SAPC  C219 4509   5.805   3.666   4.457  0.7912 -0.1654  0.0092
   59SAPC  H19R 4510   5.829   3.774   4.446 -0.2063 -0.0871 -1.8790
   59SAPC  H19S 4511   5.694   3.666   4.454  0.7514  1.0433  0.9843
   59SAPC  C220 4512   5.855   3.590   4.336 -0.4277  0.2042  0.3741
   59SAPC  H20R 4513   5.789   3.502   4.319 -0.4485  0.1186  0.8951
   59SAPC  H20S 4514   5.961   3.564   4.354 -0.0129  0.4465 -1.5131
   59SAPC  H20T 4515   5.842   3.649   4.243  0.5610  1.6095  1.0865
   59SAPC   C33 4516   5.034   3.086   5.933 -0.2022  0.2083  0.5713
   59SAPC   H3X 4517   5.033   2.978   5.909  2.4059  0.1671  0.3084
   59SAPC   H3Y 4518   5.111   3.133   5.867 -0.4743  0.8919  0.7273
   59SAPC   C34 4519   4.899   3.148   5.910 -0.5532  0.4698 -0.2253
   59SAPC   H4X 4520   4.899   3.248   5.957 -1.0308 -0.0372  0.8701
   59SAPC   H4Y 4521   4.843   3.089   5.985 -0.0610 -0.0186 -0.2315
   59SAPC   C35 4522   4.845   3.134   5.765 -0.4187 -0.0660  0.0114
   59SAPC   H5X 4523   4.735   3.126   5.773 -0.8118  0.8085 -3.0695
   59SAPC   H5Y 4524   4.896   3.041   5.731  1.7869  0.8155  0.7528
   59SAPC   C36 4525   4.890   3.255   5.684 -0.5598  0.6823  0.6026
   59SAPC   H6X 4526   5.001   3.259   5.688 -0.3285 -2.1220 -0.2774
   59SAPC   H6Y 4527   4.850   3.346   5.734 -3.7015  0.3297 -0.9790
   59SAPC   C37 4528   4.841   3.249   5.536 -0.4919 -0.1331  0.2922
   59SAPC   H7X 4529   4.883   3.336   5.482 -0.5871 -0.1437  0.1994
   59SAPC   H7Y 4530   4.731   3.261   5.523 -0.2394 -0.3037 -2.5904
   59SAPC   C38 4531   4.884   3.121   5.463  0.6824 -0.0009 -0.0767
   59SAPC   H8X 4532   4.806   3.044   5.482 -0.2767  0.6220 -1.3373
   59SAPC   H8Y 4533   4.975   3.084   5.515 -0.1836 -2.1516 -0.0053
   59SAPC   C39 4534   4.903   3.125   5.309  1.1693  0.4097  0.0450
   59SAPC   H9X 4535   4.936   3.020   5.295  1.0909  0.4088 -0.1326
   59SAPC   H9Y 4536   4.966   3.209   5.272 -0.1400  1.2444 -0.3550
   59SAPC  C310 4537   4.770   3.145   5.238  0.8180 -0.0980  0.9883
   59SAPC  H10X 4538   4.721   3.240   5.265  1.6289  0.5823  0.1328
   59SAPC  H10Y 4539   4.704   3.072   5.290  1.9960 -1.1566  1.0734
   59SAPC  C311 4540   4.767   3.131   5.085  0.1597 -0.2896 -0.2046
   59SAPC  H11X 4541   4.671   3.179   5.054 -0.0915 -0.9845 -0.5266
   59SAPC  H11Y 4542   4.749   3.025   5.057 -0.7283 -0.4367  0.8672
   59SAPC  C312 4543   4.881   3.203   5.012  0.0989  0.2627 -0.0086
   59SAPC  H12X 4544   4.975   3.154   5.044  0.2579  1.2453  1.1353
   59SAPC  H12Y 4545   4.887   3.306   5.054  2.5318 -0.2781  1.1296
   59SAPC  C313 4546   4.876   3.194   4.852 -0.2967  0.2975 -0.4977
   59SAPC  H13X 4547   4.926   3.100   4.821 -1.1875 -0.1895 -0.4950
   59SAPC  H13Y 4548   4.931   3.284   4.815 -1.4053  1.1340 -0.1497
   59SAPC  C314 4549   4.736   3.208   4.793 -0.1283  0.1022 -0.0928
   59SAPC  H14X 4550   4.663   3.270   4.850  0.7231  1.5904 -0.5748
   59SAPC  H14Y 4551   4.696   3.104   4.788  0.9768 -0.4923  2.1082
   59SAPC  C315 4552   4.743   3.267   4.649  0.4385 -0.9116  0.2619
   59SAPC  H15X 4553   4.766   3.185   4.578  1.2009 -0.7860  0.3496
   59SAPC  H15Y 4554   4.815   3.351   4.638  0.0743 -0.5488  0.6181
   59SAPC  C316 4555   4.617   3.328   4.595 -0.3147 -0.1148 -0.6389
   59SAPC  H16X 4556   4.600   3.425   4.646  0.7009  0.6679 -1.7171
   59SAPC  H16Y 4557   4.525   3.269   4.614 -1.2578  1.8556  1.2770
   59SAPC  C317 4558   4.618   3.360   4.438 -0.1746  0.3932 -0.2681
   59SAPC  H17X 4559   4.596   3.259   4.398  0.6602 -1.0731  2.7100
   59SAPC  H17Y 4560   4.713   3.397   4.394  0.9633 -2.2799 -0.2240
   59SAPC  C318 4561   4.509   3.453   4.402  0.1141  0.0118 -0.5475
   59SAPC  H18X 4562   4.500   3.459   4.292  2.7079  0.3226 -0.8015
   59SAPC  H18Y 4563   4.531   3.559   4.425  1.1367 -0.3809  0.3692
   59SAPC  H18Z 4564   4.415   3.421   4.453  1.6203 -1.5852  1.3786
   60SAPC     N 4565   5.700   5.325   7.443  0.1671  1.2110  0.5714
   60SAPC   C12 4566   5.563   5.256   7.428 -0.3947 -0.2040 -0.0239
   60SAPC  H12A 4567   5.490   5.299   7.495  0.1422  1.0792 -0.2166
   60SAPC  H12B 4568   5.577   5.157   7.467  0.0206  0.0172  0.3939
   60SAPC   C13 4569   5.806   5.248   7.368  0.2674 -0.8041 -0.1305
   60SAPC  H13A 4570   5.818   5.141   7.376  0.8076 -0.6447  1.6336
   60SAPC  H13B 4571   5.781   5.259   7.264 -0.7626 -0.6874  0.1140
   60SAPC  H13C 4572   5.901   5.296   7.390 -1.3673  2.2667  0.8486
   60SAPC   C14 4573   5.693   5.467   7.399 -0.1750  0.2918 -0.0068
   60SAPC  H14A 4574   5.672   5.468   7.293  2.2280  1.1143 -0.5290
   60SAPC  H14B 4575   5.614   5.518   7.452 -0.8400 -2.1604  1.5700
   60SAPC  H14C 4576   5.793   5.506   7.407  0.9277 -2.2537 -0.4367
   60SAPC   C15 4577   5.737   5.330   7.587 -0.6340  0.4500 -0.2840
   60SAPC  H15A 4578   5.740   5.225   7.614  2.4061  0.1695 -1.3102
   60SAPC  H15B 4579   5.832   5.380   7.596  0.5887 -1.6224 -1.1397
   60SAPC  H15C 4580   5.655   5.374   7.642 -1.0131 -0.4972 -0.0786
   60SAPC   C11 4581   5.505   5.256   7.294 -0.9006 -0.2766  0.7817
   60SAPC  H11A 4582   5.488   5.360   7.260  0.9180 -0.1458  0.1946
   60SAPC  H11B 4583   5.403   5.211   7.299 -0.3375 -1.5781  0.8880
   60SAPC     P 4584   5.595   5.224   7.045 -0.1670  0.4404  0.1375
   60SAPC   O13 4585   5.592   5.372   7.038 -0.2123  0.3133 -0.1266
   60SAPC   O14 4586   5.707   5.153   6.981  0.3064 -0.1644 -0.1023
   60SAPC   O12 4587   5.577   5.179   7.196  0.1328 -0.1795  0.2081
   60SAPC   O11 4588   5.460   5.177   6.979  0.0101 -0.0828  0.1042
   60SAPC    C1 4589   5.422   5.045   6.939 -0.1838  0.5767  0.0354
   60SAPC    HA 4590   5.488   4.976   6.996  1.7231  2.3262  0.0990
   60SAPC    HB 4591   5.315   5.030   6.966 -0.2729  1.7546  0.4293
   60SAPC    C2 4592   5.454   5.016   6.787 -0.4203 -0.3445 -0.2352
   60SAPC    HS 4593   5.563   5.006   6.772 -0.2139  0.2683  0.7464
   60SAPC   O21 4594   5.400   5.129   6.719 -0.7608  0.1749  0.2014
   60SAPC   C21 4595   5.453   5.166   6.602 -0.1361 -0.7066 -0.1856
   60SAPC   O22 4596   5.544   5.116   6.542  0.3332  0.1739  0.5529
   60SAPC   C22 4597   5.368   5.288   6.559 -0.6502  0.2850 -0.5940
   60SAPC   H2R 4598   5.270   5.291   6.611  0.1857  0.7184  1.0326
   60SAPC   H2S 4599   5.434   5.375   6.578 -0.5574  0.6727 -2.5416
   60SAPC    C3 4600   5.406   4.878   6.742 -0.5836  0.3966 -0.2270
   60SAPC    HX 4601   5.295   4.879   6.741 -0.6169 -0.8789  0.2739
   60SAPC    HY 4602   5.444   4.800   6.811 -0.1004  0.7374 -0.1048
   60SAPC   O31 4603   5.456   4.859   6.607 -0.4072 -0.6311 -0.3119
   60SAPC   C31 4604   5.569   4.791   6.585 -0.6679  0.6189 -0.4113
   60SAPC   O32 4605   5.633   4.721   6.664  0.9226  0.3698 -0.0620
   60SAPC   C32 4606   5.597   4.790   6.435  0.7843 -0.2703 -0.1525
   60SAPC   H2X 4607   5.619   4.895   6.406  2.9053 -0.8969 -1.0045
   60SAPC   H2Y 4608   5.505   4.760   6.381 -0.0698  0.8905  0.6283
   60SAPC   C23 4609   5.341   5.307   6.404  0.5774 -0.4792  0.0778
   60SAPC   H3R 4610   5.310   5.208   6.365 -0.3127 -0.4127  0.5866
   60SAPC   H3S 4611   5.428   5.340   6.343  0.0058  0.6898 -0.1402
   60SAPC   C24 4612   5.218   5.394   6.370  0.1058  0.1013 -0.2597
   60SAPC   H4R 4613   5.211   5.492   6.423 -2.3672 -1.1660  2.0340
   60SAPC   H4S 4614   5.138   5.340   6.426  2.3024 -0.9613  2.0526
   60SAPC   C25 4615   5.192   5.418   6.221  0.4076  0.3890 -0.1766
   60SAPC   H5R 4616   5.229   5.516   6.189 -0.7079  0.2127 -2.2173
   60SAPC   C26 4617   5.127   5.331   6.140 -0.0414  0.6794  0.1173
   60SAPC   H6R 4618   5.124   5.350   6.032 -0.1403  0.8634  0.1520
   60SAPC   C27 4619   5.058   5.194   6.174 -0.0002  0.0989  0.4724
   60SAPC   H7R 4620   5.112   5.143   6.257 -0.6419 -0.1459  0.7398
   60SAPC   H7S 4621   5.068   5.118   6.094  1.7437  0.9593 -0.1860
   60SAPC   C28 4622   4.914   5.210   6.211 -0.6416  0.5400 -0.3210
   60SAPC   H8R 4623   4.885   5.231   6.315 -0.0839  1.8133 -0.4052
   60SAPC   C29 4624   4.815   5.175   6.129  0.0567 -0.0925  0.4767
   60SAPC   H9R 4625   4.719   5.203   6.174 -0.3626 -0.9956  0.1618
   60SAPC  C210 4626   4.823   5.135   5.981 -0.0723 -0.1389 -1.0109
   60SAPC  H10R 4627   4.814   5.025   5.976  0.8202 -0.3453  0.9735
   60SAPC  H10S 4628   4.921   5.157   5.933  0.2421  1.6869  0.3334
   60SAPC  C211 4629   4.708   5.202   5.907  0.0107  0.2503  0.7665
   60SAPC  H11R 4630   4.610   5.157   5.929  1.0223 -1.8532  1.1982
   60SAPC  C212 4631   4.720   5.311   5.829  0.0435 -0.0268 -0.5924
   60SAPC  H12R 4632   4.626   5.355   5.792 -1.3084 -0.7661  1.7728
   60SAPC  C213 4633   4.857   5.371   5.785 -0.5394  0.2342  0.6771
   60SAPC  H13R 4634   4.946   5.346   5.847  0.3423  0.4114 -0.4889
   60SAPC  H13S 4635   4.848   5.482   5.789 -1.9894  0.1122  1.4858
   60SAPC  C214 4636   4.888   5.316   5.650  0.4808  0.2276  0.7243
   60SAPC  H14R 4637   4.900   5.207   5.645  0.7320  0.2978 -0.7029
   60SAPC  C215 4638   4.891   5.378   5.531 -0.2062  0.6379  0.9816
   60SAPC  H15R 4639   4.927   5.316   5.448  0.6789 -0.4651  2.1585
   60SAPC  C216 4640   4.876   5.525   5.504 -0.0721 -0.3412 -0.5721
   60SAPC  H16R 4641   4.875   5.572   5.604 -0.2147 -4.0092  1.3317
   60SAPC  H16S 4642   4.776   5.534   5.456  0.1540 -0.1295 -1.0067
   60SAPC  C217 4643   4.978   5.600   5.414  0.1500 -0.2049 -0.5400
   60SAPC  H17R 4644   5.075   5.561   5.453 -0.0769 -2.1144 -1.7571
   60SAPC  H17S 4645   4.984   5.710   5.430 -0.2164 -0.5689  2.8244
   60SAPC  C218 4646   4.959   5.560   5.269 -0.0437  0.0809  0.2023
   60SAPC  H18R 4647   4.945   5.451   5.257  2.6442 -0.0631 -2.9516
   60SAPC  H18S 4648   5.051   5.584   5.211 -0.3484 -0.3566 -0.4830
   60SAPC  C219 4649   4.838   5.632   5.203 -0.9365 -0.2102  0.2336
   60SAPC  H19R 4650   4.856   5.739   5.227 -1.2959 -0.3985  1.3939
   60SAPC  H19S 4651   4.744   5.586   5.241 -1.4741  0.4557 -0.2722
   60SAPC  C220 4652   4.838   5.614   5.048 -0.1708  0.1108 -0.7675
   60SAPC  H20R 4653   4.928   5.662   5.005  1.4591 -2.1136 -0.0157
   60SAPC  H20S 4654   4.742   5.662   5.017 -0.7862 -1.4892 -1.4412
   60SAPC  H20T 4655   4.835   5.505   5.030 -0.7380 -0.9287  4.0767
   60SAPC   C33 4656   5.725   4.709   6.399  0.0025  0.0772 -0.2007
   60SAPC   H3X 4657   5.715   4.605   6.436  1.7049  0.4594  1.4764
   60SAPC   H3Y 4658   5.811   4.747   6.458 -0.3542 -0.4444  0.6747
   60SAPC   C34 4659   5.770   4.700   6.254  0.6115 -0.2735  0.5534
   60SAPC   H4X 4660   5.869   4.650   6.243  0.8788  0.6090 -1.5399
   60SAPC   H4Y 4661   5.783   4.805   6.221 -2.9076  0.3609  0.7414
   60SAPC   C35 4662   5.665   4.626   6.161 -0.0141  0.7785  0.2846
   60SAPC   H5X 4663   5.560   4.657   6.180 -0.7591 -3.1498  4.1502
   60SAPC   H5Y 4664   5.667   4.517   6.179  3.2727  0.2253 -2.3931
   60SAPC   C36 4665   5.719   4.638   6.011 -0.1916  0.4482 -0.3135
   60SAPC   H6X 4666   5.810   4.578   5.989  0.4401  0.5667  1.8098
   60SAPC   H6Y 4667   5.752   4.744   6.005  0.6839  0.2078  0.0297
   60SAPC   C37 4668   5.613   4.615   5.910  0.1000 -0.8788  0.1829
   60SAPC   H7X 4669   5.527   4.684   5.929  1.1656  0.7900 -0.7616
   60SAPC   H7Y 4670   5.594   4.506   5.913  0.2060 -0.8825  0.7856
   60SAPC   C38 4671   5.665   4.653   5.766  0.5065  0.0209 -0.6109
   60SAPC   H8X 4672   5.732   4.567   5.743 -0.2776 -1.2648  1.5993
   60SAPC   H8Y 4673   5.726   4.745   5.781  2.3948 -0.9088 -2.1702
   60SAPC   C39 4674   5.552   4.678   5.666  0.5568 -0.3060 -0.0667
   60SAPC   H9X 4675   5.588   4.734   5.577 -0.5359 -0.2641 -0.5014
   60SAPC   H9Y 4676   5.478   4.749   5.709  0.9346  0.6771 -0.9978
   60SAPC  C310 4677   5.478   4.545   5.625  0.1963 -1.0177 -0.4396
   60SAPC  H10X 4678   5.440   4.486   5.712  1.2672 -1.7929 -0.4807
   60SAPC  H10Y 4679   5.558   4.488   5.573  0.8468  0.6400 -1.3258
   60SAPC  C311 4680   5.356   4.557   5.530  0.7269 -0.6759 -0.3932
   60SAPC  H11X 4681   5.276   4.621   5.573 -0.5119 -1.2929 -1.6706
   60SAPC  H11Y 4682   5.307   4.457   5.540  1.8222 -1.2447 -0.5645
   60SAPC  C312 4683   5.381   4.569   5.381  0.9091 -0.2914 -0.1049
   60SAPC  H12X 4684   5.454   4.499   5.335  0.3919  0.4368 -2.1522
   60SAPC  H12Y 4685   5.417   4.674   5.370 -0.1204 -0.0320 -1.2383
   60SAPC  C313 4686   5.258   4.565   5.295  0.2883 -0.3116 -0.2946
   60SAPC  H13X 4687   5.182   4.633   5.339  1.6998  3.0482 -2.6394
   60SAPC  H13Y 4688   5.219   4.461   5.298  0.9876 -0.5740 -0.0536
   60SAPC  C314 4689   5.290   4.615   5.148 -0.4895 -0.2558 -0.5733
   60SAPC  H14X 4690   5.376   4.556   5.108 -0.0051 -0.6326  0.9534
   60SAPC  H14Y 4691   5.340   4.713   5.159 -1.0683  0.0018 -0.2171
   60SAPC  C315 4692   5.181   4.626   5.050  0.7970 -0.0888  0.0105
   60SAPC  H15X 4693   5.228   4.609   4.951  0.0240 -2.6804  0.0184
   60SAPC  H15Y 4694   5.144   4.731   5.050 -0.1426 -0.4164 -0.3444
   60SAPC  C316 4695   5.073   4.522   5.067 -0.3256 -0.2857  0.4477
   60SAPC  H16X 4696   5.014   4.540   5.160 -1.6574 -2.6550  0.1419
   60SAPC  H16Y 4697   5.126   4.425   5.081 -1.0013 -0.4058  2.4663
   60SAPC  C317 4698   4.997   4.504   4.930  0.2814  0.2165 -0.6326
   60SAPC  H17X 4699   4.917   4.429   4.945  1.6522 -0.9098  1.7931
   60SAPC  H17Y 4700   5.064   4.471   4.848  1.9021  1.0235  0.2997
   60SAPC  C318 4701   4.929   4.631   4.874 -0.5331 -0.2301 -0.4099
   60SAPC  H18X 4702   4.853   4.606   4.796 -0.7639 -2.0915  0.3525
   60SAPC  H18Y 4703   4.994   4.700   4.817 -1.4570  2.8887  2.0503
   60SAPC  H18Z 4704   4.882   4.694   4.952  2.2019  1.2223  0.1938
   61SAPC     N 4705   3.913   2.705   6.974  0.3172 -0.4292 -0.1949
   61SAPC   C12 4706   3.844   2.742   6.842 -0.3965  0.7023 -0.2562
   61SAPC  H12A 4707   3.801   2.841   6.852  0.4835  1.0969 -0.3000
   61SAPC  H12B 4708   3.767   2.670   6.818 -0.5561  1.0673 -0.8622
   61SAPC   C13 4709   3.818   2.728   7.097 -0.6230  0.1686  0.6850
   61SAPC  H13A 4710   3.871   2.676   7.176  1.1902  0.4058 -0.3049
   61SAPC  H13B 4711   3.799   2.833   7.111  0.5381  0.6228 -0.8811
   61SAPC  H13C 4712   3.731   2.669   7.071  0.6471 -0.8485 -1.6335
   61SAPC   C14 4713   3.969   2.568   6.971 -0.5909 -0.2158  0.1692
   61SAPC  H14A 4714   4.041   2.544   7.048 -0.6128  0.5255  0.4235
   61SAPC  H14B 4715   3.894   2.495   6.946 -0.2967  0.2075 -2.1992
   61SAPC  H14C 4716   4.032   2.559   6.883  1.0646  1.8718  1.0500
   61SAPC   C15 4717   4.036   2.789   6.992  0.0672 -0.0262  0.2530
   61SAPC  H15A 4718   4.015   2.895   6.982  0.8236 -0.0933 -3.3314
   61SAPC  H15B 4719   4.081   2.770   7.089  0.0847 -0.0769  0.2353
   61SAPC  H15C 4720   4.111   2.766   6.918 -2.0001  1.3287 -2.4453
   61SAPC   C11 4721   3.943   2.743   6.722 -0.2818 -0.8831 -0.7919
   61SAPC  H11A 4722   4.005   2.834   6.738 -1.1307 -0.3138 -0.6984
   61SAPC  H11B 4723   3.890   2.766   6.628 -0.2884  3.0043 -0.0137
   61SAPC     P 4724   4.167   2.625   6.669  0.4455  0.1808  0.3756
   61SAPC   O13 4725   4.249   2.721   6.744 -0.0124 -0.3751 -0.2149
   61SAPC   O14 4726   4.224   2.495   6.664 -0.3193 -0.1690 -0.3413
   61SAPC   O12 4727   4.021   2.622   6.723  0.4044 -0.9393  0.3353
   61SAPC   O11 4728   4.153   2.682   6.521  0.2821  0.6481 -0.0262
   61SAPC    C1 4729   4.263   2.735   6.451  0.8834 -0.4385 -0.2044
   61SAPC    HA 4730   4.259   2.844   6.473 -1.3891 -0.5062 -0.0915
   61SAPC    HB 4731   4.361   2.697   6.486  1.2575  1.6104  1.1578
   61SAPC    C2 4732   4.244   2.723   6.297  0.0287  0.4942  0.0644
   61SAPC    HS 4733   4.139   2.752   6.277  0.2796  0.4682 -1.3783
   61SAPC   O21 4734   4.264   2.584   6.264  0.8815  0.2115 -0.7121
   61SAPC   C21 4735   4.173   2.527   6.186 -0.0594 -0.0474  0.4524
   61SAPC   O22 4736   4.060   2.560   6.177 -0.1543  0.1072  0.0954
   61SAPC   C22 4737   4.240   2.417   6.096 -0.3707 -0.7405  0.1750
   61SAPC   H2R 4738   4.345   2.450   6.081 -0.9286  1.1734  0.2233
   61SAPC   H2S 4739   4.235   2.323   6.155 -1.0008  2.0049  5.0084
   61SAPC    C3 4740   4.332   2.813   6.213 -0.4679  0.8914  0.1998
   61SAPC    HX 4741   4.436   2.773   6.214 -0.0868  1.8554  1.1216
   61SAPC    HY 4742   4.346   2.913   6.259  0.3626  1.1393 -0.5708
   61SAPC   O31 4743   4.284   2.821   6.078  0.2276 -0.5606 -0.1000
   61SAPC   C31 4744   4.169   2.891   6.052 -0.8005  0.3453  0.0021
   61SAPC   O32 4745   4.108   2.956   6.129 -0.8623  0.2853 -0.0235
   61SAPC   C32 4746   4.127   2.879   5.911  0.8246 -0.6147  0.0738
   61SAPC   H2X 4747   4.115   2.770   5.894 -2.2896 -0.7139  2.0081
   61SAPC   H2Y 4748   4.205   2.910   5.839  0.8033  1.8222  0.9988
   61SAPC   C23 4749   4.170   2.418   5.965  0.5518 -0.4355 -0.2885
   61SAPC   H3R 4750   4.165   2.513   5.909  0.8898 -1.4427 -2.1293
   61SAPC   H3S 4751   4.067   2.380   5.986  0.3169  0.4868  0.2687
   61SAPC   C24 4752   4.234   2.329   5.859  0.2007 -0.1320  0.1463
   61SAPC   H4R 4753   4.163   2.325   5.773  2.6078  2.1185 -2.1236
   61SAPC   H4S 4754   4.229   2.229   5.908  1.9839 -0.8329 -0.9851
   61SAPC   C25 4755   4.375   2.372   5.820  0.0589  0.5383 -0.3445
   61SAPC   H5R 4756   4.441   2.406   5.901  0.5234 -0.2264 -0.3984
   61SAPC   C26 4757   4.420   2.374   5.693  0.2607  0.2912 -0.7108
   61SAPC   H6R 4758   4.529   2.380   5.681  0.5578 -2.8476 -0.3571
   61SAPC   C27 4759   4.343   2.319   5.578 -0.3386  0.3241 -0.4242
   61SAPC   H7R 4760   4.249   2.377   5.562 -1.3565 -1.1958 -0.1513
   61SAPC   H7S 4761   4.306   2.216   5.599  1.7570  0.0519  2.6993
   61SAPC   C28 4762   4.417   2.328   5.443 -0.1305  0.4137 -0.0733
   61SAPC   H8R 4763   4.516   2.375   5.447  0.6280 -1.1206 -0.1197
   61SAPC   C29 4764   4.385   2.262   5.333 -0.1870 -0.6965 -0.1013
   61SAPC   H9R 4765   4.446   2.269   5.242 -1.4153  1.1239 -0.8418
   61SAPC  C210 4766   4.256   2.181   5.317  0.2541  0.6914 -0.3629
   61SAPC  H10R 4767   4.191   2.151   5.402 -2.1496 -0.8561 -2.5760
   61SAPC  H10S 4768   4.299   2.083   5.289  0.9894  0.5209  1.2437
   61SAPC  C211 4769   4.171   2.232   5.204 -0.1416 -0.8286 -0.3132
   61SAPC  H11R 4770   4.119   2.326   5.231 -0.3486 -0.5039 -1.7818
   61SAPC  C212 4771   4.149   2.179   5.081  0.4198  0.1330 -0.4014
   61SAPC  H12R 4772   4.076   2.225   5.013 -1.5307 -2.5053 -0.2509
   61SAPC  C213 4773   4.197   2.047   5.024  0.7153 -0.0078 -0.1305
   61SAPC  H13R 4774   4.112   1.982   4.996  0.0895  0.8833 -0.3292
   61SAPC  H13S 4775   4.246   1.993   5.108  0.6505  1.1267  0.6641
   61SAPC  C214 4776   4.280   2.079   4.904 -0.5480 -0.2198  0.0164
   61SAPC  H14R 4777   4.387   2.093   4.926 -0.2949 -1.1765 -0.5501
   61SAPC  C215 4778   4.254   2.092   4.772 -0.5540  0.3444  0.8964
   61SAPC  H15R 4779   4.338   2.115   4.705 -0.8056  1.3218  0.9044
   61SAPC  C216 4780   4.123   2.065   4.700  0.2524 -0.2371  0.8969
   61SAPC  H16R 4781   4.034   2.114   4.746  0.5357  1.6681 -0.4496
   61SAPC  H16S 4782   4.111   1.956   4.685  1.5458 -0.0580 -2.0422
   61SAPC  C217 4783   4.124   2.127   4.556 -0.1190  0.0119 -0.2190
   61SAPC  H17R 4784   4.212   2.080   4.506 -0.0039  1.8808 -1.8760
   61SAPC  H17S 4785   4.150   2.234   4.559  2.9421 -0.6527  0.2735
   61SAPC  C218 4786   4.003   2.105   4.467  0.2624 -0.4049 -0.0446
   61SAPC  H18R 4787   4.011   2.186   4.391  0.1246  0.1964  0.5694
   61SAPC  H18S 4788   3.909   2.122   4.523  0.0850  0.3949 -0.5728
   61SAPC  C219 4789   3.997   1.975   4.379 -0.2476 -0.1269  0.2254
   61SAPC  H19R 4790   3.898   1.954   4.334 -0.3880 -0.5497  0.7283
   61SAPC  H19S 4791   4.012   1.896   4.456  0.4927  0.6278  0.8820
   61SAPC  C220 4792   4.116   1.957   4.276  0.2765  0.0123  0.0697
   61SAPC  H20R 4793   4.217   1.992   4.305  0.9551 -0.9330 -1.0563
   61SAPC  H20S 4794   4.081   1.993   4.177 -1.4991  0.0101  0.6498
   61SAPC  H20T 4795   4.118   1.848   4.254 -1.4895  0.0529 -0.4266
   61SAPC   C33 4796   3.991   2.955   5.870 -0.6629  0.0946 -0.1570
   61SAPC   H3X 4797   3.989   3.062   5.898  0.0402  0.6102 -1.9062
   61SAPC   H3Y 4798   3.905   2.911   5.925  0.4451 -1.0243  0.7440
   61SAPC   C34 4799   3.963   2.957   5.716 -0.2716 -0.1774 -0.3596
   61SAPC   H4X 4800   3.971   2.852   5.680  0.1651 -0.4648  0.5377
   61SAPC   H4Y 4801   4.046   3.005   5.659  0.8440 -1.3284  0.2300
   61SAPC   C35 4802   3.833   3.026   5.687  1.0042  0.3475  0.5124
   61SAPC   H5X 4803   3.802   3.101   5.763  0.2807 -1.6384  2.3025
   61SAPC   H5Y 4804   3.746   2.958   5.698  0.4337  0.8962 -0.5868
   61SAPC   C36 4805   3.827   3.094   5.549  0.1251 -0.0155  0.6772
   61SAPC   H6X 4806   3.729   3.142   5.527  0.4976  0.7881  0.7279
   61SAPC   H6Y 4807   3.833   3.009   5.477 -2.7992 -0.2971  0.6205
   61SAPC   C37 4808   3.935   3.191   5.516  0.7185  0.1816  0.7107
   61SAPC   H7X 4809   4.024   3.137   5.476 -1.0493 -1.3364 -1.4056
   61SAPC   H7Y 4810   3.954   3.240   5.614 -2.3943  2.4756  0.3058
   61SAPC   C38 4811   3.902   3.289   5.403  0.1975 -0.0487  0.0254
   61SAPC   H8X 4812   3.855   3.373   5.459 -0.6266 -1.7671  2.0581
   61SAPC   H8Y 4813   3.835   3.244   5.326  1.4723  0.7654 -1.6279
   61SAPC   C39 4814   4.027   3.346   5.336 -0.2919  0.2459  0.1323
   61SAPC   H9X 4815   4.084   3.259   5.298  0.2210  0.5311  0.2458
   61SAPC   H9Y 4816   4.085   3.406   5.409  1.5456 -0.8309 -0.3882
   61SAPC  C310 4817   3.993   3.435   5.218 -0.4319  0.9281 -0.1266
   61SAPC  H10X 4818   4.067   3.519   5.217  0.9699 -0.2407  0.6770
   61SAPC  H10Y 4819   3.888   3.462   5.243 -0.0509 -0.0828  3.0870
   61SAPC  C311 4820   4.013   3.376   5.078 -0.2928  0.3429 -0.0237
   61SAPC  H11X 4821   3.961   3.278   5.081  1.7670 -0.7929  0.4747
   61SAPC  H11Y 4822   4.122   3.362   5.059 -0.4298  0.9209 -1.3815
   61SAPC  C312 4823   3.954   3.460   4.964  0.0537  0.0296  0.1094
   61SAPC  H12X 4824   3.998   3.562   4.956  1.3289 -0.3321  1.8742
   61SAPC  H12Y 4825   3.845   3.467   4.984 -0.2715 -1.8951 -0.7503
   61SAPC  C313 4826   3.978   3.394   4.830 -0.3837 -0.0412 -0.4586
   61SAPC  H13X 4827   3.926   3.296   4.823 -0.1367 -0.0658 -3.7247
   61SAPC  H13Y 4828   4.084   3.380   4.800  0.4134  0.3321  1.9924
   61SAPC  C314 4829   3.919   3.483   4.721  0.1160 -0.0216 -0.3534
   61SAPC  H14X 4830   3.961   3.585   4.737  1.0210 -0.3678 -0.4963
   61SAPC  H14Y 4831   3.809   3.497   4.735  0.2390  1.2780 -0.5395
   61SAPC  C315 4832   3.940   3.437   4.575  0.3032  0.3794  0.6153
   61SAPC  H15X 4833   3.909   3.333   4.554  2.4520 -0.1603 -0.1324
   61SAPC  H15Y 4834   4.047   3.444   4.548  0.5603 -0.3336  1.3970
   61SAPC  C316 4835   3.860   3.527   4.482  0.8495  0.4175 -0.5717
   61SAPC  H16X 4836   3.880   3.636   4.490 -3.9159  1.5357 -0.6280
   61SAPC  H16Y 4837   3.749   3.523   4.493  0.8443  2.4678  0.4228
   61SAPC  C317 4838   3.902   3.505   4.332  0.1475  0.6362  0.1573
   61SAPC  H17X 4839   3.886   3.396   4.314  0.7330  0.6901 -0.7205
   61SAPC  H17Y 4840   4.010   3.526   4.321 -0.1808  1.6531 -1.6428
   61SAPC  C318 4841   3.820   3.590   4.225  0.0668  0.0607 -0.0544
   61SAPC  H18X 4842   3.724   3.615   4.277  0.6793  0.2405  1.0115
   61SAPC  H18Y 4843   3.794   3.534   4.133  1.5059 -1.3656  0.3576
   61SAPC  H18Z 4844   3.880   3.680   4.199  0.4073 -0.1845 -0.1084
   62SAPC     N 4845   6.257   2.890   6.932  0.1941 -0.0647 -0.0479
   62SAPC   C12 4846   6.218   2.764   6.858  0.3473  0.7288  0.4635
   62SAPC  H12A 4847   6.260   2.674   6.901  0.7761  1.0409  0.7039
   62SAPC  H12B 4848   6.249   2.767   6.755  0.0225 -0.3079  0.3185
   62SAPC   C13 4849   6.176   2.997   6.882 -0.7203  0.3488 -0.2054
   62SAPC  H13A 4850   6.072   2.968   6.878 -0.4778 -0.4264 -1.2905
   62SAPC  H13B 4851   6.190   3.093   6.928  0.5012  0.7878 -1.4141
   62SAPC  H13C 4852   6.189   3.009   6.776 -2.1511  0.0053 -0.4463
   62SAPC   C14 4853   6.229   2.883   7.081 -0.6473 -0.0917  0.4394
   62SAPC  H14A 4854   6.125   2.861   7.096 -1.0700  1.1868 -0.4128
   62SAPC  H14B 4855   6.295   2.815   7.133  0.4321 -0.6500 -1.5368
   62SAPC  H14C 4856   6.233   2.984   7.119  0.8839 -0.4033  1.1908
   62SAPC   C15 4857   6.401   2.917   6.921 -0.4140  0.0979 -1.2977
   62SAPC  H15A 4858   6.426   2.996   6.991  0.8682 -1.5869  0.2293
   62SAPC  H15B 4859   6.461   2.831   6.945 -0.7819  0.1756 -0.0470
   62SAPC  H15C 4860   6.429   2.950   6.822  3.9328  0.1093 -0.2588
   62SAPC   C11 4861   6.063   2.725   6.861  0.6794  0.3590 -0.3101
   62SAPC  H11A 4862   6.014   2.719   6.960 -0.3100  0.4308 -0.7805
   62SAPC  H11B 4863   6.062   2.620   6.824  2.7808  1.0304 -2.5501
   62SAPC     P 4864   6.002   2.802   6.627 -0.0012  0.0712  0.0201
   62SAPC   O13 4865   5.959   2.670   6.572  0.5181  0.5806  0.8674
   62SAPC   O14 4866   5.930   2.916   6.567  0.1278 -0.7038  0.1281
   62SAPC   O12 4867   5.987   2.816   6.779  0.0727  0.2037  0.0711
   62SAPC   O11 4868   6.154   2.815   6.604 -1.0909  0.6646 -0.0594
   62SAPC    C1 4869   6.216   2.927   6.537  0.0056  0.2473 -0.3953
   62SAPC    HA 4870   6.160   3.023   6.540  3.1063  2.1929 -0.1170
   62SAPC    HB 4871   6.318   2.941   6.579 -0.2802 -0.8112  0.7194
   62SAPC    C2 4872   6.248   2.897   6.381 -0.4174 -0.2860 -0.3573
   62SAPC    HS 4873   6.303   2.992   6.364  1.5026 -1.5513 -1.6157
   62SAPC   O21 4874   6.140   2.881   6.291  0.9404 -0.2869  0.6045
   62SAPC   C21 4875   6.077   2.991   6.249  0.4636  0.6784 -0.6755
   62SAPC   O22 4876   6.089   3.102   6.295 -0.1255  0.3918  0.0154
   62SAPC   C22 4877   6.000   2.943   6.124  1.0892 -0.5737  0.6085
   62SAPC   H2R 4878   6.081   2.924   6.051 -0.9699  1.8099 -2.5542
   62SAPC   H2S 4879   5.943   2.849   6.145  0.2454 -0.0727  0.6028
   62SAPC    C3 4880   6.351   2.786   6.363  0.6382  0.0168 -0.7147
   62SAPC    HX 4881   6.318   2.700   6.424 -1.2059  0.6248 -0.7907
   62SAPC    HY 4882   6.437   2.829   6.418  0.7092  0.5192 -1.2089
   62SAPC   O31 4883   6.392   2.764   6.222  0.0036 -0.6867  0.5983
   62SAPC   C31 4884   6.343   2.646   6.185 -0.0628 -0.0396 -0.0259
   62SAPC   O32 4885   6.248   2.592   6.234  0.1929  0.2918  0.3257
   62SAPC   C32 4886   6.430   2.597   6.069 -0.4036  0.2716  0.0416
   62SAPC   H2X 4887   6.496   2.512   6.098  0.5724  0.5397 -1.2711
   62SAPC   H2Y 4888   6.505   2.675   6.045 -0.7215  0.5960  0.0933
   62SAPC   C23 4889   5.917   3.053   6.053  0.5440 -0.2275 -0.6093
   62SAPC   H3R 4890   5.965   3.150   6.077 -0.2185  0.0106  0.0042
   62SAPC   H3S 4891   5.811   3.060   6.086  0.4094 -0.0097 -1.0930
   62SAPC   C24 4892   5.919   3.030   5.898  0.1942  0.2913  0.3561
   62SAPC   H4R 4893   6.026   3.037   5.868 -0.0431  1.4418 -0.3036
   62SAPC   H4S 4894   5.867   3.106   5.835 -0.2854  0.4543  0.9366
   62SAPC   C25 4895   5.888   2.891   5.851 -0.6567  0.0709 -0.2593
   62SAPC   H5R 4896   5.851   2.824   5.930  0.7585  2.0044  2.1817
   62SAPC   C26 4897   5.903   2.851   5.726  0.6608 -0.4749  0.1085
   62SAPC   H6R 4898   5.888   2.750   5.686  1.3886 -0.0166 -1.4299
   62SAPC   C27 4899   5.937   2.949   5.609 -0.3496 -0.6114  0.0224
   62SAPC   H7R 4900   6.006   2.895   5.540 -1.7528 -0.2438 -1.7304
   62SAPC   H7S 4901   5.995   3.038   5.640  1.4887 -1.2717 -1.2933
   62SAPC   C28 4902   5.819   3.010   5.543  0.2357  0.1020 -0.4345
   62SAPC   H8R 4903   5.741   3.054   5.607 -0.9123  1.4916 -2.6657
   62SAPC   C29 4904   5.803   3.015   5.412  0.2550  0.5356  0.2655
   62SAPC   H9R 4905   5.706   3.044   5.369  1.1523 -0.2817 -2.5485
   62SAPC  C210 4906   5.895   2.964   5.306  0.0102  0.1272 -0.7566
   62SAPC  H10R 4907   5.869   2.859   5.283 -0.3873  0.1413 -0.3612
   62SAPC  H10S 4908   6.002   2.954   5.334 -0.4219 -1.5699  0.4123
   62SAPC  C211 4909   5.894   3.045   5.179 -1.0386  0.0519 -0.6643
   62SAPC  H11R 4910   5.914   3.153   5.188  1.3903 -0.4967  2.4781
   62SAPC  C212 4911   5.873   2.996   5.059  1.0548 -0.0255 -0.4696
   62SAPC  H12R 4912   5.885   3.064   4.973  0.5049  1.6193  0.7108
   62SAPC  C213 4913   5.839   2.852   5.016 -0.4536 -0.5110  0.0598
   62SAPC  H13R 4914   5.838   2.783   5.103  1.5932  0.3690  0.8562
   62SAPC  H13S 4915   5.921   2.804   4.958 -0.0752 -1.5294  1.3860
   62SAPC  C214 4916   5.712   2.841   4.938  0.2808 -0.2425 -0.1019
   62SAPC  H14R 4917   5.712   2.847   4.828  0.8207  2.0175 -0.0135
   62SAPC  C215 4918   5.596   2.792   4.984 -1.1526 -0.9449  0.2028
   62SAPC  H15R 4919   5.510   2.785   4.915 -1.9874  0.9955  0.9838
   62SAPC  C216 4920   5.566   2.763   5.129  0.1538 -0.4296  0.4608
   62SAPC  H16R 4921   5.466   2.793   5.167  0.7871  0.4483  1.5046
   62SAPC  H16S 4922   5.648   2.814   5.184  1.1875 -0.8323 -0.6647
   62SAPC  C217 4923   5.584   2.610   5.149  0.0759  0.0195 -0.0258
   62SAPC  H17R 4924   5.686   2.568   5.132 -0.4543 -0.8056 -1.2876
   62SAPC  H17S 4925   5.523   2.546   5.082  2.1077  1.0043 -3.0154
   62SAPC  C218 4926   5.544   2.571   5.292  0.6529  0.1571  0.2062
   62SAPC  H18R 4927   5.538   2.461   5.302 -1.1402 -0.1326 -2.9324
   62SAPC  H18S 4928   5.440   2.604   5.311 -0.2492 -2.0755 -0.5533
   62SAPC  C219 4929   5.631   2.638   5.397 -0.3873 -0.5058  1.1806
   62SAPC  H19R 4930   5.627   2.744   5.366  1.3135 -1.0803 -1.3847
   62SAPC  H19S 4931   5.736   2.611   5.373 -0.5453  0.9478 -1.4892
   62SAPC  C220 4932   5.589   2.622   5.541  0.2381  0.1994  0.0270
   62SAPC  H20R 4933   5.566   2.516   5.564 -2.6174  0.9204  0.9158
   62SAPC  H20S 4934   5.495   2.671   5.575 -1.4547 -1.4902 -1.9767
   62SAPC  H20T 4935   5.657   2.664   5.619 -1.3367  0.9712  1.0305
   62SAPC   C33 4936   6.342   2.548   5.953  0.7503  0.0809 -0.3149
   62SAPC   H3X 4937   6.305   2.448   5.984  1.3010 -0.1464 -0.3671
   62SAPC   H3Y 4938   6.398   2.521   5.861 -0.7298 -1.6017 -0.7873
   62SAPC   C34 4939   6.224   2.641   5.911  0.3322  0.1475  0.1525
   62SAPC   H4X 4940   6.154   2.657   5.996 -0.0051 -1.0783  0.1200
   62SAPC   H4Y 4941   6.165   2.596   5.829  1.3439 -1.4063  0.2377
   62SAPC   C35 4942   6.295   2.768   5.879  0.2353  0.4109 -0.2898
   62SAPC   H5X 4943   6.343   2.820   5.965 -2.7774  1.4301  0.8932
   62SAPC   H5Y 4944   6.229   2.845   5.835  0.2353  0.2553 -0.5678
   62SAPC   C36 4945   6.394   2.767   5.765  0.1491  0.5800 -0.2718
   62SAPC   H6X 4946   6.474   2.690   5.771 -2.5007 -2.2628  0.6945
   62SAPC   H6Y 4947   6.432   2.872   5.761 -1.3685  1.1243 -1.6630
   62SAPC   C37 4948   6.332   2.731   5.629  0.1902 -0.1322 -0.0286
   62SAPC   H7X 4949   6.248   2.802   5.613  1.7911  2.3292  1.8418
   62SAPC   H7Y 4950   6.307   2.624   5.608  0.8933 -0.2947 -0.0778
   62SAPC   C38 4951   6.414   2.781   5.505  0.0909 -0.4438 -1.3649
   62SAPC   H8X 4952   6.508   2.726   5.482  0.1062 -0.9983 -0.0687
   62SAPC   H8Y 4953   6.446   2.886   5.526  0.6820 -1.1557  1.8146
   62SAPC   C39 4954   6.330   2.754   5.377  0.1628  0.2699 -0.1589
   62SAPC   H9X 4955   6.237   2.814   5.387  0.1180  0.6891 -2.5900
   62SAPC   H9Y 4956   6.306   2.648   5.357  1.5847  0.0612 -0.8792
   62SAPC  C310 4957   6.411   2.808   5.265  0.7183  0.5428  0.4079
   62SAPC  H10X 4958   6.500   2.748   5.236  0.5090  1.4208 -2.3555
   62SAPC  H10Y 4959   6.448   2.912   5.270  0.3487  0.6197  3.7479
   62SAPC  C311 4960   6.330   2.801   5.134  0.3305 -0.3104  0.2566
   62SAPC  H11X 4961   6.235   2.858   5.141 -0.1175 -1.2636  3.0401
   62SAPC  H11Y 4962   6.299   2.695   5.121 -1.5060  0.0847  1.0932
   62SAPC  C312 4963   6.401   2.831   5.003 -0.7472  0.2576 -1.0333
   62SAPC  H12X 4964   6.497   2.775   5.008 -1.7239 -1.3402  1.0223
   62SAPC  H12Y 4965   6.436   2.937   5.004  1.7493 -0.4786  1.4344
   62SAPC  C313 4966   6.334   2.783   4.879 -0.5271 -0.0481 -0.0477
   62SAPC  H13X 4967   6.247   2.849   4.856 -1.8236 -2.1983 -1.5920
   62SAPC  H13Y 4968   6.303   2.684   4.918  0.0194 -0.4830 -0.7256
   62SAPC  C314 4969   6.436   2.785   4.762  0.2131  0.5065  0.1878
   62SAPC  H14X 4970   6.515   2.715   4.796 -0.4141  0.6390  2.0022
   62SAPC  H14Y 4971   6.473   2.886   4.733 -2.5445  2.1147  1.8089
   62SAPC  C315 4972   6.386   2.707   4.639 -0.3077  1.2410  0.4080
   62SAPC  H15X 4973   6.328   2.781   4.579 -0.5476  0.8601  0.1694
   62SAPC  H15Y 4974   6.320   2.630   4.684 -1.5390  2.0922  0.0977
   62SAPC  C316 4975   6.502   2.653   4.552  0.6686 -0.4439 -0.5404
   62SAPC  H16X 4976   6.561   2.589   4.620 -1.6677  0.4153  2.5494
   62SAPC  H16Y 4977   6.559   2.739   4.512 -1.9821  1.4322 -0.5236
   62SAPC  C317 4978   6.469   2.562   4.425 -0.1705 -0.3760  0.1181
   62SAPC  H17X 4979   6.401   2.625   4.365 -0.0509 -0.7288 -0.3914
   62SAPC  H17Y 4980   6.414   2.471   4.459  1.9313 -0.7983  2.7442
   62SAPC  C318 4981   6.594   2.537   4.350 -0.4765  0.2560 -0.4581
   62SAPC  H18X 4982   6.661   2.484   4.421 -0.7647 -0.0898 -0.4411
   62SAPC  H18Y 4983   6.644   2.631   4.317  1.6297 -0.5150  0.3735
   62SAPC  H18Z 4984   6.576   2.475   4.259 -2.6205  3.1722 -2.1902
   63SAPC     N 4985   6.332   4.645   7.102  0.3717  0.3896  0.2389
   63SAPC   C12 4986   6.340   4.775   7.173  0.0260 -0.3430  0.5969
   63SAPC  H12A 4987   6.444   4.803   7.166 -0.3056  0.6327 -0.9140
   63SAPC  H12B 4988   6.312   4.768   7.277 -0.8363 -1.2306  0.3236
   63SAPC   C13 4989   6.389   4.635   6.963 -0.0975 -0.6986 -0.4864
   63SAPC  H13A 4990   6.377   4.537   6.920  1.2116 -1.0762 -0.0531
   63SAPC  H13B 4991   6.358   4.724   6.910  1.3921 -0.5739 -1.2119
   63SAPC  H13C 4992   6.494   4.656   6.977 -0.0262 -0.6228 -1.1269
   63SAPC   C14 4993   6.417   4.542   7.178 -0.5219  1.0221  0.1141
   63SAPC  H14A 4994   6.395   4.540   7.284  0.1087 -1.1619  0.2604
   63SAPC  H14B 4995   6.386   4.443   7.145 -0.4902  1.4429 -1.2363
   63SAPC  H14C 4996   6.521   4.539   7.152 -0.8415 -1.2987 -1.2323
   63SAPC   C15 4997   6.195   4.588   7.096 -0.1838 -0.0651  0.4147
   63SAPC  H15A 4998   6.146   4.608   7.190 -0.5700  1.5176 -0.0997
   63SAPC  H15B 4999   6.141   4.631   7.013  0.0541  0.6763  0.6407
   63SAPC  H15C 5000   6.182   4.482   7.082  0.5130 -0.4731  2.5088
   63SAPC   C11 5001   6.239   4.876   7.113 -0.2441  0.6937 -0.3432
   63SAPC  H11A 5002   6.231   4.969   7.174 -0.8342 -1.0771  2.4291
   63SAPC  H11B 5003   6.139   4.828   7.112 -0.3811  0.9574 -1.6719
   63SAPC     P 5004   6.406   5.003   6.959 -0.3139 -0.0214 -0.0917
   63SAPC   O13 5005   6.399   5.109   7.062  0.3571 -0.3982  0.5129
   63SAPC   O14 5006   6.531   4.922   6.961 -0.7432  0.0631 -0.4195
   63SAPC   O12 5007   6.283   4.911   6.979  0.4079  0.2227 -0.1045
   63SAPC   O11 5008   6.384   5.069   6.819 -0.2225  0.0424 -0.5546
   63SAPC    C1 5009   6.346   4.982   6.709  0.5958 -0.0683 -0.3803
   63SAPC    HA 5010   6.275   4.902   6.736  0.1883 -0.2765 -1.9708
   63SAPC    HB 5011   6.293   5.041   6.631  0.3566  0.7510  0.3808
   63SAPC    C2 5012   6.473   4.902   6.643 -0.3683  0.1349  0.0652
   63SAPC    HS 5013   6.529   4.848   6.722  0.8621 -0.9555 -1.4763
   63SAPC   O21 5014   6.555   5.011   6.585 -0.8432  0.4643  0.1106
   63SAPC   C21 5015   6.687   5.005   6.601 -0.3324  0.3097 -0.0299
   63SAPC   O22 5016   6.746   4.910   6.651 -0.7020 -0.3159 -0.2022
   63SAPC   C22 5017   6.758   5.125   6.540 -0.5671  0.2799  0.5742
   63SAPC   H2R 5018   6.688   5.202   6.502 -0.6724  0.0553  0.3067
   63SAPC   H2S 5019   6.836   5.156   6.612 -0.8439 -3.0146  2.5073
   63SAPC    C3 5020   6.414   4.812   6.528  1.0535  0.3155  0.0660
   63SAPC    HX 5021   6.368   4.725   6.578  1.5097  1.3226  2.3644
   63SAPC    HY 5022   6.503   4.770   6.476 -0.5980 -0.5070 -2.2973
   63SAPC   O31 5023   6.321   4.891   6.445 -0.0234 -0.2217  0.7568
   63SAPC   C31 5024   6.266   4.815   6.350  0.6922 -0.5876  0.2871
   63SAPC   O32 5025   6.283   4.699   6.332  0.0347 -0.4135 -0.1493
   63SAPC   C32 5026   6.189   4.902   6.253  0.1050  0.0436 -0.5598
   63SAPC   H2X 5027   6.214   5.006   6.283 -0.6866  0.0144  0.2174
   63SAPC   H2Y 5028   6.079   4.902   6.269  0.2574  0.0780  0.5856
   63SAPC   C23 5029   6.820   5.073   6.407  0.5879 -0.4062  0.1710
   63SAPC   H3R 5030   6.893   4.993   6.430  2.8292  1.4330 -0.2332
   63SAPC   H3S 5031   6.895   5.149   6.377  0.7491  0.3410  2.2637
   63SAPC   C24 5032   6.713   5.042   6.304 -0.2654  0.1868  0.0874
   63SAPC   H4R 5033   6.735   5.107   6.217 -1.8561 -1.0247 -1.3098
   63SAPC   H4S 5034   6.611   5.073   6.337  0.7436  2.0881  1.5580
   63SAPC   C25 5035   6.709   4.899   6.254 -0.3081 -0.0601  0.1190
   63SAPC   H5R 5036   6.689   4.830   6.337  0.0632  1.3857  1.4608
   63SAPC   C26 5037   6.717   4.847   6.133  0.4572 -1.1327  0.5911
   63SAPC   H6R 5038   6.717   4.737   6.126  0.0717 -1.2587  2.2579
   63SAPC   C27 5039   6.716   4.927   6.007 -0.7110  0.5388  0.1796
   63SAPC   H7R 5040   6.806   4.897   5.949 -0.6116 -1.4758  1.2886
   63SAPC   H7S 5041   6.740   5.032   6.030  0.6062  0.8842 -2.3839
   63SAPC   C28 5042   6.581   4.919   5.942  0.6039  1.1104 -0.1883
   63SAPC   H8R 5043   6.492   4.900   6.004  1.1311 -1.5866 -0.1243
   63SAPC   C29 5044   6.559   4.920   5.806  0.4620  0.1652 -0.4285
   63SAPC   H9R 5045   6.455   4.929   5.773 -0.3139  0.7308  2.0289
   63SAPC  C210 5046   6.664   4.951   5.704 -0.0562 -0.8251 -0.7673
   63SAPC  H10R 5047   6.752   5.002   5.748 -0.8224  0.7547 -1.0123
   63SAPC  H10S 5048   6.618   5.021   5.631  3.1197  0.0379 -2.1454
   63SAPC  C211 5049   6.693   4.818   5.640 -0.4539 -0.3917 -0.1397
   63SAPC  H11R 5050   6.754   4.752   5.703  1.0081  2.8057  2.0929
   63SAPC  C212 5051   6.645   4.774   5.520  0.0292 -0.5111  0.1041
   63SAPC  H12R 5052   6.692   4.682   5.482 -0.2435 -0.5503 -0.1510
   63SAPC  C213 5053   6.558   4.854   5.430 -0.4166  0.0384  0.6645
   63SAPC  H13R 5054   6.485   4.919   5.482  0.0751  1.4664 -0.3746
   63SAPC  H13S 5055   6.492   4.790   5.368 -3.3079  2.5418  0.9295
   63SAPC  C214 5056   6.640   4.942   5.340  0.4730  0.0729  0.2296
   63SAPC  H14R 5057   6.645   5.045   5.378  1.4499  1.3296 -3.0100
   63SAPC  C215 5058   6.680   4.921   5.215 -0.1155 -0.1636 -0.1973
   63SAPC  H15R 5059   6.725   5.001   5.154 -0.4414  0.0107 -0.2110
   63SAPC  C216 5060   6.641   4.802   5.131 -0.2685 -0.2130 -0.1249
   63SAPC  H16R 5061   6.614   4.714   5.193 -3.0302 -0.7350 -1.8848
   63SAPC  H16S 5062   6.727   4.774   5.066 -0.5462 -0.9899 -0.1702
   63SAPC  C217 5063   6.528   4.831   5.024  0.4987 -0.0341  0.3428
   63SAPC  H17R 5064   6.552   4.919   4.960  2.7697 -0.8507  0.0028
   63SAPC  H17S 5065   6.442   4.849   5.092  0.9054 -1.8599  1.3915
   63SAPC  C218 5066   6.488   4.716   4.928 -0.6987  0.6136 -0.0069
   63SAPC  H18R 5067   6.568   4.695   4.855 -2.3415  0.1431 -1.7684
   63SAPC  H18S 5068   6.398   4.740   4.867 -2.3683 -1.7580  1.3560
   63SAPC  C219 5069   6.455   4.571   4.992  0.1478  0.3098  0.6467
   63SAPC  H19R 5070   6.548   4.537   5.043 -0.1023  0.2446  1.0635
   63SAPC  H19S 5071   6.450   4.504   4.903  0.1957 -3.5383  3.3328
   63SAPC  C220 5072   6.324   4.571   5.080 -0.1833 -0.0185  0.0291
   63SAPC  H20R 5073   6.239   4.634   5.046 -0.3440 -0.5751 -0.6073
   63SAPC  H20S 5074   6.348   4.628   5.173 -3.8356  1.1005  0.4429
   63SAPC  H20T 5075   6.296   4.468   5.108 -1.0362 -0.3025 -1.7630
   63SAPC   C33 5076   6.210   4.888   6.096 -0.9802  0.2183 -0.0032
   63SAPC   H3X 5077   6.320   4.893   6.084 -0.9847  0.1397 -0.0727
   63SAPC   H3Y 5078   6.164   4.974   6.042 -0.8153 -0.4257 -1.2026
   63SAPC   C34 5079   6.164   4.753   6.030  0.0866 -0.8301 -0.6239
   63SAPC   H4X 5080   6.055   4.734   6.023  0.1763 -1.8283  0.5519
   63SAPC   H4Y 5081   6.213   4.678   6.095  2.6847  1.8563  0.8258
   63SAPC   C35 5082   6.199   4.732   5.882  0.6235  0.2310 -0.3235
   63SAPC   H5X 5083   6.177   4.626   5.858  0.7707 -0.1847  1.2737
   63SAPC   H5Y 5084   6.302   4.766   5.860 -0.2043  1.5041 -2.4909
   63SAPC   C36 5085   6.096   4.811   5.794  0.1422 -0.0934 -0.3914
   63SAPC   H6X 5086   6.097   4.918   5.826 -2.0355 -0.2333  0.3109
   63SAPC   H6Y 5087   5.991   4.781   5.814 -0.4036 -0.0538 -2.8304
   63SAPC   C37 5088   6.111   4.796   5.641 -0.1607  0.2635 -0.2305
   63SAPC   H7X 5089   6.092   4.689   5.617 -1.1453  0.3740  0.0082
   63SAPC   H7Y 5090   6.214   4.817   5.606 -0.3393  1.0268 -0.2984
   63SAPC   C38 5091   6.020   4.888   5.554  0.2965  0.3412 -0.1494
   63SAPC   H8X 5092   6.065   4.875   5.454  1.6374  0.7480  0.3837
   63SAPC   H8Y 5093   6.051   4.988   5.591  2.6270 -0.2206 -0.4251
   63SAPC   C39 5094   5.871   4.872   5.557  0.6422  0.3046 -0.0888
   63SAPC   H9X 5095   5.837   4.923   5.650  1.3137  1.5229 -0.4816
   63SAPC   H9Y 5096   5.853   4.763   5.564  2.0281  0.1632  1.9749
   63SAPC  C310 5097   5.789   4.918   5.435  0.5159  0.2899  0.4594
   63SAPC  H10X 5098   5.680   4.902   5.446  0.0539  1.2873 -2.0098
   63SAPC  H10Y 5099   5.817   4.850   5.352 -4.1952  0.2144 -1.3397
   63SAPC  C311 5100   5.820   5.063   5.392  0.2441  0.4670  0.7592
   63SAPC  H11X 5101   5.923   5.052   5.351 -1.4983 -1.3584 -3.8168
   63SAPC  H11Y 5102   5.810   5.132   5.479 -0.1377  1.2249  0.1302
   63SAPC  C312 5103   5.726   5.125   5.291 -0.2433 -0.5629 -0.1657
   63SAPC  H12X 5104   5.699   5.229   5.319  1.5822  0.6019 -2.3036
   63SAPC  H12Y 5105   5.628   5.076   5.307 -0.5982  1.0833  3.7543
   63SAPC  C313 5106   5.768   5.130   5.141  0.1000 -0.0949  0.4749
   63SAPC  H13X 5107   5.785   5.024   5.112 -0.6872 -0.2205  0.4376
   63SAPC  H13Y 5108   5.864   5.183   5.155  1.4514 -2.2197 -0.2627
   63SAPC  C314 5109   5.662   5.198   5.050 -0.1887  0.0408  0.1162
   63SAPC  H14X 5110   5.650   5.298   5.098 -2.7998 -0.8860  1.5318
   63SAPC  H14Y 5111   5.560   5.156   5.063  0.3141 -1.3119 -0.1265
   63SAPC  C315 5112   5.709   5.224   4.906 -0.5465  0.3398  0.2492
   63SAPC  H15X 5113   5.745   5.128   4.861 -2.0220 -0.8734  1.5533
   63SAPC  H15Y 5114   5.790   5.300   4.907 -0.6538  0.5640 -1.8587
   63SAPC  C316 5115   5.596   5.267   4.804 -0.2063 -0.5654 -0.2547
   63SAPC  H16X 5116   5.585   5.377   4.807  2.0563 -0.1768 -2.6336
   63SAPC  H16Y 5117   5.504   5.221   4.845 -1.1724  2.0148  0.6552
   63SAPC  C317 5118   5.609   5.230   4.661  0.6392  0.7574  0.2532
   63SAPC  H17X 5119   5.515   5.257   4.608 -0.2273 -0.6285  1.0359
   63SAPC  H17Y 5120   5.627   5.121   4.651 -0.4589  0.5736  0.1692
   63SAPC  C318 5121   5.720   5.304   4.577  0.1668 -0.9438 -0.3630
   63SAPC  H18X 5122   5.746   5.247   4.485  0.0202  0.4055 -1.2694
   63SAPC  H18Y 5123   5.809   5.305   4.643  1.4409  0.8211 -2.0133
   63SAPC  H18Z 5124   5.688   5.402   4.537 -0.8669 -1.2282 -0.2513
   64SAPC     N 5125   0.012   5.282   7.109  0.1226 -0.4593 -0.6577
   64SAPC   C12 5126  -0.071   5.410   7.111 -0.1892  0.7051  0.4638
   64SAPC  H12A 5127  -0.070   5.442   7.214 -1.5362 -0.7131  0.9417
   64SAPC  H12B 5128  -0.170   5.399   7.071 -0.7271  0.2135  1.8691
   64SAPC   C13 5129  -0.060   5.169   7.182  0.6863  0.0415 -0.7085
   64SAPC  H13A 5130  -0.085   5.196   7.283  2.4651 -1.6451  0.2569
   64SAPC  H13B 5131  -0.153   5.141   7.135  1.1654 -2.8025 -0.1627
   64SAPC  H13C 5132  -0.006   5.076   7.190 -0.8633 -0.8537 -0.1961
   64SAPC   C14 5133   0.042   5.242   6.977  0.7173 -0.9579  1.0011
   64SAPC  H14A 5134   0.057   5.320   6.904  0.2474 -2.2020 -0.4898
   64SAPC  H14B 5135   0.129   5.179   6.977  3.0385  1.9522 -1.5154
   64SAPC  H14C 5136  -0.042   5.184   6.940  1.7970 -2.6493  1.1200
   64SAPC   C15 5137   0.145   5.307   7.174 -0.3355 -0.4809 -0.2874
   64SAPC  H15A 5138   0.222   5.239   7.140 -2.0474 -2.0671 -1.1337
   64SAPC  H15B 5139   0.167   5.412   7.157 -1.3579 -0.4727 -1.6649
   64SAPC  H15C 5140   0.135   5.289   7.280  0.3328 -0.0215 -0.1332
   64SAPC   C11 5141  -0.022   5.529   7.024 -0.6743 -0.5427  0.1794
   64SAPC  H11A 5142  -0.102   5.606   7.017 -0.2288 -0.0250  0.7439
   64SAPC  H11B 5143   0.004   5.490   6.923 -1.3386 -1.9368  0.5190
   64SAPC     P 5144   0.073   5.698   7.207 -0.4669 -0.0388  0.0198
   64SAPC   O13 5145  -0.004   5.622   7.310 -0.6566  0.2794 -0.8182
   64SAPC   O14 5146   0.198   5.771   7.244 -0.0200  0.2078  0.1918
   64SAPC   O12 5147   0.092   5.594   7.089 -0.2934 -0.3562 -0.0000
   64SAPC   O11 5148  -0.015   5.809   7.139 -0.0335  0.6317 -0.7050
   64SAPC    C1 5149   0.054   5.886   7.043  0.8111  0.2790  0.1940
   64SAPC    HA 5150   0.114   5.966   7.091 -0.0883  1.9627 -1.3764
   64SAPC    HB 5151   0.124   5.826   6.980  1.1366 -1.2730  1.9336
   64SAPC    C2 5152  -0.048   5.963   6.946 -0.4264  0.1439 -1.2174
   64SAPC    HS 5153  -0.119   6.008   7.019  1.3639 -0.7292  1.1774
   64SAPC   O21 5154  -0.102   5.872   6.854  0.5051  0.3785 -0.0824
   64SAPC   C21 5155  -0.221   5.904   6.804  0.3028  0.1619 -0.7230
   64SAPC   O22 5156  -0.277   6.009   6.836 -0.2545 -0.0810  0.3631
   64SAPC   C22 5157  -0.273   5.800   6.713  0.0437  0.1527  0.0948
   64SAPC   H2R 5158  -0.299   5.708   6.770  0.3722 -0.9116 -1.4112
   64SAPC   H2S 5159  -0.364   5.839   6.664 -0.6708  0.5879  1.7255
   64SAPC    C3 5160   0.024   6.083   6.881  0.4607 -0.2847 -0.7893
   64SAPC    HX 5161   0.044   6.155   6.963  1.4080 -2.6807  1.2359
   64SAPC    HY 5162  -0.050   6.127   6.811 -1.2618  1.0971  1.7511
   64SAPC   O31 5163   0.151   6.042   6.831  0.1655 -0.4050 -0.1362
   64SAPC   C31 5164   0.190   6.099   6.717 -0.6720  0.1955 -0.0371
   64SAPC   O32 5165   0.121   6.173   6.647 -0.3441 -0.3473  0.0303
   64SAPC   C32 5166   0.325   6.039   6.684 -0.2052  0.1628 -0.2337
   64SAPC   H2X 5167   0.305   5.930   6.689 -3.7571  0.7093 -0.0203
   64SAPC   H2Y 5168   0.395   6.075   6.762 -1.8289  2.2516  0.3599
   64SAPC   C23 5169  -0.178   5.765   6.600 -0.8874  0.2497 -0.1538
   64SAPC   H3R 5170  -0.078   5.736   6.640 -0.1904 -0.5670 -2.3178
   64SAPC   H3S 5171  -0.160   5.856   6.540  0.1987 -0.5426 -1.0820
   64SAPC   C24 5172  -0.225   5.652   6.509  0.7010 -0.4827 -0.1177
   64SAPC   H4R 5173  -0.265   5.575   6.578  0.0005  0.4560  0.5409
   64SAPC   H4S 5174  -0.142   5.599   6.458  1.3137  0.7219 -0.4034
   64SAPC   C25 5175  -0.334   5.690   6.415  0.1033 -0.2815  0.0163
   64SAPC   H5R 5176  -0.426   5.725   6.463  0.2261  0.5576 -0.3541
   64SAPC   C26 5177  -0.319   5.710   6.284 -0.4258  0.1605 -0.9327
   64SAPC   H6R 5178  -0.408   5.738   6.225  0.6305  1.2134 -2.0664
   64SAPC   C27 5179  -0.201   5.687   6.196 -0.0687 -0.3626 -0.1046
   64SAPC   H7R 5180  -0.229   5.608   6.122 -1.4630 -0.5768  0.6177
   64SAPC   H7S 5181  -0.129   5.634   6.262 -0.1004  0.9729  1.0539
   64SAPC   C28 5182  -0.137   5.812   6.136 -0.7942  0.5575  0.3609
   64SAPC   H8R 5183  -0.047   5.838   6.193 -0.2539 -1.4741  0.4984
   64SAPC   C29 5184  -0.163   5.878   6.029 -0.1666  0.3501  0.6169
   64SAPC   H9R 5185  -0.094   5.959   6.001  0.1018  0.5496  1.8171
   64SAPC  C210 5186  -0.277   5.858   5.935  0.8221  0.6575  0.5642
   64SAPC  H10R 5187  -0.348   5.939   5.960  0.0635 -0.7213  3.1582
   64SAPC  H10S 5188  -0.341   5.767   5.939  0.9540  0.2288 -3.0190
   64SAPC  C211 5189  -0.237   5.867   5.791 -0.4498 -0.4142  0.1393
   64SAPC  H11R 5190  -0.133   5.900   5.775 -1.0548  0.9856 -1.2342
   64SAPC  C212 5191  -0.323   5.850   5.687 -0.2305  0.5643 -0.4690
   64SAPC  H12R 5192  -0.281   5.835   5.586  2.0553 -1.2560  0.6418
   64SAPC  C213 5193  -0.467   5.798   5.688  0.1701 -0.3256  0.0876
   64SAPC  H13R 5194  -0.541   5.867   5.643 -0.3503 -2.3579 -2.4764
   64SAPC  H13S 5195  -0.490   5.782   5.796  1.0067 -0.6725  0.2262
   64SAPC  C214 5196  -0.477   5.662   5.629  0.1394  0.1671 -0.2337
   64SAPC  H14R 5197  -0.452   5.576   5.693  0.6443 -0.5507 -1.3559
   64SAPC  C215 5198  -0.510   5.631   5.501  1.4794  0.2525  0.0301
   64SAPC  H15R 5199  -0.498   5.531   5.457  1.3277  1.2245 -2.3999
   64SAPC  C216 5200  -0.533   5.746   5.403  0.3778  0.2024 -0.0589
   64SAPC  H16R 5201  -0.468   5.827   5.442  2.0367 -1.1406  0.0604
   64SAPC  H16S 5202  -0.637   5.784   5.415 -0.5300 -2.3008  0.6566
   64SAPC  C217 5203  -0.520   5.712   5.257  0.6616  0.3455 -0.1582
   64SAPC  H17R 5204  -0.428   5.651   5.244  0.4098 -0.3130  0.9706
   64SAPC  H17S 5205  -0.516   5.802   5.192 -0.2603  0.1278 -0.5324
   64SAPC  C218 5206  -0.624   5.613   5.203  0.0182 -0.8998  0.6245
   64SAPC  H18R 5207  -0.721   5.668   5.200  0.9939  1.0399  2.2374
   64SAPC  H18S 5208  -0.623   5.523   5.267  1.4588 -2.0880 -0.9678
   64SAPC  C219 5209  -0.599   5.566   5.052  0.1523  0.5032  0.8283
   64SAPC  H19R 5210  -0.493   5.531   5.050  0.0318  0.0520  1.9371
   64SAPC  H19S 5211  -0.605   5.660   4.993 -0.3601  0.3715  0.6683
   64SAPC  C220 5212  -0.692   5.451   5.014  0.1351  0.4314  0.8806
   64SAPC  H20R 5213  -0.668   5.404   4.916  0.6861  0.3261  1.0604
   64SAPC  H20S 5214  -0.800   5.478   5.017 -0.7332 -2.5997 -0.3660
   64SAPC  H20T 5215  -0.696   5.372   5.092 -1.6051 -0.5893 -0.1860
   64SAPC   C33 5216   0.370   6.073   6.541  0.0929 -0.6749  0.2693
   64SAPC   H3X 5217   0.464   6.017   6.523  0.6190  0.3285 -0.1885
   64SAPC   H3Y 5218   0.397   6.181   6.534 -0.8912 -0.4125  0.4345
   64SAPC   C34 5219   0.284   6.024   6.426  0.6030 -0.3210 -0.1104
   64SAPC   H4X 5220   0.175   6.025   6.447  0.1917  4.6382 -1.2575
   64SAPC   H4Y 5221   0.308   5.919   6.398 -0.5036 -0.3915 -0.8390
   64SAPC   C35 5222   0.320   6.092   6.289 -0.5448  0.1754  0.4637
   64SAPC   H5X 5223   0.429   6.100   6.272 -0.7617  0.8344 -0.7836
   64SAPC   H5Y 5224   0.272   6.192   6.299  1.9649  1.5039  0.0552
   64SAPC   C36 5225   0.260   6.022   6.161 -0.0648  0.5087 -0.5659
   64SAPC   H6X 5226   0.151   6.005   6.167 -0.0865  1.1085  3.1339
   64SAPC   H6Y 5227   0.305   5.922   6.146  0.0995  0.4958 -0.0174
   64SAPC   C37 5228   0.276   6.103   6.029 -0.5347 -0.4624 -0.7612
   64SAPC   H7X 5229   0.383   6.096   5.999 -0.5153 -0.9279 -0.5960
   64SAPC   H7Y 5230   0.245   6.209   6.041  1.9901  0.2923 -0.3559
   64SAPC   C38 5231   0.198   6.045   5.914  0.0072 -0.0297  0.0540
   64SAPC   H8X 5232   0.089   6.057   5.934 -0.3350  2.2961 -2.6221
   64SAPC   H8Y 5233   0.224   5.937   5.926 -0.9794 -0.2851  0.0036
   64SAPC   C39 5234   0.241   6.096   5.774 -0.2804 -0.0614 -0.4315
   64SAPC   H9X 5235   0.342   6.051   5.767 -0.5624 -0.7525 -0.0768
   64SAPC   H9Y 5236   0.243   6.208   5.775  0.7320  0.0666 -3.6437
   64SAPC  C310 5237   0.143   6.036   5.677 -0.3071  0.6535  0.1397
   64SAPC  H10X 5238   0.043   6.084   5.685 -0.7536 -0.1387 -0.5085
   64SAPC  H10Y 5239   0.122   5.932   5.711  0.3844  0.0429 -1.2153
   64SAPC  C311 5240   0.179   6.034   5.526  0.3453  0.2395 -0.5489
   64SAPC  H11X 5241   0.275   5.981   5.515  0.2867 -1.0278  3.3722
   64SAPC  H11Y 5242   0.185   6.141   5.497 -2.1428  0.1323 -1.8023
   64SAPC  C312 5243   0.067   5.959   5.448 -0.6473  0.7078  0.2328
   64SAPC  H12X 5244  -0.031   6.011   5.450 -0.5226  0.9148  1.2514
   64SAPC  H12Y 5245   0.059   5.861   5.500 -2.9588  0.5630 -0.3001
   64SAPC  C313 5246   0.099   5.950   5.296  0.0526  0.1686 -0.3220
   64SAPC  H13X 5247   0.187   5.883   5.280 -0.5440 -0.8014  0.3687
   64SAPC  H13Y 5248   0.121   6.044   5.242  1.6619 -0.7168 -1.3107
   64SAPC  C314 5249  -0.019   5.890   5.209 -0.5876  0.0033  0.5169
   64SAPC  H14X 5250  -0.114   5.940   5.238 -0.7088  0.8652 -1.2245
   64SAPC  H14Y 5251  -0.020   5.784   5.242  0.2638 -0.8614 -2.0107
   64SAPC  C315 5252   0.007   5.888   5.058 -0.0104 -0.5031  0.3897
   64SAPC  H15X 5253   0.109   5.852   5.036  0.1307 -0.1786  0.4938
   64SAPC  H15Y 5254   0.009   5.998   5.039 -0.1673 -0.6094 -0.2447
   64SAPC  C316 5255  -0.093   5.807   4.979 -0.0055 -0.8692 -0.0842
   64SAPC  H16X 5256  -0.075   5.701   5.009  1.7033 -0.0680  1.9523
   64SAPC  H16Y 5257  -0.064   5.823   4.873  0.6044  1.5644  0.3907
   64SAPC  C317 5258  -0.234   5.863   4.979  0.0707  0.0485 -0.1463
   64SAPC  H17X 5259  -0.257   5.863   5.087  2.2651 -0.1612  0.3618
   64SAPC  H17Y 5260  -0.292   5.796   4.911  0.2286 -0.3099  0.0704
   64SAPC  C318 5261  -0.240   5.998   4.912  0.1685  0.2750 -0.4149
   64SAPC  H18X 5262  -0.210   6.083   4.977 -1.4012  1.5266 -1.2297
   64SAPC  H18Y 5263  -0.346   6.002   4.878  0.2103  1.1781 -0.4559
   64SAPC  H18Z 5264  -0.176   5.999   4.821  1.2158 -3.3883  0.1057
   65SAPC     N 5265   5.442   0.667   2.127  0.4401 -0.1693 -0.2862
   65SAPC   C12 5266   5.459   0.632   2.272  1.3107  0.7030  0.3981
   65SAPC  H12A 5267   5.489   0.529   2.281 -2.7182 -0.5913  1.1394
   65SAPC  H12B 5268   5.358   0.638   2.309  0.6803  1.7635 -1.3823
   65SAPC   C13 5269   5.374   0.558   2.047  0.2394 -0.5000  0.1764
   65SAPC  H13A 5270   5.378   0.559   1.939  0.0507 -1.0151  0.1611
   65SAPC  H13B 5271   5.434   0.471   2.069  2.8338  0.7497 -1.4267
   65SAPC  H13C 5272   5.282   0.529   2.096 -0.0407  2.2556  1.4852
   65SAPC   C14 5273   5.355   0.788   2.124  0.3373  0.0007 -0.7579
   65SAPC  H14A 5274   5.345   0.829   2.024 -0.5696  0.3523 -0.5296
   65SAPC  H14B 5275   5.256   0.754   2.148  0.0039  0.8874 -0.8325
   65SAPC  H14C 5276   5.386   0.862   2.197 -0.4071 -0.3415 -0.0846
   65SAPC   C15 5277   5.582   0.686   2.073 -0.1233 -0.2851  0.7027
   65SAPC  H15A 5278   5.573   0.715   1.970 -1.4141 -0.9972  0.5873
   65SAPC  H15B 5279   5.627   0.775   2.113  0.2251 -0.7855  1.4699
   65SAPC  H15C 5280   5.642   0.600   2.101 -2.6989 -2.4059  0.1364
   65SAPC   C11 5281   5.555   0.723   2.353  1.2104  0.4474 -0.0256
   65SAPC  H11A 5282   5.658   0.696   2.322  1.0098 -0.0469 -0.2819
   65SAPC  H11B 5283   5.547   0.694   2.460  1.7368  2.7277  0.6759
   65SAPC     P 5284   5.643   0.962   2.314  0.4087  0.0147  0.2594
   65SAPC   O13 5285   5.759   0.886   2.266  0.2406  0.0740  0.1258
   65SAPC   O14 5286   5.589   1.071   2.227 -0.2745 -0.1816 -0.2169
   65SAPC   O12 5287   5.518   0.863   2.348  0.0207 -0.2939  0.5823
   65SAPC   O11 5288   5.685   1.017   2.455  0.4998 -0.2496  0.2076
   65SAPC    C1 5289   5.671   1.156   2.492  0.2456  0.2878  0.1624
   65SAPC    HA 5290   5.577   1.201   2.454  0.5994  2.7991  2.0359
   65SAPC    HB 5291   5.667   1.161   2.603 -2.6386  2.3304  0.0753
   65SAPC    C2 5292   5.789   1.248   2.439  0.8140 -0.1083  0.2824
   65SAPC    HS 5293   5.797   1.229   2.330 -0.1913 -2.7473  0.5964
   65SAPC   O21 5294   5.910   1.211   2.510  0.2689  0.5861 -0.1885
   65SAPC   C21 5295   6.026   1.262   2.459 -0.3428 -0.2579  0.4447
   65SAPC   O22 5296   6.034   1.332   2.360  0.5848 -0.2587  0.3389
   65SAPC   C22 5297   6.150   1.217   2.535  0.3961  0.5585  0.0589
   65SAPC   H2R 5298   6.173   1.115   2.499 -0.5250  0.9326 -1.7030
   65SAPC   H2S 5299   6.236   1.280   2.504 -0.5841  1.3145 -1.2515
   65SAPC    C3 5300   5.758   1.401   2.449 -0.4048  0.0665 -0.2948
   65SAPC    HX 5301   5.658   1.418   2.405 -1.2197 -2.2954  0.4943
   65SAPC    HY 5302   5.844   1.455   2.403  0.2067  2.1911  3.0068
   65SAPC   O31 5303   5.744   1.440   2.589  0.1198  1.1906 -0.4080
   65SAPC   C31 5304   5.843   1.479   2.667 -0.0273 -0.2013 -0.4807
   65SAPC   O32 5305   5.958   1.499   2.632 -0.1163  0.6515  0.4404
   65SAPC   C32 5306   5.794   1.502   2.807  0.6051  0.1911  0.7711
   65SAPC   H2X 5307   5.789   1.402   2.855 -3.2540 -0.0107  0.2702
   65SAPC   H2Y 5308   5.692   1.545   2.814 -0.4273 -2.0197  0.4571
   65SAPC   C23 5309   6.138   1.197   2.692 -0.6869  0.0626 -0.0119
   65SAPC   H3R 5310   6.049   1.137   2.720 -0.4882  0.3645  1.3054
   65SAPC   H3S 5311   6.131   1.296   2.741  2.2035  0.5504 -0.4256
   65SAPC   C24 5312   6.269   1.140   2.749  0.0312  0.3805 -0.3722
   65SAPC   H4R 5313   6.262   1.151   2.859 -0.1065 -2.3425 -0.0429
   65SAPC   H4S 5314   6.364   1.195   2.730 -0.3228  1.2856  0.4000
   65SAPC   C25 5315   6.286   0.993   2.728 -0.0879 -0.2084  0.2726
   65SAPC   H5R 5316   6.289   0.962   2.623 -2.0824  0.2660  0.0390
   65SAPC   C26 5317   6.292   0.899   2.826 -0.0608 -0.1561  0.8553
   65SAPC   H6R 5318   6.302   0.793   2.798 -0.7825  0.5638 -2.5988
   65SAPC   C27 5319   6.277   0.928   2.973  0.0294 -0.8194  0.1639
   65SAPC   H7R 5320   6.171   0.955   2.992 -0.5863 -1.5853 -1.9383
   65SAPC   H7S 5321   6.340   1.018   2.995  1.4710 -0.9651 -2.7386
   65SAPC   C28 5322   6.313   0.817   3.060 -0.7213  0.3807 -0.6911
   65SAPC   H8R 5323   6.361   0.734   3.006 -3.3337 -0.6260 -1.6224
   65SAPC   C29 5324   6.315   0.816   3.192 -0.1497 -0.6178 -0.2062
   65SAPC   H9R 5325   6.332   0.719   3.239 -1.2825 -0.8826 -0.3098
   65SAPC  C210 5326   6.255   0.917   3.280 -0.3342 -0.8253 -0.7812
   65SAPC  H10R 5327   6.186   0.868   3.352 -0.7636 -1.7245 -1.7763
   65SAPC  H10S 5328   6.205   1.000   3.225  1.7951  1.6765  0.7879
   65SAPC  C211 5329   6.365   0.985   3.365 -0.0637 -1.2448  0.4292
   65SAPC  H11R 5330   6.425   1.062   3.314 -0.5813 -1.4565 -0.5332
   65SAPC  C212 5331   6.407   0.954   3.492 -0.2794 -0.3096 -0.6792
   65SAPC  H12R 5332   6.491   1.010   3.533 -1.1473 -0.2207  1.0597
   65SAPC  C213 5333   6.351   0.841   3.581 -0.2630  0.0352 -0.9029
   65SAPC  H13R 5334   6.436   0.794   3.634 -0.4737  2.9663  2.3772
   65SAPC  H13S 5335   6.296   0.764   3.523 -1.4445 -0.0364  0.2591
   65SAPC  C214 5336   6.236   0.889   3.674 -0.5267  0.1325  0.1197
   65SAPC  H14R 5337   6.164   0.958   3.627 -1.4001 -1.1994 -0.5501
   65SAPC  C215 5338   6.235   0.888   3.809 -0.1895 -0.7891 -0.5631
   65SAPC  H15R 5339   6.147   0.932   3.858  0.0968  2.1106 -2.3919
   65SAPC  C216 5340   6.337   0.829   3.904  0.1186  0.5424  0.6398
   65SAPC  H16R 5341   6.354   0.903   3.986 -0.5063  2.1209 -0.6019
   65SAPC  H16S 5342   6.436   0.815   3.855 -0.1655  0.0952  0.1921
   65SAPC  C217 5343   6.304   0.696   3.976 -0.4170  0.0336  0.1819
   65SAPC  H17R 5344   6.398   0.654   4.018  1.0335  0.7840 -2.1309
   65SAPC  H17S 5345   6.250   0.627   3.906  0.5541  0.4556 -1.0158
   65SAPC  C218 5346   6.207   0.715   4.094  0.4981 -0.4277 -0.5140
   65SAPC  H18R 5347   6.108   0.750   4.057  0.1469 -1.4721 -0.5900
   65SAPC  H18S 5348   6.248   0.784   4.171 -1.1102 -0.2580  0.2521
   65SAPC  C219 5349   6.171   0.573   4.148 -0.6244  0.1820  0.4855
   65SAPC  H19R 5350   6.268   0.526   4.171  0.4870  1.0833 -1.9776
   65SAPC  H19S 5351   6.117   0.515   4.069  0.5231  2.1267 -1.8663
   65SAPC  C220 5352   6.089   0.579   4.269 -0.3393 -0.1353 -0.9367
   65SAPC  H20R 5353   6.076   0.475   4.306 -0.9592  0.5533  0.9062
   65SAPC  H20S 5354   5.987   0.620   4.253 -0.1636  0.5165 -0.4380
   65SAPC  H20T 5355   6.123   0.648   4.350 -0.8514  0.3797 -1.1526
   65SAPC   C33 5356   5.890   1.577   2.903  0.6190  0.2745 -0.0745
   65SAPC   H3X 5357   5.909   1.679   2.863  0.7226  1.3930  2.6411
   65SAPC   H3Y 5358   5.984   1.520   2.883 -0.0492 -1.2419  0.9288
   65SAPC   C34 5359   5.854   1.580   3.054 -0.4501  0.3197  0.0990
   65SAPC   H4X 5360   5.746   1.604   3.054 -0.6297 -0.4344 -0.6459
   65SAPC   H4Y 5361   5.907   1.670   3.093  1.0328 -1.4961  2.4906
   65SAPC   C35 5362   5.882   1.454   3.138 -0.1480 -0.5360 -0.0330
   65SAPC   H5X 5363   5.840   1.364   3.088  2.7087 -2.7451  1.2734
   65SAPC   H5Y 5364   5.825   1.473   3.232  0.3869  0.1637  0.1536
   65SAPC   C36 5365   6.032   1.428   3.166 -0.2625 -0.0399  1.3705
   65SAPC   H6X 5366   6.076   1.529   3.175 -2.9255  1.2500  1.0486
   65SAPC   H6Y 5367   6.071   1.383   3.073 -0.5464  3.1175 -0.4154
   65SAPC   C37 5368   6.064   1.335   3.284 -0.3220 -0.0840  0.1323
   65SAPC   H7X 5369   6.163   1.286   3.273 -1.4453 -2.4576  0.1609
   65SAPC   H7Y 5370   5.982   1.260   3.282  0.3109 -1.0486  3.8463
   65SAPC   C38 5371   6.044   1.396   3.426 -0.0702  0.1304 -0.7311
   65SAPC   H8X 5372   5.935   1.416   3.441 -0.6697 -1.7089 -2.1854
   65SAPC   H8Y 5373   6.105   1.489   3.423  1.4169 -0.7688  0.5386
   65SAPC   C39 5374   6.098   1.303   3.528  0.4275  0.4920  0.3041
   65SAPC   H9X 5375   6.206   1.282   3.512 -0.0811 -1.5797 -0.6720
   65SAPC   H9Y 5376   6.054   1.201   3.527 -0.7654  0.9752 -2.0046
   65SAPC  C310 5377   6.066   1.362   3.676 -0.3981  0.7021  0.3875
   65SAPC  H10X 5378   5.955   1.349   3.677 -0.4498  0.7634 -1.2332
   65SAPC  H10Y 5379   6.108   1.464   3.687 -2.4153  1.5630  0.5019
   65SAPC  C311 5380   6.108   1.270   3.791  0.2829 -0.3700  0.4635
   65SAPC  H11X 5381   6.218   1.276   3.799  0.2564  0.3902  0.2949
   65SAPC  H11Y 5382   6.088   1.164   3.764 -1.6472 -0.1728  0.9762
   65SAPC  C312 5383   6.030   1.290   3.920 -0.2167 -0.6009  0.0751
   65SAPC  H12X 5384   5.920   1.299   3.909  0.0587  3.1023 -1.0608
   65SAPC  H12Y 5385   6.072   1.371   3.984 -2.1031  0.4464  0.0787
   65SAPC  C313 5386   6.045   1.175   4.019  0.2599  0.4564  0.1885
   65SAPC  H13X 5387   6.150   1.143   4.035  1.1393  2.0040 -1.8946
   65SAPC  H13Y 5388   5.996   1.081   3.986 -2.2012  1.1761  1.5970
   65SAPC  C314 5389   5.992   1.214   4.157  0.4895 -0.0065 -0.1280
   65SAPC  H14X 5390   5.895   1.267   4.152  0.4742 -0.1177 -1.3836
   65SAPC  H14Y 5391   6.070   1.283   4.195  0.8814  0.6243 -1.9448
   65SAPC  C315 5392   5.966   1.107   4.261  0.7492  0.2135 -0.0309
   65SAPC  H15X 5393   5.902   1.023   4.225  1.6768 -0.5879  0.1479
   65SAPC  H15Y 5394   5.902   1.146   4.343 -1.2954  1.9097 -2.2832
   65SAPC  C316 5395   6.088   1.038   4.313  0.0419  0.2641  0.8083
   65SAPC  H16X 5396   6.148   1.110   4.372  1.2838 -1.3196  1.5729
   65SAPC  H16Y 5397   6.155   1.003   4.232  0.9347  0.6055  1.3870
   65SAPC  C317 5398   6.055   0.917   4.398  0.3611 -0.4414  0.0026
   65SAPC  H17X 5399   6.147   0.873   4.442 -1.4130 -0.4426  4.1159
   65SAPC  H17Y 5400   6.013   0.842   4.328  1.3197  1.7736 -3.1865
   65SAPC  C318 5401   5.963   0.948   4.513  0.0920  0.2663 -0.3161
   65SAPC  H18X 5402   5.861   0.905   4.500  0.8295 -1.6295 -0.1363
   65SAPC  H18Y 5403   5.973   1.054   4.543 -2.6897  1.0555 -1.8362
   65SAPC  H18Z 5404   5.989   0.888   4.603  2.2515  0.7336 -0.5643
   66SAPC     N 5405   3.149   3.915   1.500  0.3075 -0.2360  0.4357
   66SAPC   C12 5406   3.040   3.919   1.613  0.0625  0.7721  0.4136
   66SAPC  H12A 5407   2.976   3.834   1.595  0.1567  0.9848 -1.0312
   66SAPC  H12B 5408   2.975   4.003   1.595 -0.4832  1.1707  3.5966
   66SAPC   C13 5409   3.236   4.029   1.507 -0.1565 -0.5655 -0.4589
   66SAPC  H13A 5410   3.274   4.035   1.608 -0.6406 -0.3139 -0.2910
   66SAPC  H13B 5411   3.325   4.009   1.449 -1.3018 -1.7888 -1.8783
   66SAPC  H13C 5412   3.191   4.117   1.463  1.2096 -0.0722 -0.9124
   66SAPC   C14 5413   3.228   3.794   1.516 -0.5538  0.7472 -0.8138
   66SAPC  H14A 5414   3.172   3.705   1.541 -1.7922  0.7677 -3.2204
   66SAPC  H14B 5415   3.286   3.762   1.431 -2.3735 -1.0795 -1.4466
   66SAPC  H14C 5416   3.293   3.806   1.601 -1.3099 -3.0421  0.4867
   66SAPC   C15 5417   3.086   3.914   1.360  0.4345  0.6422  0.5736
   66SAPC  H15A 5418   3.163   3.942   1.290  2.2017 -1.9377  1.3456
   66SAPC  H15B 5419   3.040   3.818   1.340 -0.8462  0.9198  2.0115
   66SAPC  H15C 5420   3.002   3.982   1.356 -1.0055 -1.0635  0.7159
   66SAPC   C11 5421   3.099   3.901   1.760 -0.0245 -0.4532 -0.0966
   66SAPC  H11A 5422   3.166   3.813   1.762 -0.2990 -0.6824  3.0256
   66SAPC  H11B 5423   3.005   3.890   1.819  1.0181 -1.4383  1.4515
   66SAPC     P 5424   3.230   4.020   1.950 -0.7405  0.1102 -0.1039
   66SAPC   O13 5425   3.341   3.922   1.956 -0.5720 -0.0665 -0.3261
   66SAPC   O14 5426   3.257   4.161   1.978  0.0644  0.5515 -0.4040
   66SAPC   O12 5427   3.168   4.024   1.801  0.0497  0.0466  0.0231
   66SAPC   O11 5428   3.115   3.962   2.041 -0.0159  0.6458 -0.6128
   66SAPC    C1 5429   3.002   4.046   2.078 -0.1682 -0.6032 -0.5733
   66SAPC    HA 5430   3.038   4.144   2.117 -0.6564 -0.9006  0.6576
   66SAPC    HB 5431   2.945   4.070   1.986  0.8512 -0.3462 -1.1520
   66SAPC    C2 5432   2.913   3.989   2.189 -0.4948 -0.0045  0.6752
   66SAPC    HS 5433   2.988   3.965   2.267  0.4798  3.1755  0.8605
   66SAPC   O21 5434   2.846   3.880   2.129 -0.3424  0.4230 -0.2862
   66SAPC   C21 5435   2.855   3.764   2.195  0.1549  0.2871  0.3977
   66SAPC   O22 5436   2.930   3.738   2.286  0.4341  0.3362  0.2044
   66SAPC   C22 5437   2.770   3.650   2.139  0.2295 -0.3182  0.0842
   66SAPC   H2R 5438   2.688   3.701   2.083  0.1905 -3.2542 -2.8785
   66SAPC   H2S 5439   2.832   3.586   2.073 -1.3590  0.9716 -2.8540
   66SAPC    C3 5440   2.806   4.095   2.239  0.4794  0.4014 -0.3898
   66SAPC    HX 5441   2.740   4.124   2.154  1.4966  1.1464 -0.9507
   66SAPC    HY 5442   2.856   4.191   2.261 -0.7199  0.8927  0.2974
   66SAPC   O31 5443   2.725   4.047   2.344  0.2864 -0.0777 -0.6415
   66SAPC   C31 5444   2.782   4.046   2.462 -0.4808  0.2705 -1.1931
   66SAPC   O32 5445   2.894   4.093   2.483 -0.2720  0.4586 -0.1549
   66SAPC   C32 5446   2.701   3.984   2.570  0.2438  0.2565  0.2082
   66SAPC   H2X 5447   2.674   3.877   2.553  0.2224  0.4719 -1.2415
   66SAPC   H2Y 5448   2.598   4.026   2.564 -0.2030 -0.8925 -0.6936
   66SAPC   C23 5449   2.708   3.577   2.260 -0.1557 -0.1419 -0.1212
   66SAPC   H3R 5450   2.655   3.652   2.322 -1.1039 -0.2969 -0.7280
   66SAPC   H3S 5451   2.785   3.541   2.330  0.0769 -1.8951 -1.2286
   66SAPC   C24 5452   2.606   3.460   2.239  0.5676  0.5644 -0.7257
   66SAPC   H4R 5453   2.518   3.503   2.187 -0.5010 -0.1840  0.4199
   66SAPC   H4S 5454   2.558   3.420   2.331 -0.6631 -2.1346 -2.3927
   66SAPC   C25 5455   2.673   3.340   2.165  0.3507 -0.3583  0.2656
   66SAPC   H5R 5456   2.691   3.353   2.058  0.6902  2.9683  0.6333
   66SAPC   C26 5457   2.726   3.229   2.214  0.1276 -0.2626 -0.5560
   66SAPC   H6R 5458   2.759   3.149   2.146  0.6142 -0.3644 -0.2038
   66SAPC   C27 5459   2.730   3.191   2.363 -0.3683  1.0947  0.4415
   66SAPC   H7R 5460   2.663   3.254   2.426 -0.7687  1.4698 -0.3548
   66SAPC   H7S 5461   2.832   3.211   2.402  0.2603  0.6592 -0.9174
   66SAPC   C28 5462   2.697   3.045   2.387  0.2514  0.9966  0.0809
   66SAPC   H8R 5463   2.760   2.971   2.336 -1.6760 -0.7959  0.1501
   66SAPC   C29 5464   2.589   2.986   2.450 -0.2592 -0.3924  0.0126
   66SAPC   H9R 5465   2.582   2.876   2.446 -0.3749 -0.5187  2.1889
   66SAPC  C210 5466   2.468   3.057   2.508 -0.0845 -0.1659 -0.0481
   66SAPC  H10R 5467   2.420   3.089   2.412  2.6692 -2.3396 -2.3417
   66SAPC  H10S 5468   2.489   3.155   2.557 -1.8307  0.1063  0.2358
   66SAPC  C211 5469   2.376   2.983   2.605 -0.2893  0.4433  0.6931
   66SAPC  H11R 5470   2.293   2.929   2.557 -0.1220  0.1954  0.6837
   66SAPC  C212 5471   2.381   2.974   2.744 -0.3998 -0.0167  0.4447
   66SAPC  H12R 5472   2.314   2.906   2.798 -0.2394  0.7381  1.6607
   66SAPC  C213 5473   2.494   3.026   2.839 -0.1340  0.1350  0.0232
   66SAPC  H13R 5474   2.558   3.090   2.776  0.0815 -2.2125 -2.2817
   66SAPC  H13S 5475   2.558   2.944   2.879 -1.0354 -0.0149  1.2424
   66SAPC  C214 5476   2.441   3.097   2.963 -0.2854 -0.3880 -0.2166
   66SAPC  H14R 5477   2.355   3.058   3.019  0.1145  0.3154  0.9176
   66SAPC  C215 5478   2.469   3.219   3.013 -0.3931  0.4738  0.1589
   66SAPC  H15R 5479   2.416   3.260   3.100  0.2787  1.9959 -0.1049
   66SAPC  C216 5480   2.581   3.316   2.971 -0.4810  0.3820 -0.5321
   66SAPC  H16R 5481   2.646   3.277   2.890 -0.9552  1.3392 -1.3909
   66SAPC  H16S 5482   2.649   3.322   3.059 -1.2273  0.7866  0.0286
   66SAPC  C217 5483   2.544   3.463   2.945 -0.3426 -0.4749 -0.5486
   66SAPC  H17R 5484   2.641   3.517   2.945  0.4029 -1.7731 -0.7201
   66SAPC  H17S 5485   2.502   3.505   3.039  0.4687 -1.2193  0.1773
   66SAPC  C218 5486   2.466   3.499   2.818  0.3158 -0.1763  0.2655
   66SAPC  H18R 5487   2.450   3.609   2.810 -1.3808 -0.4911 -1.2523
   66SAPC  H18S 5488   2.366   3.452   2.814  0.4207 -0.8401  3.2238
   66SAPC  C219 5489   2.536   3.462   2.691  0.2003 -0.7556 -0.0526
   66SAPC  H19R 5490   2.471   3.469   2.601  1.1853 -1.1577 -0.8161
   66SAPC  H19S 5491   2.554   3.352   2.691  0.6006 -0.7167  1.6827
   66SAPC  C220 5492   2.664   3.540   2.668 -0.5742  0.0022  0.2016
   66SAPC  H20R 5493   2.744   3.497   2.732 -0.7241 -1.7573 -0.7604
   66SAPC  H20S 5494   2.645   3.648   2.686 -2.7862 -0.4247  0.7980
   66SAPC  H20T 5495   2.692   3.532   2.561 -2.5034  0.1583 -0.3396
   66SAPC   C33 5496   2.755   4.004   2.713 -0.3576  0.8941 -0.0851
   66SAPC   H3X 5497   2.667   4.002   2.781 -1.5035  1.8057 -1.5014
   66SAPC   H3Y 5498   2.820   4.093   2.727 -0.5495  1.4117 -2.2154
   66SAPC   C34 5499   2.854   3.886   2.745 -0.0939 -0.2557 -0.0384
   66SAPC   H4X 5500   2.958   3.924   2.738 -0.4562  0.5838 -1.1378
   66SAPC   H4Y 5501   2.828   3.800   2.680 -0.2392 -0.3996  0.2049
   66SAPC   C35 5502   2.844   3.835   2.892 -0.3520 -0.5459 -0.5231
   66SAPC   H5X 5503   2.742   3.796   2.909  0.5979 -2.9694 -0.0419
   66SAPC   H5Y 5504   2.874   3.921   2.957  0.8896 -0.0744 -1.6607
   66SAPC   C36 5505   2.931   3.717   2.929 -0.1190 -0.1015 -0.7195
   66SAPC   H6X 5506   3.037   3.740   2.905 -0.1366 -0.0285 -0.7299
   66SAPC   H6Y 5507   2.902   3.636   2.859 -1.5388 -1.6049  1.5001
   66SAPC   C37 5508   2.900   3.686   3.077 -0.3008  0.0503 -0.1722
   66SAPC   H7X 5509   2.932   3.579   3.085 -0.2761  0.2190  2.6948
   66SAPC   H7Y 5510   2.790   3.686   3.088 -0.2859 -1.7979  0.3056
   66SAPC   C38 5511   2.983   3.769   3.171  0.3458 -0.5166 -1.0717
   66SAPC   H8X 5512   2.954   3.873   3.143 -0.7394 -0.5956 -0.2959
   66SAPC   H8Y 5513   3.093   3.761   3.152  1.1383  2.2331  1.4461
   66SAPC   C39 5514   2.954   3.744   3.322 -0.6048 -0.1099  0.6889
   66SAPC   H9X 5515   2.845   3.750   3.343 -0.8979 -2.9809  0.3059
   66SAPC   H9Y 5516   3.003   3.816   3.391  0.6475 -1.3962  1.2032
   66SAPC  C310 5517   3.018   3.606   3.365  1.2239  0.1255  0.9427
   66SAPC  H10X 5518   3.121   3.602   3.322  0.7830  0.7979 -0.2122
   66SAPC  H10Y 5519   2.983   3.523   3.300  1.7596  0.3568  0.3458
   66SAPC  C311 5520   3.003   3.567   3.510 -0.1277  0.1320 -0.8699
   66SAPC  H11X 5521   2.902   3.604   3.537 -0.4317  1.9720 -4.0032
   66SAPC  H11Y 5522   3.075   3.627   3.570 -0.9401  0.4848 -0.2250
   66SAPC  C312 5523   3.023   3.422   3.543 -0.0225  0.2066  0.7292
   66SAPC  H12X 5524   3.082   3.371   3.464  0.4342  0.8233  0.6664
   66SAPC  H12Y 5525   2.925   3.371   3.550  0.8828 -1.9944 -1.1618
   66SAPC  C313 5526   3.086   3.399   3.681  0.2506 -0.6264  0.5671
   66SAPC  H13X 5527   3.174   3.467   3.688  0.2950 -0.4607 -1.1591
   66SAPC  H13Y 5528   3.135   3.300   3.690  1.4049 -0.0814  0.5173
   66SAPC  C314 5529   2.994   3.439   3.791 -0.2184  0.4166  0.1388
   66SAPC  H14X 5530   2.935   3.528   3.758 -1.1244  0.2570  1.2642
   66SAPC  H14Y 5531   3.065   3.454   3.875  1.8611 -0.0002 -1.4734
   66SAPC  C315 5532   2.898   3.321   3.829 -0.4112  0.7524  0.1943
   66SAPC  H15X 5533   2.854   3.297   3.731 -2.0728 -0.0632  1.1116
   66SAPC  H15Y 5534   2.814   3.359   3.891 -2.5950 -0.2981 -1.9973
   66SAPC  C316 5535   2.955   3.201   3.909 -0.4052  0.1213 -0.0604
   66SAPC  H16X 5536   3.063   3.194   3.883 -0.5631 -2.6900 -0.2379
   66SAPC  H16Y 5537   2.913   3.102   3.882  0.7943 -0.8306  1.3744
   66SAPC  C317 5538   2.937   3.222   4.061  0.2034  1.0423 -0.3861
   66SAPC  H17X 5539   2.828   3.211   4.076  0.2391  1.3834  0.1928
   66SAPC  H17Y 5540   2.978   3.322   4.088  1.0203  0.4616  0.6208
   66SAPC  C318 5541   3.008   3.108   4.137 -0.1446 -0.6560  0.2874
   66SAPC  H18X 5542   2.961   3.009   4.120  0.8319 -0.6194 -3.7054
   66SAPC  H18Y 5543   3.016   3.128   4.246  0.9751 -1.5921  0.4001
   66SAPC  H18Z 5544   3.107   3.098   4.087  0.1921 -0.6601  0.9518
   67SAPC     N 5545   1.145   4.025   2.192  0.4371 -0.2517  0.2284
   67SAPC   C12 5546   1.171   4.073   2.339 -0.2491 -0.7340  0.9143
   67SAPC  H12A 5547   1.255   4.141   2.351  0.5151 -1.5832  0.4368
   67SAPC  H12B 5548   1.196   3.989   2.402 -0.8067 -1.1024  0.6531
   67SAPC   C13 5549   1.268   3.973   2.140  0.2636  0.0949  0.1234
   67SAPC  H13A 5550   1.259   3.925   2.043 -0.3915  1.0135 -0.2814
   67SAPC  H13B 5551   1.335   4.058   2.131 -1.4468  1.3605 -1.4059
   67SAPC  H13C 5552   1.324   3.905   2.202  0.7090 -0.2897 -0.6867
   67SAPC   C14 5553   1.034   3.924   2.182  0.3914 -0.6352  0.3364
   67SAPC  H14A 5554   1.070   3.840   2.239 -0.8773 -0.4555  1.4472
   67SAPC  H14B 5555   0.946   3.961   2.232  0.8277  1.0532 -0.0702
   67SAPC  H14C 5556   1.017   3.891   2.081 -0.3313  1.4198 -0.2781
   67SAPC   C15 5557   1.111   4.148   2.109  0.2907 -0.8541  0.3022
   67SAPC  H15A 5558   1.196   4.211   2.088  1.0726 -1.9579  0.0863
   67SAPC  H15B 5559   1.061   4.129   2.015  0.3857  3.4440 -0.8427
   67SAPC  H15C 5560   1.038   4.215   2.154 -0.9703 -2.0083  0.0592
   67SAPC   C11 5561   1.053   4.144   2.407  0.3707  0.2541  0.6339
   67SAPC  H11A 5562   1.033   4.241   2.357 -0.4810  0.6655  1.7342
   67SAPC  H11B 5563   1.088   4.158   2.512 -0.6078  0.6197  0.9159
   67SAPC     P 5564   0.793   4.108   2.406  0.1041 -0.5676 -0.0797
   67SAPC   O13 5565   0.764   4.197   2.293 -0.6758 -0.0977 -0.0217
   67SAPC   O14 5566   0.702   3.992   2.435 -0.0320 -0.3787  0.4048
   67SAPC   O12 5567   0.940   4.060   2.403  0.2455 -0.2767  0.6805
   67SAPC   O11 5568   0.802   4.205   2.529 -0.1617  0.4674  0.2888
   67SAPC    C1 5569   0.826   4.147   2.659  0.0624 -0.3942 -0.2488
   67SAPC    HA 5570   0.896   4.060   2.654  0.3758 -0.4523  2.9597
   67SAPC    HB 5571   0.899   4.204   2.721  1.8200 -0.7288 -1.8961
   67SAPC    C2 5572   0.697   4.129   2.748  0.1335 -0.3682  0.6122
   67SAPC    HS 5573   0.631   4.052   2.702  1.9208 -0.3329 -2.2996
   67SAPC   O21 5574   0.648   4.264   2.769  0.1108  0.2988  0.5325
   67SAPC   C21 5575   0.554   4.296   2.680 -0.0632  0.2031 -0.3040
   67SAPC   O22 5576   0.491   4.222   2.610  0.6253  0.0580  0.7518
   67SAPC   C22 5577   0.541   4.450   2.687 -0.4984  0.9279 -0.0508
   67SAPC   H2R 5578   0.633   4.494   2.643 -0.2550  0.4249 -0.0435
   67SAPC   H2S 5579   0.463   4.483   2.614  2.6964  1.8674 -3.3747
   67SAPC    C3 5580   0.723   4.066   2.891 -0.4383 -0.5227 -0.6888
   67SAPC    HX 5581   0.624   4.050   2.939 -0.2048  3.5451  1.5900
   67SAPC    HY 5582   0.767   4.150   2.949 -3.3311  0.2444  0.5766
   67SAPC   O31 5583   0.812   3.949   2.882  0.3027 -0.4333 -0.2358
   67SAPC   C31 5584   0.752   3.833   2.886  0.0835  0.8147 -0.4535
   67SAPC   O32 5585   0.632   3.804   2.869 -0.1323 -0.3180  0.0963
   67SAPC   C32 5586   0.861   3.719   2.917  0.0653 -0.2025  0.3879
   67SAPC   H2X 5587   0.939   3.765   2.981 -0.1251 -0.0774  0.5301
   67SAPC   H2Y 5588   0.912   3.689   2.823 -0.7055 -2.6346  0.6605
   67SAPC   C23 5589   0.525   4.505   2.834  0.4870  0.1453  0.3261
   67SAPC   H3R 5590   0.514   4.613   2.812  0.4023 -0.1132 -1.0342
   67SAPC   H3S 5591   0.620   4.492   2.890  0.1418  0.6561  1.0355
   67SAPC   C24 5592   0.401   4.445   2.914 -0.2986 -0.2566  0.2068
   67SAPC   H4R 5593   0.436   4.353   2.964 -1.7375 -0.6582  0.5416
   67SAPC   H4S 5594   0.318   4.403   2.853 -0.6927  0.0141  0.5480
   67SAPC   C25 5595   0.350   4.548   3.010  0.3489  0.5669  0.3475
   67SAPC   H5R 5596   0.255   4.592   2.977 -0.1817 -0.2536  0.7176
   67SAPC   C26 5597   0.402   4.578   3.130  0.5114  0.5317  0.1606
   67SAPC   H6R 5598   0.372   4.667   3.187 -0.8028  1.6324 -2.0889
   67SAPC   C27 5599   0.532   4.513   3.185  0.3452 -0.3096 -0.3778
   67SAPC   H7R 5600   0.608   4.508   3.105  1.9765 -0.5027  1.1230
   67SAPC   H7S 5601   0.498   4.410   3.206 -0.8309 -0.0360 -0.8700
   67SAPC   C28 5602   0.580   4.583   3.310  0.0245  0.3196  0.4333
   67SAPC   H8R 5603   0.619   4.684   3.296 -1.7511  0.8530 -1.0406
   67SAPC   C29 5604   0.558   4.536   3.430  0.4439  0.0387 -0.2948
   67SAPC   H9R 5605   0.605   4.586   3.515  2.3065 -1.3297 -0.4437
   67SAPC  C210 5606   0.475   4.416   3.472 -0.1725  0.4794  0.1242
   67SAPC  H10R 5607   0.509   4.382   3.572 -2.2355 -3.1906 -0.2138
   67SAPC  H10S 5608   0.492   4.326   3.408 -0.1378  1.4460 -1.2837
   67SAPC  C211 5609   0.325   4.448   3.480  0.2263 -0.0082 -0.1744
   67SAPC  H11R 5610   0.278   4.443   3.381 -2.6273  1.1989  1.0033
   67SAPC  C212 5611   0.262   4.474   3.592 -0.6530 -0.0975 -0.0452
   67SAPC  H12R 5612   0.154   4.494   3.585 -0.5955 -0.1584 -1.1635
   67SAPC  C213 5613   0.318   4.476   3.731 -1.3243 -0.1506  0.3831
   67SAPC  H13R 5614   0.270   4.558   3.789  0.9513  0.5771  1.3388
   67SAPC  H13S 5615   0.424   4.509   3.730 -1.8592  1.7831  1.3827
   67SAPC  C214 5616   0.302   4.336   3.795  0.1853  0.7220  0.4193
   67SAPC  H14R 5617   0.320   4.253   3.725  2.3308 -0.4661  2.2835
   67SAPC  C215 5618   0.250   4.309   3.915 -0.1346  0.3196 -0.4838
   67SAPC  H15R 5619   0.245   4.205   3.949 -0.7450  0.1246 -1.1536
   67SAPC  C216 5620   0.209   4.417   4.017 -0.1914 -0.4538 -0.4789
   67SAPC  H16R 5621   0.120   4.467   3.973 -0.2976 -0.0567  0.1670
   67SAPC  H16S 5622   0.293   4.489   4.010  1.4940 -2.4476 -1.8270
   67SAPC  C217 5623   0.194   4.367   4.155 -0.0073  0.1426  0.0640
   67SAPC  H17R 5624   0.099   4.310   4.163 -0.6642  1.1936  0.0130
   67SAPC  H17S 5625   0.161   4.455   4.214 -1.2014  0.1940 -0.6446
   67SAPC  C218 5626   0.312   4.290   4.218  0.1041 -0.1261  0.1472
   67SAPC  H18R 5627   0.396   4.316   4.151 -2.0318  2.3964 -1.7333
   67SAPC  H18S 5628   0.292   4.181   4.215 -0.9217  0.0508  0.2961
   67SAPC  C219 5629   0.345   4.333   4.359  0.3479 -0.3543 -0.3438
   67SAPC  H19R 5630   0.286   4.278   4.435  1.5526  0.0401  0.9077
   67SAPC  H19S 5631   0.338   4.442   4.378  1.8392 -0.6697  2.4237
   67SAPC  C220 5632   0.493   4.318   4.399  0.7461 -0.4632 -0.2133
   67SAPC  H20R 5633   0.563   4.392   4.356  0.3993 -0.0454 -0.0628
   67SAPC  H20S 5634   0.522   4.214   4.371 -0.5071 -0.8381 -0.1635
   67SAPC  H20T 5635   0.494   4.328   4.510  0.8872 -3.8532  0.1923
   67SAPC   C33 5636   0.801   3.590   2.981  0.4492  0.1668  0.1459
   67SAPC   H3X 5637   0.867   3.501   2.969 -1.7986 -1.2378 -3.1344
   67SAPC   H3Y 5638   0.706   3.556   2.935  1.0001 -1.4021  0.1201
   67SAPC   C34 5639   0.778   3.592   3.137 -0.1731  0.3608 -0.9171
   67SAPC   H4X 5640   0.715   3.504   3.163  0.2651  1.1039  3.5332
   67SAPC   H4Y 5641   0.694   3.663   3.154 -2.0502 -2.2024  1.3395
   67SAPC   C35 5642   0.910   3.599   3.218  0.1063  0.0359 -0.4735
   67SAPC   H5X 5643   0.958   3.699   3.208  1.5143 -0.1015  3.2283
   67SAPC   H5Y 5644   0.986   3.533   3.172  0.4633  0.7241 -0.8740
   67SAPC   C36 5645   0.898   3.566   3.370  0.5972 -0.2950  0.0329
   67SAPC   H6X 5646   1.000   3.581   3.411  0.4792 -2.9023  1.4946
   67SAPC   H6Y 5647   0.870   3.460   3.386  1.2042 -0.8055 -2.0616
   67SAPC   C37 5648   0.794   3.640   3.453  0.1557 -0.9113 -0.0921
   67SAPC   H7X 5649   0.704   3.651   3.390 -0.1845 -0.4707  0.4612
   67SAPC   H7Y 5650   0.823   3.742   3.487 -2.7810  0.2863 -0.9166
   67SAPC   C38 5651   0.747   3.562   3.576  0.2473  0.6356 -0.4231
   67SAPC   H8X 5652   0.709   3.467   3.534 -1.1811  1.4940 -1.1485
   67SAPC   H8Y 5653   0.663   3.612   3.628 -1.4045 -2.1074 -0.2907
   67SAPC   C39 5654   0.856   3.529   3.676  0.2065 -0.2550  0.6579
   67SAPC   H9X 5655   0.899   3.629   3.700 -0.2112  0.3996 -1.2076
   67SAPC   H9Y 5656   0.938   3.467   3.634 -0.2578 -0.6973  0.4044
   67SAPC  C310 5657   0.805   3.453   3.799 -0.7627  0.0460 -0.0651
   67SAPC  H10X 5658   0.893   3.407   3.850 -2.0109 -0.9119  1.3444
   67SAPC  H10Y 5659   0.740   3.368   3.770 -2.1673 -0.0914  3.0933
   67SAPC  C311 5660   0.724   3.539   3.895 -0.1719  0.6000  0.5387
   67SAPC  H11X 5661   0.624   3.567   3.856 -0.3690 -1.0928 -0.2384
   67SAPC  H11Y 5662   0.773   3.639   3.903  1.0252 -0.0828  2.6035
   67SAPC  C312 5663   0.711   3.478   4.034 -0.5587 -0.9077 -0.1375
   67SAPC  H12X 5664   0.812   3.472   4.079  0.5165  1.9780 -1.8216
   67SAPC  H12Y 5665   0.661   3.380   4.023 -3.2704  0.3651  0.0051
   67SAPC  C313 5666   0.615   3.564   4.114  0.3568  0.0383 -0.4380
   67SAPC  H13X 5667   0.533   3.593   4.045  0.5245  0.8722 -0.2944
   67SAPC  H13Y 5668   0.670   3.655   4.145  1.3834 -1.4100  2.3299
   67SAPC  C314 5669   0.555   3.484   4.232  0.5096  0.0579  0.1511
   67SAPC  H14X 5670   0.640   3.446   4.292  1.8109 -0.9924 -2.2437
   67SAPC  H14Y 5671   0.488   3.401   4.201 -0.5362  0.4536  1.2779
   67SAPC  C315 5672   0.467   3.581   4.321 -0.6308  0.1614 -0.0821
   67SAPC  H15X 5673   0.378   3.616   4.264 -1.2187  0.4381  0.9966
   67SAPC  H15Y 5674   0.531   3.668   4.345  0.2601 -1.0063  2.0345
   67SAPC  C316 5675   0.403   3.518   4.447 -0.0845 -0.1163  0.1033
   67SAPC  H16X 5676   0.473   3.445   4.493 -0.2913 -0.5755 -0.2947
   67SAPC  H16Y 5677   0.323   3.447   4.416 -0.1311 -0.8155  1.7314
   67SAPC  C317 5678   0.351   3.625   4.547  0.6403 -0.3192  0.9299
   67SAPC  H17X 5679   0.283   3.694   4.493  1.9616  1.1508  1.0452
   67SAPC  H17Y 5680   0.434   3.698   4.563 -0.8406  1.2198  1.9813
   67SAPC  C318 5681   0.285   3.579   4.671  0.1510 -0.0589 -0.1476
   67SAPC  H18X 5682   0.353   3.515   4.731 -1.2133 -0.3135  1.1811
   67SAPC  H18Y 5683   0.184   3.536   4.653 -0.9827  2.3344  0.1779
   67SAPC  H18Z 5684   0.264   3.670   4.731 -2.0415  0.5017 -1.6294
   68SAPC     N 5685   2.060   1.837   1.684  0.2689  0.2768 -0.3023
   68SAPC   C12 5686   2.134   1.961   1.714 -0.1434  1.3981 -0.8030
   68SAPC  H12A 5687   2.060   2.039   1.706 -1.4602  0.0638 -2.7283
   68SAPC  H12B 5688   2.204   1.975   1.633 -2.5969  1.3339 -3.0769
   68SAPC   C13 5689   2.137   1.713   1.692  0.6830 -0.1975  0.1873
   68SAPC  H13A 5690   2.175   1.699   1.792  3.1858  1.3106 -0.4596
   68SAPC  H13B 5691   2.073   1.633   1.657 -1.1479  2.3683 -2.8508
   68SAPC  H13C 5692   2.228   1.721   1.634  0.7654  0.5964  0.4170
   68SAPC   C14 5693   1.923   1.834   1.753  0.2223  0.2972  0.1008
   68SAPC  H14A 5694   1.933   1.865   1.856 -1.5414 -0.2951  0.4831
   68SAPC  H14B 5695   1.847   1.903   1.720 -1.3325 -0.6383  1.5116
   68SAPC  H14C 5696   1.875   1.738   1.738 -1.6719  1.5242 -2.3655
   68SAPC   C15 5697   2.023   1.850   1.534 -0.0041 -0.0147 -0.4659
   68SAPC  H15A 5698   2.104   1.887   1.472  0.0519 -0.5383 -0.7108
   68SAPC  H15B 5699   1.993   1.755   1.494 -0.2516 -0.7617  1.3735
   68SAPC  H15C 5700   1.941   1.918   1.515  0.2738  0.4588 -0.0208
   68SAPC   C11 5701   2.199   1.971   1.851 -0.1157 -0.4815  0.2143
   68SAPC  H11A 5702   2.255   2.067   1.844 -1.5449  0.2392 -2.9019
   68SAPC  H11B 5703   2.277   1.895   1.875  0.1755 -0.2868 -0.0974
   68SAPC     P 5704   2.042   2.097   2.025 -0.2678  0.4284 -0.1408
   68SAPC   O13 5705   2.113   2.215   1.989 -0.3718  0.0146  0.2302
   68SAPC   O14 5706   1.897   2.102   2.013  0.6126 -0.4150  0.8971
   68SAPC   O12 5707   2.101   1.969   1.953  0.8817 -0.2377  0.5453
   68SAPC   O11 5708   2.073   2.061   2.180  0.5136  0.7400  0.0400
   68SAPC    C1 5709   2.010   1.941   2.237 -0.2833 -0.2813 -0.0222
   68SAPC    HA 5710   1.944   1.886   2.167  0.8237 -1.4577 -0.1738
   68SAPC    HB 5711   2.083   1.864   2.271 -1.6099 -1.5994 -0.1024
   68SAPC    C2 5712   1.919   1.997   2.356 -0.6037  0.1082  0.6370
   68SAPC    HS 5713   1.850   2.075   2.316 -0.2315 -0.5128 -1.3178
   68SAPC   O21 5714   2.008   2.044   2.458 -0.0226 -0.0245  0.0728
   68SAPC   C21 5715   1.969   2.132   2.542 -0.1944  0.3861 -1.0155
   68SAPC   O22 5716   1.853   2.180   2.546  0.1114  0.1586 -0.7810
   68SAPC   C22 5717   2.085   2.174   2.635 -0.5830 -0.3556  0.2318
   68SAPC   H2R 5718   2.148   2.088   2.665 -0.3610 -0.3461 -0.1916
   68SAPC   H2S 5719   2.149   2.244   2.577  0.5584 -0.3362  1.4779
   68SAPC    C3 5720   1.835   1.877   2.412 -0.4454 -0.1592 -0.1980
   68SAPC    HX 5721   1.904   1.800   2.452 -2.3180 -1.1068  1.3861
   68SAPC    HY 5722   1.791   1.820   2.328 -1.0882 -1.4903  1.0116
   68SAPC   O31 5723   1.750   1.906   2.528  0.4089  0.4301  0.2967
   68SAPC   C31 5724   1.616   1.902   2.492  0.8223 -0.6013 -0.4220
   68SAPC   O32 5725   1.566   1.919   2.386  0.4371  0.4124  0.4144
   68SAPC   C32 5726   1.540   1.876   2.623 -0.9418 -0.2634 -0.2313
   68SAPC   H2X 5727   1.477   1.788   2.599 -0.5082 -1.0996  1.5281
   68SAPC   H2Y 5728   1.474   1.963   2.640 -1.1462 -0.9783  3.3883
   68SAPC   C23 5729   2.040   2.247   2.763 -0.2654 -0.3290 -0.5026
   68SAPC   H3R 5730   1.961   2.323   2.744  1.6808  2.2138  1.0408
   68SAPC   H3S 5731   2.128   2.298   2.808  0.1813  0.7821 -2.5181
   68SAPC   C24 5732   1.983   2.161   2.885  0.3882  0.7950 -0.9150
   68SAPC   H4R 5733   2.054   2.087   2.926 -2.9187 -2.6427 -0.8739
   68SAPC   H4S 5734   1.901   2.100   2.842  1.3673 -2.4098  1.4371
   68SAPC   C25 5735   1.916   2.247   2.996  0.0556 -0.0229 -0.2859
   68SAPC   H5R 5736   1.821   2.302   2.981  0.7195  1.8411  1.8373
   68SAPC   C26 5737   1.970   2.263   3.116  0.5831 -0.4045  0.4557
   68SAPC   H6R 5738   1.913   2.326   3.186  0.7631  0.5891 -0.2736
   68SAPC   C27 5739   2.089   2.188   3.167  0.2132  0.1265 -0.2424
   68SAPC   H7R 5740   2.181   2.201   3.106  0.5343  1.1987  0.4397
   68SAPC   H7S 5741   2.067   2.079   3.161 -2.7364  0.6209  0.3434
   68SAPC   C28 5742   2.113   2.224   3.309  0.1162 -0.2337 -0.0599
   68SAPC   H8R 5743   2.170   2.318   3.314  1.4041 -0.9905 -0.2154
   68SAPC   C29 5744   2.096   2.150   3.422  0.0399  0.1707  0.2836
   68SAPC   H9R 5745   2.112   2.198   3.519  1.0516 -0.3853  0.4093
   68SAPC  C210 5746   2.022   2.017   3.434  0.4656  0.3168 -0.6136
   68SAPC  H10R 5747   2.055   1.960   3.524  0.3319  2.1600  0.6732
   68SAPC  H10S 5748   2.050   1.962   3.342 -0.2840  2.6179 -2.3010
   68SAPC  C211 5749   1.872   2.019   3.426  0.8859 -0.0206 -0.0654
   68SAPC  H11R 5750   1.833   1.994   3.326 -0.3837 -0.6595  0.5731
   68SAPC  C212 5751   1.791   2.084   3.512  0.0699  0.1764 -0.7490
   68SAPC  H12R 5752   1.683   2.101   3.499  0.3410  2.7832 -0.0600
   68SAPC  C213 5753   1.832   2.148   3.640 -0.0525 -0.4452 -0.2618
   68SAPC  H13R 5754   1.802   2.254   3.630 -0.4416 -0.6914 -1.9690
   68SAPC  H13S 5755   1.942   2.159   3.649 -0.0713 -0.5223  0.0879
   68SAPC  C214 5756   1.763   2.086   3.761  0.0952 -0.0021 -0.2360
   68SAPC  H14R 5757   1.657   2.063   3.741  0.1603 -0.9226  0.4382
   68SAPC  C215 5758   1.815   2.079   3.885 -0.5789  0.0510 -0.4976
   68SAPC  H15R 5759   1.749   2.046   3.967  0.1364 -1.8853 -0.6516
   68SAPC  C216 5760   1.949   2.138   3.932 -0.8210  0.1875  0.7536
   68SAPC  H16R 5761   1.931   2.242   3.966  1.0419  2.2106 -3.7000
   68SAPC  H16S 5762   2.020   2.140   3.847 -1.0421 -0.8800  0.5345
   68SAPC  C217 5763   2.016   2.053   4.041  0.4120  0.2097 -0.7644
   68SAPC  H17R 5764   2.017   1.950   3.999 -0.8998  0.0688 -0.4955
   68SAPC  H17S 5765   1.944   2.037   4.124 -0.8657 -0.4482 -1.9570
   68SAPC  C218 5766   2.153   2.116   4.080 -0.2398  0.5362 -0.4735
   68SAPC  H18R 5767   2.213   2.124   3.987 -0.7916 -0.9817 -0.9929
   68SAPC  H18S 5768   2.214   2.054   4.151 -1.5507 -0.3179 -0.0450
   68SAPC  C219 5769   2.147   2.252   4.147  0.2521  0.2683 -0.3654
   68SAPC  H19R 5770   2.090   2.244   4.242 -1.1391 -2.5777 -1.3505
   68SAPC  H19S 5771   2.083   2.311   4.077  0.3456 -1.1369 -1.6799
   68SAPC  C220 5772   2.273   2.331   4.182 -0.2781  0.0098 -0.0907
   68SAPC  H20R 5773   2.242   2.434   4.212 -1.2598 -0.3843  0.2621
   68SAPC  H20S 5774   2.327   2.336   4.085 -1.2327  0.7642 -0.5969
   68SAPC  H20T 5775   2.326   2.277   4.263 -2.6760 -2.4152 -0.0132
   68SAPC   C33 5776   1.626   1.853   2.755  0.2706 -0.4169 -0.1033
   68SAPC   H3X 5777   1.703   1.931   2.773 -1.1432  0.5362  2.2342
   68SAPC   H3Y 5778   1.673   1.754   2.769 -0.5424 -0.7580  0.2125
   68SAPC   C34 5779   1.533   1.866   2.881 -0.0322  0.3174 -0.3437
   68SAPC   H4X 5780   1.484   1.966   2.879  0.4278  0.5494 -1.7913
   68SAPC   H4Y 5781   1.595   1.868   2.973 -1.3575 -0.5470  0.5975
   68SAPC   C35 5782   1.427   1.752   2.897  0.0030 -0.1468 -0.1996
   68SAPC   H5X 5783   1.489   1.663   2.917 -0.4404 -0.2512  0.7463
   68SAPC   H5Y 5784   1.366   1.742   2.804 -1.6779  0.9474  0.7437
   68SAPC   C36 5785   1.343   1.769   3.020  0.3707 -0.0265 -0.6203
   68SAPC   H6X 5786   1.265   1.690   3.019  1.1791 -0.8617  0.2468
   68SAPC   H6Y 5787   1.290   1.866   3.013 -2.2130 -1.2954  0.2533
   68SAPC   C37 5788   1.420   1.752   3.149 -0.1197  0.2417 -0.0283
   68SAPC   H7X 5789   1.506   1.823   3.144  0.5386 -0.5645 -0.4143
   68SAPC   H7Y 5790   1.451   1.646   3.154  0.4638  0.4616  1.8015
   68SAPC   C38 5791   1.331   1.781   3.267  0.0342  0.3029  0.4929
   68SAPC   H8X 5792   1.260   1.697   3.281  0.4975  0.3242  3.4522
   68SAPC   H8Y 5793   1.270   1.874   3.260 -1.7201 -0.8112  0.4423
   68SAPC   C39 5794   1.411   1.790   3.400  0.5709 -0.6217 -0.3857
   68SAPC   H9X 5795   1.491   1.865   3.383 -0.1812  0.3258  0.1608
   68SAPC   H9Y 5796   1.470   1.697   3.411 -0.0829 -0.8868  1.0934
   68SAPC  C310 5797   1.328   1.830   3.525 -0.3210 -0.8205 -0.9690
   68SAPC  H10X 5798   1.251   1.752   3.544  0.4906 -1.5397 -0.5668
   68SAPC  H10Y 5799   1.277   1.927   3.503  0.0526 -0.4461 -0.2289
   68SAPC  C311 5800   1.426   1.844   3.641 -0.1144 -0.1338  0.7786
   68SAPC  H11X 5801   1.495   1.926   3.609 -1.1268  0.2504 -0.5311
   68SAPC  H11Y 5802   1.489   1.753   3.652  0.8605  0.3385 -0.5726
   68SAPC  C312 5803   1.356   1.874   3.780  0.1926 -1.0790 -0.0422
   68SAPC  H12X 5804   1.280   1.799   3.812 -2.6505  0.6805 -2.1277
   68SAPC  H12Y 5805   1.286   1.957   3.758  1.0603 -0.6379 -1.2779
   68SAPC  C313 5806   1.461   1.896   3.884  0.3919 -0.1433 -0.1234
   68SAPC  H13X 5807   1.508   1.990   3.850  0.0158  0.2638  0.4599
   68SAPC  H13Y 5808   1.538   1.816   3.878  0.7099  0.1937 -0.6622
   68SAPC  C314 5809   1.411   1.932   4.027  0.3420  0.3776 -0.0963
   68SAPC  H14X 5810   1.371   1.837   4.070  4.2898 -1.2753  0.3134
   68SAPC  H14Y 5811   1.326   2.004   4.024 -0.4147 -0.4353  0.9148
   68SAPC  C315 5812   1.526   1.969   4.118  0.1985 -0.1958  0.9179
   68SAPC  H15X 5813   1.563   2.073   4.101  0.2818  0.0124  2.2723
   68SAPC  H15Y 5814   1.611   1.899   4.106  0.4447  0.0160  1.4111
   68SAPC  C316 5815   1.490   1.956   4.275 -0.8291 -0.3700  0.5621
   68SAPC  H16X 5816   1.473   1.847   4.289  3.1345 -1.0058  1.6123
   68SAPC  H16Y 5817   1.394   2.011   4.292 -2.0215 -2.5507  1.2693
   68SAPC  C317 5818   1.596   1.999   4.372  0.3769 -0.7178 -0.7315
   68SAPC  H17X 5819   1.611   2.104   4.342 -0.7420 -0.7149 -1.3142
   68SAPC  H17Y 5820   1.692   1.945   4.352  1.0246  0.4414 -0.8619
   68SAPC  C318 5821   1.543   1.995   4.520 -0.5244 -0.3377  0.4985
   68SAPC  H18X 5822   1.617   2.048   4.583  0.4726  1.1852 -1.8265
   68SAPC  H18Y 5823   1.529   1.891   4.558  0.1561 -0.2219  1.0747
   68SAPC  H18Z 5824   1.443   2.043   4.532 -0.2761  0.2594  0.2063
   69SAPC     N 5825   0.896   0.868   1.591  0.4442  0.2394  0.6334
   69SAPC   C12 5826   0.817   0.804   1.706  1.1188  0.4577 -0.6539
   69SAPC  H12A 5827   0.801   0.699   1.684  1.1307  0.3351 -0.0977
   69SAPC  H12B 5828   0.719   0.850   1.711  1.1058  0.6158 -1.8905
   69SAPC   C13 5829   0.923   1.006   1.617  0.5213 -0.2838 -0.1792
   69SAPC  H13A 5830   0.995   1.056   1.555  0.1611  0.7019  0.1848
   69SAPC  H13B 5831   0.823   1.046   1.625 -0.1449 -2.0597  1.1679
   69SAPC  H13C 5832   0.950   1.013   1.721  0.7999 -1.3349 -0.1665
   69SAPC   C14 5833   1.017   0.792   1.558 -0.1378 -0.1669  0.4433
   69SAPC  H14A 5834   1.078   0.782   1.647  0.2333  1.9384  0.4677
   69SAPC  H14B 5835   1.005   0.692   1.519  1.0316 -0.1455  0.0086
   69SAPC  H14C 5836   1.076   0.850   1.489  0.5551  0.0359  1.1992
   69SAPC   C15 5837   0.794   0.854   1.474 -0.2492  0.3322 -0.3580
   69SAPC  H15A 5838   0.830   0.882   1.376  2.0329 -0.0385  0.3284
   69SAPC  H15B 5839   0.764   0.751   1.476  0.2622  0.1762 -0.7466
   69SAPC  H15C 5840   0.709   0.920   1.486  0.5069  1.2408  0.0988
   69SAPC   C11 5841   0.874   0.802   1.855 -0.7079 -0.6017 -0.0340
   69SAPC  H11A 5842   0.803   0.738   1.912 -0.2573 -0.5267  0.6234
   69SAPC  H11B 5843   0.873   0.903   1.901 -2.8965 -0.4056 -0.4073
   69SAPC     P 5844   1.033   0.599   1.905 -0.0780 -0.1943 -0.3240
   69SAPC   O13 5845   0.935   0.508   1.847 -0.0047  0.0790  0.0494
   69SAPC   O14 5846   1.180   0.570   1.887 -0.3411  0.4205  0.3212
   69SAPC   O12 5847   1.011   0.753   1.859 -0.1828 -0.6817  0.1810
   69SAPC   O11 5848   0.998   0.612   2.053 -0.4441  0.2581 -0.9966
   69SAPC    C1 5849   1.048   0.724   2.140 -0.2677  0.0932  0.6103
   69SAPC    HA 5850   1.056   0.820   2.086 -0.6585  0.3120  0.9282
   69SAPC    HB 5851   0.985   0.733   2.231  1.4876  1.1163  1.7739
   69SAPC    C2 5852   1.192   0.680   2.193  0.1415 -0.0636  0.0326
   69SAPC    HS 5853   1.249   0.629   2.113 -0.3005 -0.7159  0.1285
   69SAPC   O21 5854   1.158   0.591   2.298 -1.2783 -0.4761 -0.6858
   69SAPC   C21 5855   1.256   0.516   2.345  0.3957 -1.0507  0.1214
   69SAPC   O22 5856   1.371   0.515   2.298 -0.2977 -0.3532  0.2318
   69SAPC   C22 5857   1.206   0.423   2.455 -0.0015 -0.2851 -0.0150
   69SAPC   H2R 5858   1.105   0.461   2.482 -0.3717 -0.7164 -0.7836
   69SAPC   H2S 5859   1.198   0.323   2.408 -0.3654 -1.0542  1.6197
   69SAPC    C3 5860   1.285   0.798   2.239  0.1842  0.3665  1.0105
   69SAPC    HX 5861   1.327   0.836   2.143  0.5297 -1.6580  0.3268
   69SAPC    HY 5862   1.369   0.761   2.301  0.2782 -1.3091 -0.0706
   69SAPC   O31 5863   1.223   0.913   2.309  0.0976  0.1201 -0.3343
   69SAPC   C31 5864   1.197   0.888   2.443 -0.0747  0.5583  0.1879
   69SAPC   O32 5865   1.227   0.786   2.499 -0.4562  0.3219 -0.5229
   69SAPC   C32 5866   1.111   1.002   2.491  0.7253  0.0841 -0.9667
   69SAPC   H2X 5867   1.012   0.989   2.444  0.7036 -0.6518 -0.7314
   69SAPC   H2Y 5868   1.155   1.097   2.454 -0.2940  1.5229  1.2923
   69SAPC   C23 5869   1.309   0.419   2.570  0.2214 -0.0369 -0.5972
   69SAPC   H3R 5870   1.289   0.505   2.637 -2.5234 -0.7323 -0.3839
   69SAPC   H3S 5871   1.413   0.427   2.534  0.3611  2.4199  0.2194
   69SAPC   C24 5872   1.313   0.283   2.649 -0.2853 -0.6840 -0.0595
   69SAPC   H4R 5873   1.390   0.306   2.726  0.2088  0.6236 -0.9242
   69SAPC   H4S 5874   1.354   0.206   2.580  0.7928  0.0452 -0.2590
   69SAPC   C25 5875   1.167   0.260   2.685 -0.6177  0.0061  0.5308
   69SAPC   H5R 5876   1.113   0.202   2.608  1.9958  0.2738 -1.6679
   69SAPC   C26 5877   1.112   0.298   2.803  0.0987  0.3425  0.6330
   69SAPC   H6R 5878   1.005   0.280   2.819 -0.9470  3.2511 -2.1539
   69SAPC   C27 5879   1.184   0.387   2.901 -0.1940  0.2080 -0.0228
   69SAPC   H7R 5880   1.115   0.467   2.936 -1.4554 -0.9192  0.1719
   69SAPC   H7S 5881   1.275   0.437   2.861  1.8349 -0.8402  2.9549
   69SAPC   C28 5882   1.238   0.292   3.001  0.1819  0.4536 -0.2476
   69SAPC   H8R 5883   1.271   0.195   2.961 -0.5284 -0.3967  1.1553
   69SAPC   C29 5884   1.276   0.310   3.127 -0.6365  1.0870 -0.5921
   69SAPC   H9R 5885   1.315   0.228   3.189 -2.0662 -0.0202 -1.0923
   69SAPC  C210 5886   1.272   0.439   3.212  0.6749  1.0620  0.1749
   69SAPC  H10R 5887   1.186   0.433   3.283  0.1233  2.5938 -0.3171
   69SAPC  H10S 5888   1.254   0.520   3.138 -0.3973 -0.4784 -1.3081
   69SAPC  C211 5889   1.391   0.462   3.287 -0.2314 -0.4543  0.1104
   69SAPC  H11R 5890   1.473   0.496   3.222 -0.3535  0.2034  0.2939
   69SAPC  C212 5891   1.420   0.452   3.419 -0.2221  0.2274  0.7252
   69SAPC  H12R 5892   1.521   0.483   3.449  0.3861 -0.8404 -0.1402
   69SAPC  C213 5893   1.324   0.431   3.535 -0.4464 -0.0943  0.0003
   69SAPC  H13R 5894   1.222   0.411   3.496 -1.2318  3.6079 -0.1803
   69SAPC  H13S 5895   1.308   0.522   3.596 -3.7045  0.5478 -1.5760
   69SAPC  C214 5896   1.361   0.310   3.615 -0.1248  0.6066  0.1956
   69SAPC  H14R 5897   1.450   0.261   3.572 -1.1943  0.4482 -2.0090
   69SAPC  C215 5898   1.282   0.261   3.715 -0.5510  0.6650 -0.1084
   69SAPC  H15R 5899   1.320   0.172   3.767  1.9097  1.1595 -0.9082
   69SAPC  C216 5900   1.161   0.328   3.774  0.1285 -0.3497  0.3243
   69SAPC  H16R 5901   1.071   0.301   3.715 -1.0554  3.0448  0.3682
   69SAPC  H16S 5902   1.151   0.436   3.751  0.4074 -0.6763 -1.4347
   69SAPC  C217 5903   1.160   0.307   3.923  0.2359 -0.3221 -0.3495
   69SAPC  H17R 5904   1.227   0.377   3.978 -1.0650  0.6326  0.0733
   69SAPC  H17S 5905   1.190   0.203   3.951  1.0183 -0.3511 -1.2599
   69SAPC  C218 5906   1.030   0.335   4.000 -0.4781  0.1185  0.6440
   69SAPC  H18R 5907   0.948   0.267   3.970  0.0843  0.5739 -2.2361
   69SAPC  H18S 5908   1.001   0.435   3.962  1.1811  0.2649 -0.3530
   69SAPC  C219 5909   1.048   0.332   4.149  0.0429 -0.1964  0.3323
   69SAPC  H19R 5910   1.114   0.411   4.191 -1.0906  0.5877  0.7010
   69SAPC  H19S 5911   1.089   0.236   4.187 -0.0440 -0.3089  0.1424
   69SAPC  C220 5912   0.912   0.360   4.210  0.6162  0.0986  0.5211
   69SAPC  H20R 5913   0.891   0.469   4.207  1.8048  0.3220 -0.4634
   69SAPC  H20S 5914   0.921   0.329   4.316 -1.9014 -0.1759  0.7155
   69SAPC  H20T 5915   0.829   0.299   4.169  1.5113 -2.3569  2.0981
   69SAPC   C33 5916   1.088   1.016   2.639  0.4999 -0.5738  0.2384
   69SAPC   H3X 5917   1.164   1.078   2.692  0.0598 -1.8205  2.4905
   69SAPC   H3Y 5918   1.088   0.923   2.700 -0.5544 -0.2820  0.7206
   69SAPC   C34 5919   0.949   1.082   2.665  0.2244 -0.1988 -0.2081
   69SAPC   H4X 5920   0.867   1.022   2.620 -0.0097 -1.1141  1.3497
   69SAPC   H4Y 5921   0.934   1.183   2.623  0.1573  0.2257  0.8123
   69SAPC   C35 5922   0.919   1.090   2.810  0.5879 -0.1990 -0.5550
   69SAPC   H5X 5923   0.990   1.161   2.858 -0.5837 -0.6670  2.0911
   69SAPC   H5Y 5924   0.921   0.991   2.860  0.0564  0.4112  0.7375
   69SAPC   C36 5925   0.785   1.159   2.838  0.5205  0.1979  0.1286
   69SAPC   H6X 5926   0.694   1.115   2.791  0.7138  0.8026 -0.8514
   69SAPC   H6Y 5927   0.793   1.256   2.785  0.2631 -1.2407 -2.7561
   69SAPC   C37 5928   0.747   1.180   2.982  0.0828 -0.3510  1.1723
   69SAPC   H7X 5929   0.744   1.092   3.050  0.8749 -0.5494  0.9649
   69SAPC   H7Y 5930   0.646   1.225   2.976 -0.0044 -0.5965  0.8033
   69SAPC   C38 5931   0.838   1.296   3.054  0.1672  0.3421 -0.2563
   69SAPC   H8X 5932   0.851   1.381   2.984  1.8834 -0.5893 -1.1662
   69SAPC   H8Y 5933   0.933   1.240   3.067  0.5920  0.4289 -2.4974
   69SAPC   C39 5934   0.772   1.337   3.187  0.7670  0.3647 -0.5040
   69SAPC   H9X 5935   0.759   1.247   3.249 -1.4900  1.3433  0.5469
   69SAPC   H9Y 5936   0.668   1.372   3.174  0.3508 -0.4081  0.6510
   69SAPC  C310 5937   0.850   1.446   3.267  1.1932  0.3178 -0.2416
   69SAPC  H10X 5938   0.868   1.535   3.202  0.1555  1.4378  0.9413
   69SAPC  H10Y 5939   0.950   1.401   3.282  0.7014 -0.8506 -0.3745
   69SAPC  C311 5940   0.791   1.480   3.407 -0.2168  0.4183  0.2921
   69SAPC  H11X 5941   0.811   1.391   3.470 -0.5656  0.5513  0.5910
   69SAPC  H11Y 5942   0.682   1.500   3.396 -0.2596  0.1863  0.2954
   69SAPC  C312 5943   0.854   1.603   3.482 -0.0402 -0.3550  0.0342
   69SAPC  H12X 5944   0.853   1.694   3.418  1.7621 -0.0845  0.3419
   69SAPC  H12Y 5945   0.960   1.575   3.499 -0.2137 -0.4060  1.0791
   69SAPC  C313 5946   0.775   1.641   3.611  0.1302 -0.0812  0.0619
   69SAPC  H13X 5947   0.669   1.666   3.587 -0.3245  0.8882  2.7420
   69SAPC  H13Y 5948   0.821   1.731   3.658 -1.3974  0.8859 -0.2094
   69SAPC  C314 5949   0.774   1.535   3.728  0.5358 -0.5010 -0.0971
   69SAPC  H14X 5950   0.713   1.449   3.695  0.7549 -0.5090 -0.4913
   69SAPC  H14Y 5951   0.701   1.568   3.805 -0.4055 -1.3716 -0.5965
   69SAPC  C315 5952   0.905   1.501   3.800  0.6779  0.7077  0.0274
   69SAPC  H15X 5953   0.951   1.594   3.840  2.4605 -0.0881 -0.0665
   69SAPC  H15Y 5954   0.979   1.460   3.728 -0.2787 -1.5190  0.2255
   69SAPC  C316 5955   0.891   1.390   3.916 -0.3618 -0.0548  1.0248
   69SAPC  H16X 5956   0.833   1.428   4.003  0.8402 -1.2266  2.3951
   69SAPC  H16Y 5957   0.989   1.372   3.966 -0.0110  0.8835  0.7141
   69SAPC  C317 5958   0.820   1.260   3.867 -0.1634  0.7889 -0.2375
   69SAPC  H17X 5959   0.863   1.226   3.771 -1.6104 -1.5879 -0.1136
   69SAPC  H17Y 5960   0.713   1.278   3.846 -0.3558 -2.2362 -2.4727
   69SAPC  C318 5961   0.837   1.148   3.976  0.1114 -0.3826 -0.2092
   69SAPC  H18X 5962   0.941   1.137   4.013 -0.2215  0.6519  1.1332
   69SAPC  H18Y 5963   0.806   1.050   3.933 -1.3974 -0.2932  0.5929
   69SAPC  H18Z 5964   0.776   1.176   4.065 -1.3625 -1.1371 -0.9447
   70SAPC     N 5965   4.035   4.655   1.797 -0.2099  0.6566  0.0294
   70SAPC   C12 5966   3.935   4.760   1.839  0.1619  0.4179 -0.1742
   70SAPC  H12A 5967   3.870   4.704   1.905 -0.3783 -0.0802 -1.0953
   70SAPC  H12B 5968   3.893   4.791   1.744 -0.5522  1.8513  0.5783
   70SAPC   C13 5969   4.108   4.601   1.921 -0.0311 -0.3330 -0.3481
   70SAPC  H13A 5970   4.032   4.565   1.989 -1.8126 -1.4015 -2.7477
   70SAPC  H13B 5971   4.183   4.528   1.895  0.1971  0.6856 -2.7921
   70SAPC  H13C 5972   4.161   4.678   1.974  1.0850 -1.2509 -0.0883
   70SAPC   C14 5973   3.955   4.545   1.723  0.0078  0.3020  0.7293
   70SAPC  H14A 5974   4.017   4.466   1.683 -0.8429 -0.5317  1.0295
   70SAPC  H14B 5975   3.898   4.483   1.791  0.2892  1.9725  2.5863
   70SAPC  H14C 5976   3.918   4.589   1.631  0.4059  0.2193  0.5290
   70SAPC   C15 5977   4.126   4.718   1.702 -0.4579  0.1076 -0.3068
   70SAPC  H15A 5978   4.203   4.649   1.670 -0.5701  0.5170 -1.5021
   70SAPC  H15B 5979   4.080   4.745   1.608  0.4734 -1.0941 -1.1397
   70SAPC  H15C 5980   4.174   4.798   1.756  1.4522 -1.8322  1.0274
   70SAPC   C11 5981   3.978   4.880   1.919  0.1333 -0.4537 -0.3148
   70SAPC  H11A 5982   3.883   4.938   1.927  0.2539 -0.1871 -0.7657
   70SAPC  H11B 5983   4.044   4.937   1.849 -2.0834  0.7660 -1.5351
   70SAPC     P 5984   4.107   4.955   2.134 -0.0370 -0.1611 -0.1388
   70SAPC   O13 5985   4.239   4.972   2.074 -0.3469  0.4080 -0.1467
   70SAPC   O14 5986   4.020   5.077   2.149  0.2326 -0.3845  0.0954
   70SAPC   O12 5987   4.023   4.845   2.048  0.3251 -0.2703  0.1357
   70SAPC   O11 5988   4.120   4.885   2.275 -0.1106  0.2836  0.3379
   70SAPC    C1 5989   4.130   4.746   2.296 -0.2145  0.2738 -0.2810
   70SAPC    HA 5990   4.065   4.682   2.232 -0.9388 -1.2054  1.8188
   70SAPC    HB 5991   4.235   4.711   2.284 -0.8949 -1.9404 -0.0989
   70SAPC    C2 5992   4.077   4.706   2.433  0.4230  1.1616 -0.4468
   70SAPC    HS 5993   3.967   4.719   2.438  0.6717  3.2162  1.2845
   70SAPC   O21 5994   4.137   4.797   2.524  0.9471  0.0579 -0.0803
   70SAPC   C21 5995   4.058   4.830   2.629  0.2247 -0.1404  0.2105
   70SAPC   O22 5996   3.952   4.779   2.647 -0.3110 -0.2796  0.1401
   70SAPC   C22 5997   4.123   4.926   2.718  0.5770 -1.2362 -0.1800
   70SAPC   H2R 5998   4.229   4.900   2.737  0.5305 -0.3952  1.4107
   70SAPC   H2S 5999   4.119   5.024   2.664 -2.1270  0.0964  2.1717
   70SAPC    C3 6000   4.116   4.558   2.468 -0.6298 -0.1445  0.2470
   70SAPC    HX 6001   4.227   4.567   2.466 -0.6856  0.9926  1.0254
   70SAPC    HY 6002   4.078   4.488   2.391 -0.0528 -2.6571  2.1307
   70SAPC   O31 6003   4.073   4.521   2.601 -0.2812 -0.1104  0.2740
   70SAPC   C31 6004   3.954   4.466   2.612 -0.5581 -0.4870 -0.2562
   70SAPC   O32 6005   3.868   4.470   2.524  0.2776  0.1198 -0.5843
   70SAPC   C32 6006   3.959   4.389   2.744  0.7180 -0.1130  0.0792
   70SAPC   H2X 6007   4.025   4.448   2.812 -1.2499 -0.0114  2.0386
   70SAPC   H2Y 6008   3.999   4.286   2.735  0.3277 -0.3545  1.0005
   70SAPC   C23 6009   4.041   4.951   2.852 -0.3910 -0.3639  0.3830
   70SAPC   H3R 6010   4.037   4.864   2.921 -2.6418 -0.5061  0.1380
   70SAPC   H3S 6011   3.935   4.969   2.822 -0.8973 -0.8806  1.7534
   70SAPC   C24 6012   4.086   5.082   2.921  0.7788  0.5159 -0.3268
   70SAPC   H4R 6013   4.014   5.100   3.003  0.5000 -1.6506 -0.0591
   70SAPC   H4S 6014   4.077   5.166   2.848  2.4156  0.8583 -0.1698
   70SAPC   C25 6015   4.231   5.070   2.967 -0.1680  0.3460  0.1312
   70SAPC   H5R 6016   4.295   5.026   2.890  0.1297 -1.8923  1.5738
   70SAPC   C26 6017   4.296   5.104   3.078  0.0178  0.2792 -0.1178
   70SAPC   H6R 6018   4.405   5.088   3.080 -0.2439 -1.7109  0.7084
   70SAPC   C27 6019   4.226   5.179   3.188  0.3071  0.3396 -0.2081
   70SAPC   H7R 6020   4.158   5.256   3.147 -2.8167 -1.2106  1.6942
   70SAPC   H7S 6021   4.305   5.228   3.249 -2.0060  0.7923  2.6321
   70SAPC   C28 6022   4.132   5.100   3.281 -0.1719  0.0800 -0.0738
   70SAPC   H8R 6023   4.028   5.105   3.246  0.1055 -0.6607 -1.0601
   70SAPC   C29 6024   4.158   5.042   3.399  0.1583 -0.3475 -0.6404
   70SAPC   H9R 6025   4.080   4.978   3.443  0.7027 -0.1220  0.7317
   70SAPC  C210 6026   4.293   5.047   3.471  0.5991 -0.6188  0.4796
   70SAPC  H10R 6027   4.370   5.085   3.402 -0.7463 -0.1329 -0.8124
   70SAPC  H10S 6028   4.322   4.940   3.480 -1.2004 -1.4036 -2.0610
   70SAPC  C211 6029   4.294   5.118   3.605  0.0714  1.0243  0.7054
   70SAPC  H11R 6030   4.196   5.162   3.632 -0.6706  0.1747 -0.5353
   70SAPC  C212 6031   4.388   5.115   3.697  1.0405 -0.5123 -0.4926
   70SAPC  H12R 6032   4.365   5.165   3.792 -0.9602  0.3188 -1.3553
   70SAPC  C213 6033   4.530   5.066   3.687 -0.1663  0.4684  0.7226
   70SAPC  H13R 6034   4.614   5.133   3.716 -0.6234  0.0155  3.3659
   70SAPC  H13S 6035   4.551   5.036   3.582 -1.3991  0.8737  0.3459
   70SAPC  C214 6036   4.561   4.934   3.754 -0.1414  0.1309  0.1043
   70SAPC  H14R 6037   4.554   4.847   3.686  0.5688  0.3528 -0.2657
   70SAPC  C215 6038   4.576   4.914   3.879 -0.0004  0.7293  0.3849
   70SAPC  H15R 6039   4.610   4.816   3.915  0.6127  1.1031  0.8594
   70SAPC  C216 6040   4.591   5.026   3.986 -0.3716 -0.5420  0.4992
   70SAPC  H16R 6041   4.492   5.066   4.018  0.0932  0.0138  1.2633
   70SAPC  H16S 6042   4.652   5.111   3.950  1.7886 -3.0282 -2.1910
   70SAPC  C217 6043   4.674   4.979   4.107  0.4579 -0.2105  0.5268
   70SAPC  H17R 6044   4.693   5.058   4.182  0.3538 -0.7785  1.1604
   70SAPC  H17S 6045   4.775   4.936   4.088  1.0989  0.9268  1.3124
   70SAPC  C218 6046   4.591   4.882   4.201 -0.6432 -0.4967  0.5742
   70SAPC  H18R 6047   4.645   4.882   4.298 -2.3709 -0.4333  1.5784
   70SAPC  H18S 6048   4.597   4.781   4.157 -0.8486  0.4703 -1.8196
   70SAPC  C219 6049   4.451   4.923   4.220  0.2363  0.2653  1.1860
   70SAPC  H19R 6050   4.397   4.896   4.128  0.2544  2.4069  0.4819
   70SAPC  H19S 6051   4.445   5.032   4.240 -0.7311  0.4099  0.1328
   70SAPC  C220 6052   4.375   4.870   4.347  0.8521 -0.0898  0.1260
   70SAPC  H20R 6053   4.437   4.882   4.438  0.7645 -0.0385  0.1787
   70SAPC  H20S 6054   4.355   4.762   4.332  2.9020 -0.1421 -3.5694
   70SAPC  H20T 6055   4.280   4.928   4.353  1.0582  0.2735 -0.1027
   70SAPC   C33 6056   3.822   4.386   2.803 -0.2228 -0.8221  0.2713
   70SAPC   H3X 6057   3.748   4.322   2.750  0.4666  1.0459 -3.2333
   70SAPC   H3Y 6058   3.761   4.479   2.798 -0.6471 -1.0864  0.3952
   70SAPC   C34 6059   3.841   4.356   2.950  0.7915 -0.0144 -0.3956
   70SAPC   H4X 6060   3.928   4.409   2.994  1.8741 -1.5748 -0.5768
   70SAPC   H4Y 6061   3.852   4.247   2.972  0.1329  0.1010  0.5617
   70SAPC   C35 6062   3.719   4.385   3.034 -0.1673 -0.2224 -0.0884
   70SAPC   H5X 6063   3.637   4.314   3.011 -0.1815 -1.1897  2.5566
   70SAPC   H5Y 6064   3.691   4.484   2.993 -0.6093 -0.4564 -0.3542
   70SAPC   C36 6065   3.726   4.385   3.187 -0.0481 -0.1781  0.3991
   70SAPC   H6X 6066   3.628   4.419   3.226 -0.6919 -1.8187  0.2989
   70SAPC   H6Y 6067   3.801   4.461   3.219 -1.6564  3.0151 -2.7246
   70SAPC   C37 6068   3.751   4.245   3.234  0.5904  0.2449  0.7074
   70SAPC   H7X 6069   3.703   4.166   3.173 -0.0893 -1.4027  3.2006
   70SAPC   H7Y 6070   3.859   4.218   3.234  0.4602 -0.2705  0.6260
   70SAPC   C38 6071   3.704   4.208   3.376  0.3810 -0.6368  0.2584
   70SAPC   H8X 6072   3.704   4.097   3.381 -0.1748 -0.7072 -0.9814
   70SAPC   H8Y 6073   3.598   4.237   3.393  0.8804  0.7459  1.1670
   70SAPC   C39 6074   3.792   4.266   3.487 -0.1378 -0.5435 -0.0438
   70SAPC   H9X 6075   3.790   4.377   3.491  1.1959 -0.3354 -2.6714
   70SAPC   H9Y 6076   3.890   4.230   3.450  0.1497 -1.6123  1.6556
   70SAPC  C310 6077   3.772   4.198   3.623  0.1191  0.0106 -0.3770
   70SAPC  H10X 6078   3.781   4.090   3.601  1.2582  0.6752 -3.5679
   70SAPC  H10Y 6079   3.675   4.223   3.673  0.8848  0.6123  0.8553
   70SAPC  C311 6080   3.881   4.248   3.724  0.3850 -0.1739  0.1048
   70SAPC  H11X 6081   3.868   4.357   3.740  0.2250 -0.1074 -0.4434
   70SAPC  H11Y 6082   3.980   4.221   3.681 -0.0270 -3.3709  0.9355
   70SAPC  C312 6083   3.849   4.172   3.857 -0.2153  0.2523  0.3227
   70SAPC  H12X 6084   3.844   4.062   3.841 -0.1383  0.3830 -0.6628
   70SAPC  H12Y 6085   3.756   4.211   3.903  0.8075  0.7533  2.0898
   70SAPC  C313 6086   3.957   4.216   3.965 -0.1830  0.1599 -1.0071
   70SAPC  H13X 6087   4.057   4.201   3.919 -0.1463  1.1209 -1.2575
   70SAPC  H13Y 6088   3.949   4.134   4.039 -1.9974  1.7294  0.6473
   70SAPC  C314 6089   3.942   4.355   4.018 -0.1576  0.0661 -0.3496
   70SAPC  H14X 6090   3.839   4.369   4.057  0.1731  0.6236  0.3422
   70SAPC  H14Y 6091   3.932   4.431   3.937 -2.2932 -0.1506 -0.3462
   70SAPC  C315 6092   4.055   4.399   4.107 -0.1103  0.8055 -0.2396
   70SAPC  H15X 6093   4.027   4.504   4.129  1.0255  1.5256 -2.0022
   70SAPC  H15Y 6094   4.153   4.403   4.054  0.7667  1.6237  1.3699
   70SAPC  C316 6095   4.074   4.318   4.237 -0.5478  0.3331  0.7949
   70SAPC  H16X 6096   4.179   4.325   4.274 -0.2603  1.6791 -0.2295
   70SAPC  H16Y 6097   4.064   4.209   4.215 -1.5193  0.7926 -1.2228
   70SAPC  C317 6098   3.971   4.355   4.339  0.0276 -0.0211 -0.8590
   70SAPC  H17X 6099   3.874   4.328   4.292  1.5108 -2.0758 -2.9959
   70SAPC  H17Y 6100   3.981   4.465   4.349  1.8570 -0.1518 -0.8479
   70SAPC  C318 6101   3.978   4.281   4.475 -0.2773 -0.4076 -0.0425
   70SAPC  H18X 6102   4.070   4.289   4.536 -1.9893 -2.5033  3.0730
   70SAPC  H18Y 6103   3.940   4.176   4.481  1.3507 -1.0183  0.1525
   70SAPC  H18Z 6104   3.904   4.327   4.543  1.4391  0.1881  1.4831
   71SAPC     N 6105   1.283   3.117   2.089 -0.8342 -0.0235  0.1493
   71SAPC   C12 6106   1.192   3.192   2.180  0.3278 -0.5291  1.1042
   71SAPC  H12A 6107   1.237   3.202   2.278  0.8295 -1.9822  1.0465
   71SAPC  H12B 6108   1.108   3.125   2.194  0.9682 -1.3389  1.2220
   71SAPC   C13 6109   1.319   2.982   2.140 -0.3327 -0.1322 -0.2402
   71SAPC  H13A 6110   1.394   2.940   2.076 -0.8689 -2.0673  0.3424
   71SAPC  H13B 6111   1.368   2.972   2.236 -1.3751 -1.0859  0.2074
   71SAPC  H13C 6112   1.233   2.917   2.136 -0.6019  0.1924  0.1739
   71SAPC   C14 6113   1.223   3.110   1.947  0.2484  0.0238 -0.0706
   71SAPC  H14A 6114   1.218   3.212   1.912 -0.2343  1.1924  3.0888
   71SAPC  H14B 6115   1.281   3.063   1.869  2.7786  2.4473  0.1829
   71SAPC  H14C 6116   1.119   3.079   1.948  0.0233  0.7052 -1.2175
   71SAPC   C15 6117   1.410   3.195   2.076 -0.0399  0.4023  0.0067
   71SAPC  H15A 6118   1.492   3.130   2.049  0.1700  1.1350 -1.1739
   71SAPC  H15B 6119   1.387   3.269   2.001 -3.5909  0.2139  0.7310
   71SAPC  H15C 6120   1.434   3.251   2.165 -2.1764  0.9686  0.2756
   71SAPC   C11 6121   1.129   3.320   2.134 -0.1818 -0.7337  0.6567
   71SAPC  H11A 6122   1.068   3.355   2.221 -1.5058  2.0802 -1.2606
   71SAPC  H11B 6123   1.059   3.298   2.051 -1.3677  4.8720 -0.2385
   71SAPC     P 6124   1.162   3.572   2.093 -0.1265  0.5312 -0.0729
   71SAPC   O13 6125   1.238   3.663   2.000  0.0311 -0.1145  0.5570
   71SAPC   O14 6126   1.016   3.567   2.077 -0.0806  0.3196  0.0356
   71SAPC   O12 6127   1.221   3.425   2.091  0.0669 -0.1299 -0.5674
   71SAPC   O11 6128   1.169   3.616   2.244 -0.6907 -0.0504 -0.3754
   71SAPC    C1 6129   1.295   3.632   2.308  0.1575 -0.6489 -0.7006
   71SAPC    HA 6130   1.375   3.678   2.246 -0.8726 -0.2055 -1.7379
   71SAPC    HB 6131   1.277   3.714   2.381  0.3517 -0.2103 -1.1358
   71SAPC    C2 6132   1.330   3.502   2.387  0.1131  0.1027 -0.2153
   71SAPC    HS 6133   1.324   3.414   2.318 -0.7059 -1.5555  1.8543
   71SAPC   O21 6134   1.231   3.483   2.496  0.4108 -0.1358  0.5965
   71SAPC   C21 6135   1.221   3.355   2.531  0.0165  0.2225  0.3907
   71SAPC   O22 6136   1.261   3.255   2.472  0.1755  0.2880 -0.0709
   71SAPC   C22 6137   1.167   3.357   2.670  0.0026 -0.5205  0.0517
   71SAPC   H2R 6138   1.244   3.401   2.737  0.1969  0.4883 -0.8028
   71SAPC   H2S 6139   1.079   3.424   2.679  0.3569 -0.2165  1.4417
   71SAPC    C3 6140   1.473   3.510   2.458  0.4463  0.3142 -0.5577
   71SAPC    HX 6141   1.448   3.561   2.553  0.7500 -0.1802 -0.2114
   71SAPC    HY 6142   1.539   3.574   2.396  1.1656  1.3480  1.2080
   71SAPC   O31 6143   1.525   3.383   2.497  0.6890  0.6137 -0.0617
   71SAPC   C31 6144   1.584   3.310   2.402  0.1116 -0.8305 -0.3796
   71SAPC   O32 6145   1.623   3.356   2.298  0.2124  0.8933  0.5302
   71SAPC   C32 6146   1.587   3.162   2.443  0.5488  0.2447 -0.1330
   71SAPC   H2X 6147   1.690   3.122   2.447 -0.1310 -1.4940  1.7161
   71SAPC   H2Y 6148   1.536   3.111   2.357 -0.1705 -1.9525  1.4922
   71SAPC   C23 6149   1.112   3.221   2.717 -0.0816 -0.5936 -0.0103
   71SAPC   H3R 6150   1.183   3.137   2.702 -0.8366 -1.0222 -1.4448
   71SAPC   H3S 6151   1.031   3.187   2.648 -2.4501 -2.0248  3.1914
   71SAPC   C24 6152   1.042   3.236   2.854 -0.2396 -0.2544  0.0424
   71SAPC   H4R 6153   0.977   3.148   2.873 -0.7433 -0.0903 -0.8541
   71SAPC   H4S 6154   0.967   3.317   2.854 -0.8835 -0.7850  2.3162
   71SAPC   C25 6155   1.133   3.264   2.971 -0.0922  0.1320  0.1256
   71SAPC   H5R 6156   1.226   3.313   2.939 -1.6887  2.3711 -1.4905
   71SAPC   C26 6157   1.131   3.219   3.096 -0.7603  0.1261 -0.7122
   71SAPC   H6R 6158   1.215   3.246   3.160 -1.3874 -0.7939  0.5561
   71SAPC   C27 6159   1.022   3.135   3.155  0.0025  0.3328 -1.0200
   71SAPC   H7R 6160   1.069   3.044   3.197  1.5229  1.8536  0.7627
   71SAPC   H7S 6161   0.960   3.091   3.074 -1.2716  0.0144  0.0831
   71SAPC   C28 6162   0.935   3.205   3.254 -0.0296  0.3983  0.3752
   71SAPC   H8R 6163   0.880   3.292   3.218  1.7766  0.9292 -1.2855
   71SAPC   C29 6164   0.941   3.189   3.388  1.0161  0.5651  0.3356
   71SAPC   H9R 6165   0.884   3.260   3.449  0.2245  0.2734 -0.0475
   71SAPC  C210 6166   1.013   3.092   3.472 -0.0719  0.5684 -0.3153
   71SAPC  H10R 6167   1.097   3.134   3.532 -0.4790 -0.5685  1.1300
   71SAPC  H10S 6168   1.071   3.028   3.401 -0.9677 -1.3586  0.6194
   71SAPC  C211 6169   0.924   3.004   3.554 -0.1621  0.0557  0.1652
   71SAPC  H11R 6170   0.878   2.917   3.505  0.1352 -0.2358  0.4018
   71SAPC  C212 6171   0.890   3.019   3.686  0.1719  0.4077  0.0956
   71SAPC  H12R 6172   0.836   2.940   3.740  3.3280 -0.8892  1.5836
   71SAPC  C213 6173   0.927   3.130   3.785 -0.3141  0.1935  0.2084
   71SAPC  H13R 6174   0.842   3.157   3.851 -0.8955 -1.0657 -0.0048
   71SAPC  H13S 6175   0.947   3.225   3.731  2.8252 -0.4276  0.0523
   71SAPC  C214 6176   1.059   3.099   3.859  0.0554  0.2781 -0.6492
   71SAPC  H14R 6177   1.147   3.063   3.805  0.2988 -2.4066  1.3338
   71SAPC  C215 6178   1.085   3.133   3.984  0.1191 -0.0633  0.0805
   71SAPC  H15R 6179   1.184   3.118   4.029 -0.4222  2.3633  2.3007
   71SAPC  C216 6180   0.984   3.191   4.077  0.6043 -0.5087  0.1212
   71SAPC  H16R 6181   0.880   3.184   4.039  0.4322  1.7667  0.0462
   71SAPC  H16S 6182   1.017   3.295   4.097 -0.0758  0.0253 -1.4345
   71SAPC  C217 6183   0.972   3.120   4.213 -0.1687 -0.1728  0.6497
   71SAPC  H17R 6184   0.901   3.177   4.276 -0.5069  1.7786 -1.3483
   71SAPC  H17S 6185   1.071   3.119   4.264  1.2413 -1.4877 -1.8731
   71SAPC  C218 6186   0.902   2.977   4.204 -0.0639  0.6842  0.0158
   71SAPC  H18R 6187   0.953   2.898   4.145 -0.7157 -1.2702  1.9339
   71SAPC  H18S 6188   0.804   2.994   4.153 -1.0879 -2.1473  0.8820
   71SAPC  C219 6189   0.867   2.916   4.346 -0.6886 -0.3299  0.8642
   71SAPC  H19R 6190   0.772   2.859   4.349 -2.0134  1.6864 -0.6372
   71SAPC  H19S 6191   0.846   3.002   4.413 -1.2471  1.3877 -1.4069
   71SAPC  C220 6192   0.979   2.832   4.414  0.0923  0.3291  0.2023
   71SAPC  H20R 6193   0.966   2.732   4.368  0.2499 -0.7083  2.2901
   71SAPC  H20S 6194   0.977   2.819   4.524  1.4944 -1.2367  0.0852
   71SAPC  H20T 6195   1.079   2.871   4.386 -0.9338  2.8426 -0.2135
   71SAPC   C33 6196   1.507   3.111   2.566  0.7897  1.0749  0.3247
   71SAPC   H3X 6197   1.409   3.076   2.530  0.5979  0.0192  1.7851
   71SAPC   H3Y 6198   1.488   3.181   2.650 -2.5747 -0.6207  1.1475
   71SAPC   C34 6199   1.567   2.980   2.622 -0.6571  0.2484 -0.6527
   71SAPC   H4X 6200   1.506   2.942   2.708 -0.1892  1.4561  0.2367
   71SAPC   H4Y 6201   1.671   3.000   2.657 -0.5714 -0.8569 -0.2323
   71SAPC   C35 6202   1.574   2.861   2.529  0.1701 -0.2235  0.9495
   71SAPC   H5X 6203   1.613   2.890   2.429 -0.8461  2.1769  1.1767
   71SAPC   H5Y 6204   1.470   2.828   2.507  0.7235 -0.3382 -1.9226
   71SAPC   C36 6205   1.649   2.752   2.600  0.2635  0.3789 -0.5819
   71SAPC   H6X 6206   1.680   2.673   2.528  1.7172  0.0617  0.3420
   71SAPC   H6Y 6207   1.571   2.696   2.656 -1.3506  0.4283 -2.6641
   71SAPC   C37 6208   1.768   2.779   2.695  0.1469 -0.6581  0.1744
   71SAPC   H7X 6209   1.737   2.844   2.780 -1.6621  0.0692 -0.9850
   71SAPC   H7Y 6210   1.852   2.839   2.655  1.7077 -3.0762 -0.4123
   71SAPC   C38 6211   1.823   2.647   2.748 -0.1398 -0.0759 -0.0091
   71SAPC   H8X 6212   1.900   2.609   2.677  0.4020 -3.5299  2.1864
   71SAPC   H8Y 6213   1.748   2.565   2.744 -1.0424  0.7119  0.6397
   71SAPC   C39 6214   1.878   2.658   2.885 -0.1331  0.2452  0.0799
   71SAPC   H9X 6215   1.955   2.738   2.887  0.7613 -0.6102  1.0308
   71SAPC   H9Y 6216   1.943   2.571   2.909  0.5059  0.7864  0.3601
   71SAPC  C310 6217   1.779   2.684   3.003 -0.3186  0.0443 -0.0363
   71SAPC  H10X 6218   1.689   2.632   2.963 -0.5473  2.3747 -2.8726
   71SAPC  H10Y 6219   1.746   2.789   3.018 -2.2730 -0.2841 -1.6211
   71SAPC  C311 6220   1.831   2.628   3.136 -0.1221 -0.0297  0.2667
   71SAPC  H11X 6221   1.935   2.660   3.158  0.8294 -1.4253 -1.8736
   71SAPC  H11Y 6222   1.834   2.518   3.120 -0.2305 -0.0296  0.2472
   71SAPC  C312 6223   1.739   2.659   3.255 -0.1177  0.5018 -0.0808
   71SAPC  H12X 6224   1.632   2.642   3.230  0.0015 -1.1005  0.3903
   71SAPC  H12Y 6225   1.745   2.767   3.279  0.3391  0.8629 -1.6718
   71SAPC  C313 6226   1.759   2.573   3.377 -0.0641 -0.1134 -0.3403
   71SAPC  H13X 6227   1.799   2.485   3.323 -3.0115  0.1600 -3.3003
   71SAPC  H13Y 6228   1.667   2.545   3.433  0.0166  1.5533  0.6865
   71SAPC  C314 6229   1.867   2.637   3.469  0.1120  1.2161  0.1842
   71SAPC  H14X 6230   1.832   2.728   3.523 -0.6907  1.2605 -0.3745
   71SAPC  H14Y 6231   1.954   2.664   3.406 -1.7199  0.1679 -3.0401
   71SAPC  C315 6232   1.922   2.530   3.562 -0.1083  0.7339  0.6872
   71SAPC  H15X 6233   1.946   2.433   3.513  1.2826  0.5733  1.6178
   71SAPC  H15Y 6234   1.841   2.501   3.632  1.4118  0.5702  2.4690
   71SAPC  C316 6235   2.045   2.565   3.640  0.5462  0.5534 -0.4234
   71SAPC  H16X 6236   2.037   2.666   3.687 -2.1321  0.6780 -0.9645
   71SAPC  H16Y 6237   2.129   2.565   3.567  0.1297  2.1802 -0.9548
   71SAPC  C317 6238   2.073   2.450   3.739 -0.3380 -0.1338 -0.0222
   71SAPC  H17X 6239   2.078   2.355   3.682 -0.6385 -0.4909  0.5329
   71SAPC  H17Y 6240   1.984   2.445   3.806 -2.9809  1.3498 -3.1674
   71SAPC  C318 6241   2.190   2.472   3.833  0.6603 -0.1219  1.0062
   71SAPC  H18X 6242   2.175   2.556   3.904 -0.5117 -0.1411  0.7972
   71SAPC  H18Y 6243   2.284   2.501   3.781 -0.1341  2.0028  0.6823
   71SAPC  H18Z 6244   2.212   2.380   3.892 -0.3241 -1.2264 -0.2923
   72SAPC     N 6245   2.963   0.688   2.357  0.1690 -0.1839 -0.2306
   72SAPC   C12 6246   2.868   0.609   2.263 -0.7867  0.6245 -0.3882
   72SAPC  H12A 6247   2.924   0.589   2.173 -1.3332  0.1702 -0.6342
   72SAPC  H12B 6248   2.787   0.673   2.232  0.6110  3.6451  1.7116
   72SAPC   C13 6249   3.093   0.609   2.344 -0.2504 -0.1554 -1.1499
   72SAPC  H13A 6250   3.074   0.514   2.391 -0.5984 -0.3301 -1.6409
   72SAPC  H13B 6251   3.121   0.591   2.242 -0.2401  2.7025 -1.7345
   72SAPC  H13C 6252   3.178   0.656   2.392  0.7283 -2.1527 -0.8035
   72SAPC   C14 6253   2.984   0.833   2.323  0.3629  0.1444  0.1528
   72SAPC  H14A 6254   2.898   0.898   2.317  1.6991  2.1660  1.7030
   72SAPC  H14B 6255   3.041   0.883   2.400 -0.9547 -0.3529  1.5112
   72SAPC  H14C 6256   3.036   0.836   2.229  1.5582  1.3354  0.8202
   72SAPC   C15 6257   2.918   0.685   2.499  0.5448  0.1565  0.2772
   72SAPC  H15A 6258   2.904   0.585   2.537  0.2927 -0.0873 -0.4432
   72SAPC  H15B 6259   2.985   0.731   2.570  0.9248 -0.2388  0.1817
   72SAPC  H15C 6260   2.823   0.736   2.500 -0.7623 -2.1142  0.5820
   72SAPC   C11 6261   2.819   0.478   2.318  0.0939 -0.0038  1.2825
   72SAPC  H11A 6262   2.753   0.441   2.236 -1.5077 -0.9633  2.9185
   72SAPC  H11B 6263   2.762   0.495   2.412  1.0415  2.2766  1.4872
   72SAPC     P 6264   2.921   0.235   2.278  0.2552  0.0077 -0.2543
   72SAPC   O13 6265   2.951   0.262   2.136  0.2108 -0.4248  0.9195
   72SAPC   O14 6266   3.019   0.150   2.348 -0.3688 -0.0378 -0.6716
   72SAPC   O12 6267   2.919   0.380   2.352  0.6704  0.0407 -0.2690
   72SAPC   O11 6268   2.776   0.175   2.290 -0.3703 -0.1374  0.5054
   72SAPC    C1 6269   2.738   0.104   2.409 -0.5667 -0.3450  0.4067
   72SAPC    HA 6270   2.638   0.058   2.391 -0.8989  0.3582  0.4183
   72SAPC    HB 6271   2.803   0.018   2.435  0.1822 -0.1354 -0.7480
   72SAPC    C2 6272   2.709   0.188   2.534 -0.2590 -0.3000  0.1605
   72SAPC    HS 6273   2.683   0.290   2.497 -2.7891 -1.1718 -0.6507
   72SAPC   O21 6274   2.825   0.186   2.612  0.2170  0.0927 -0.8065
   72SAPC   C21 6275   2.865   0.303   2.659 -0.1299 -0.4092 -0.8109
   72SAPC   O22 6276   2.795   0.406   2.657 -0.1863 -0.6468 -0.4741
   72SAPC   C22 6277   3.004   0.280   2.720  0.1665 -0.3224 -1.0728
   72SAPC   H2R 6278   2.990   0.216   2.810  0.2234 -0.1328 -0.9270
   72SAPC   H2S 6279   3.066   0.227   2.644  1.3164  0.2389 -0.5586
   72SAPC    C3 6280   2.583   0.134   2.619  0.1158  0.5583 -0.0512
   72SAPC    HX 6281   2.603   0.025   2.635  0.3280  0.2214 -2.3216
   72SAPC    HY 6282   2.488   0.142   2.562 -1.0550  1.5458  1.9300
   72SAPC   O31 6283   2.579   0.197   2.746 -0.2224 -0.3771 -0.3231
   72SAPC   C31 6284   2.512   0.310   2.757 -0.3025 -0.6839  0.5194
   72SAPC   O32 6285   2.463   0.379   2.666  0.2877 -0.3714 -0.5626
   72SAPC   C32 6286   2.492   0.349   2.908 -0.0528  0.5470  0.5710
   72SAPC   H2X 6287   2.388   0.314   2.926  0.0157 -0.0024 -0.0600
   72SAPC   H2Y 6288   2.494   0.460   2.921  1.2606  0.5515  0.4630
   72SAPC   C23 6289   3.085   0.410   2.764 -0.2744  0.6783  0.4071
   72SAPC   H3R 6290   3.052   0.500   2.708  1.5975  2.9591  2.7250
   72SAPC   H3S 6291   3.195   0.395   2.761  0.2851  3.0170  3.5403
   72SAPC   C24 6292   3.076   0.455   2.908 -0.6953 -1.1979 -0.1978
   72SAPC   H4R 6293   2.977   0.504   2.917  0.3267  1.5191 -2.0681
   72SAPC   H4S 6294   3.147   0.541   2.911  0.2719 -2.0091  0.5954
   72SAPC   C25 6295   3.101   0.353   3.015  0.3589  0.3421 -0.2406
   72SAPC   H5R 6296   3.158   0.263   2.989 -0.7580  0.1539 -2.2359
   72SAPC   C26 6297   3.044   0.359   3.138  0.0049  0.0538 -0.6672
   72SAPC   H6R 6298   3.065   0.282   3.213 -0.7462 -0.0088 -0.5130
   72SAPC   C27 6299   2.954   0.466   3.193  0.0805  0.1802 -0.0939
   72SAPC   H7R 6300   2.851   0.433   3.216  0.1596 -0.5070 -0.6938
   72SAPC   H7S 6301   2.944   0.547   3.117  2.8135  0.5843 -0.1285
   72SAPC   C28 6302   3.012   0.528   3.321 -0.2818  0.1174  0.0057
   72SAPC   H8R 6303   3.101   0.591   3.310 -1.2750  1.3346 -1.6474
   72SAPC   C29 6304   2.986   0.513   3.452  0.5670  0.1309  0.3517
   72SAPC   H9R 6305   3.046   0.564   3.528 -1.8514  3.2191  0.3806
   72SAPC  C210 6306   2.886   0.426   3.521  0.7131  0.0536  0.7923
   72SAPC  H10R 6307   2.816   0.388   3.444 -0.7556  1.9076  1.1470
   72SAPC  H10S 6308   2.818   0.496   3.573  0.3837  0.1735  0.2172
   72SAPC  C211 6309   2.952   0.319   3.599  0.5375  0.8139 -0.1424
   72SAPC  H11R 6310   2.953   0.219   3.555  1.3331  0.0326  1.5651
   72SAPC  C212 6311   3.007   0.347   3.721  0.1657 -0.5808 -0.4107
   72SAPC  H12R 6312   3.069   0.268   3.766  3.7082  2.6344  0.9009
   72SAPC  C213 6313   3.008   0.484   3.786  0.6587  0.1899 -0.0856
   72SAPC  H13R 6314   2.942   0.556   3.733 -1.5526 -2.8161 -1.7144
   72SAPC  H13S 6315   3.114   0.518   3.789  0.8118 -0.2779 -0.1098
   72SAPC  C214 6316   2.959   0.467   3.928 -0.2758 -0.9221 -0.0855
   72SAPC  H14R 6317   2.864   0.412   3.937 -0.1482 -1.0761  0.3199
   72SAPC  C215 6318   3.000   0.545   4.032 -0.6953 -0.1439  0.0968
   72SAPC  H15R 6319   2.936   0.529   4.121 -1.6367  1.2040 -0.3132
   72SAPC  C216 6320   3.113   0.643   4.036 -0.5184  0.3917 -1.0795
   72SAPC  H16R 6321   3.079   0.748   4.051  1.6508  0.9623  0.1714
   72SAPC  H16S 6322   3.169   0.641   3.940  2.1731  3.4854  0.2624
   72SAPC  C217 6323   3.216   0.617   4.150  0.2566  0.4396 -0.0210
   72SAPC  H17R 6324   3.274   0.711   4.155 -0.9768  1.2868 -0.9999
   72SAPC  H17S 6325   3.279   0.527   4.134 -0.3690  0.5243 -3.7993
   72SAPC  C218 6326   3.150   0.631   4.296  0.1087 -0.3171 -0.6829
   72SAPC  H18R 6327   3.063   0.562   4.306  0.2131 -0.1572  1.7480
   72SAPC  H18S 6328   3.107   0.733   4.306 -4.3329 -2.0609  0.6042
   72SAPC  C219 6329   3.252   0.614   4.402 -0.3005  0.1345 -0.3621
   72SAPC  H19R 6330   3.334   0.688   4.389  1.2076 -1.5996 -1.1169
   72SAPC  H19S 6331   3.291   0.510   4.397  0.4779  0.3461  0.7963
   72SAPC  C220 6332   3.190   0.634   4.544 -0.3019 -0.4726 -0.1289
   72SAPC  H20R 6333   3.098   0.574   4.558 -1.1029  1.0074  1.1857
   72SAPC  H20S 6334   3.167   0.742   4.560  0.4615 -0.6568  2.6399
   72SAPC  H20T 6335   3.275   0.607   4.610  1.0284 -0.0145 -1.5837
   72SAPC   C33 6336   2.589   0.272   2.991 -0.5692  0.9645 -0.4314
   72SAPC   H3X 6337   2.693   0.303   2.970 -0.5626  1.3537  0.1733
   72SAPC   H3Y 6338   2.574   0.167   2.959 -0.3163  0.2112  1.7779
   72SAPC   C34 6339   2.552   0.286   3.139  0.1284  0.1908  0.6876
   72SAPC   H4X 6340   2.459   0.226   3.148 -0.3500  0.5337 -1.5462
   72SAPC   H4Y 6341   2.535   0.394   3.160  1.2181  0.2907  1.1311
   72SAPC   C35 6342   2.648   0.226   3.246 -0.3864  0.3924 -0.4944
   72SAPC   H5X 6343   2.744   0.281   3.259 -0.3164 -0.0763  1.3078
   72SAPC   H5Y 6344   2.670   0.118   3.230 -1.6516 -0.3752  2.3126
   72SAPC   C36 6345   2.576   0.235   3.386 -0.4766  0.4286 -0.2956
   72SAPC   H6X 6346   2.477   0.186   3.382  0.9632 -2.8050  0.5722
   72SAPC   H6Y 6347   2.554   0.340   3.415 -2.8000 -0.4234  1.2946
   72SAPC   C37 6348   2.641   0.153   3.498 -0.3263 -0.4240 -0.1900
   72SAPC   H7X 6349   2.747   0.187   3.507  0.2198 -1.5179 -2.0485
   72SAPC   H7Y 6350   2.648   0.048   3.463  0.4665 -0.3065 -0.4230
   72SAPC   C38 6351   2.555   0.156   3.626  0.2523 -0.2274  0.4485
   72SAPC   H8X 6352   2.499   0.060   3.625 -0.1339 -0.0139 -1.0488
   72SAPC   H8Y 6353   2.485   0.242   3.617  1.7709  1.1282  1.1940
   72SAPC   C39 6354   2.639   0.166   3.744 -0.0246  0.4754 -0.1250
   72SAPC   H9X 6355   2.695   0.261   3.730  2.0273 -0.9304 -2.0720
   72SAPC   H9Y 6356   2.705   0.078   3.734 -0.0005  0.6721 -2.1629
   72SAPC  C310 6357   2.563   0.163   3.875  0.3872  0.3595 -0.2824
   72SAPC  H10X 6358   2.535   0.059   3.904 -1.0711  0.7466 -0.2505
   72SAPC  H10Y 6359   2.461   0.201   3.856 -0.1561 -0.7750  0.2143
   72SAPC  C311 6360   2.638   0.230   3.984  1.1043  0.3293  0.4695
   72SAPC  H11X 6361   2.618   0.339   3.982 -0.6304  0.0206 -0.6240
   72SAPC  H11Y 6362   2.748   0.213   3.984  0.9944 -0.5576  1.8414
   72SAPC  C312 6363   2.599   0.180   4.129 -0.3628  0.2869  0.1170
   72SAPC  H12X 6364   2.622   0.071   4.137 -0.3467  0.4212  3.4564
   72SAPC  H12Y 6365   2.491   0.200   4.143 -0.6255  0.2377 -1.6648
   72SAPC  C313 6366   2.686   0.244   4.234  0.3305 -1.1917  0.4525
   72SAPC  H13X 6367   2.789   0.236   4.194  0.5462 -2.6412  1.2340
   72SAPC  H13Y 6368   2.681   0.200   4.336 -0.3758  2.5294  2.2280
   72SAPC  C314 6369   2.645   0.389   4.251 -0.2434 -0.1704 -0.1506
   72SAPC  H14X 6370   2.535   0.396   4.265 -1.0315 -0.7501 -4.5951
   72SAPC  H14Y 6371   2.672   0.442   4.157  2.5415 -1.5922 -0.2767
   72SAPC  C315 6372   2.724   0.464   4.365 -0.0146 -0.3778  0.9975
   72SAPC  H15X 6373   2.829   0.463   4.329 -0.6015 -0.3988 -0.8005
   72SAPC  H15Y 6374   2.723   0.404   4.459  0.9167 -1.3915  0.3833
   72SAPC  C316 6375   2.667   0.605   4.402  0.6378  0.3539  0.5178
   72SAPC  H16X 6376   2.580   0.594   4.470 -0.1737 -1.2999 -0.7211
   72SAPC  H16Y 6377   2.644   0.655   4.305 -0.9035  0.6958  1.0260
   72SAPC  C317 6378   2.780   0.695   4.469 -0.3212  0.1159  0.4796
   72SAPC  H17X 6379   2.739   0.798   4.458  1.7702  0.7724 -2.6308
   72SAPC  H17Y 6380   2.873   0.695   4.408 -0.7944 -0.7425 -0.2725
   72SAPC  C318 6381   2.807   0.663   4.614  0.2612  0.1752  0.4447
   72SAPC  H18X 6382   2.853   0.565   4.639 -2.0424 -1.1070 -0.0886
   72SAPC  H18Y 6383   2.706   0.669   4.660  0.2866  0.1449  0.5045
   72SAPC  H18Z 6384   2.868   0.740   4.667 -0.0245  2.5403 -2.3767
   73SLPC     N 6385   1.354   2.795   7.139  0.3762 -0.0519 -0.2948
   73SLPC   C13 6386   1.481   2.790   7.216  0.2536 -0.6868 -0.1207
   73SLPC  H13A 6387   1.466   2.735   7.308 -1.1484 -1.5937 -0.8724
   73SLPC  H13B 6388   1.548   2.726   7.161  1.0005 -0.0573  0.0339
   73SLPC  H13C 6389   1.530   2.884   7.239  1.8100 -1.5440  0.2718
   73SLPC   C14 6390   1.239   2.843   7.224  0.4983 -0.1833 -0.2940
   73SLPC  H14A 6391   1.150   2.828   7.165  0.1637 -1.2141  0.4417
   73SLPC  H14B 6392   1.235   2.790   7.318  1.4111 -0.0007 -0.1418
   73SLPC  H14C 6393   1.242   2.950   7.238 -1.3790 -0.2094  0.6698
   73SLPC   C15 6394   1.334   2.647   7.115  0.7348  0.4475 -0.6850
   73SLPC  H15A 6395   1.237   2.631   7.070  0.8584 -1.0560 -0.4667
   73SLPC  H15B 6396   1.394   2.612   7.032 -0.9654 -2.2610 -0.9096
   73SLPC  H15C 6397   1.328   2.584   7.203 -0.2606  1.4997  0.0294
   73SLPC   C12 6398   1.382   2.881   7.016  0.4953  0.0719  0.1974
   73SLPC  H12A 6399   1.394   2.983   7.050  1.6208  0.4019 -1.1199
   73SLPC  H12B 6400   1.288   2.883   6.962  1.0254 -0.5224 -0.7776
   73SLPC   C11 6401   1.489   2.847   6.910  0.2142 -0.6181  0.6779
   73SLPC  H11A 6402   1.590   2.847   6.957  0.9291 -0.0915 -0.7838
   73SLPC  H11B 6403   1.497   2.926   6.831 -0.5508  0.3642  1.5613
   73SLPC     P 6404   1.396   2.676   6.704  0.1344  0.4041  0.0515
   73SLPC   O13 6405   1.485   2.571   6.644 -0.3222  0.0861  0.3640
   73SLPC   O14 6406   1.249   2.636   6.723 -0.6417  0.2186 -0.0924
   73SLPC   O12 6407   1.457   2.720   6.850 -0.4076  0.0269  1.0724
   73SLPC   O11 6408   1.399   2.801   6.610  0.0391 -0.1357 -0.4516
   73SLPC    C1 6409   1.308   2.908   6.627  0.4649 -0.5724  0.1793
   73SLPC    HA 6410   1.249   2.913   6.721  0.2267  0.8141 -0.0304
   73SLPC    HB 6411   1.360   3.005   6.622 -2.5788  1.1300 -2.1649
   73SLPC    C2 6412   1.203   2.910   6.512  0.0512 -0.6138  0.5041
   73SLPC    HS 6413   1.172   2.805   6.497  0.0612 -0.5810  0.2426
   73SLPC   O21 6414   1.246   2.980   6.389 -0.1061 -0.2327 -0.3684
   73SLPC   C21 6415   1.286   2.898   6.302  0.0156 -0.0908  0.4849
   73SLPC   O22 6416   1.290   2.775   6.307 -0.2953  0.2524 -0.0230
   73SLPC   C22 6417   1.312   2.979   6.176 -0.6601  0.6257  0.7280
   73SLPC   H2R 6418   1.220   3.030   6.139  0.4102  1.5178 -0.8170
   73SLPC   H2S 6419   1.395   3.049   6.194  1.9751 -1.9317 -0.6553
   73SLPC    C3 6420   1.080   2.992   6.560 -0.0345 -0.4800  0.3328
   73SLPC    HX 6421   1.117   3.094   6.583 -3.2182  0.5756  1.1952
   73SLPC    HY 6422   1.039   2.944   6.651 -2.3549  2.6936  1.1141
   73SLPC   O31 6423   0.975   3.007   6.458  0.2601 -0.7004 -0.1656
   73SLPC   C31 6424   0.885   2.905   6.442  0.3189 -0.3590 -0.4874
   73SLPC   O32 6425   0.888   2.803   6.508  0.4462 -0.0328 -0.0140
   73SLPC   C32 6426   0.790   2.944   6.325  0.6111 -0.5323  0.4931
   73SLPC   H2X 6427   0.755   3.046   6.352 -0.3009 -1.2945  2.4007
   73SLPC   H2Y 6428   0.701   2.879   6.326  1.8805 -2.4002 -1.1060
   73SLPC   C23 6429   1.354   2.884   6.064 -0.6416 -0.1700  0.0539
   73SLPC   H3R 6430   1.295   2.791   6.053  0.7374 -1.2349  1.2066
   73SLPC   H3S 6431   1.458   2.859   6.095 -0.8086 -1.1727 -0.1590
   73SLPC   C24 6432   1.328   2.943   5.922 -0.7918 -0.4547  0.2852
   73SLPC   H4R 6433   1.400   3.027   5.907 -0.3416 -0.9541 -0.3428
   73SLPC   H4S 6434   1.226   2.986   5.906  0.7144  2.8851 -1.3854
   73SLPC   C25 6435   1.365   2.846   5.806 -0.5573  0.3150 -0.2539
   73SLPC   H5R 6436   1.284   2.772   5.788  1.8014 -2.6953  0.6699
   73SLPC   H5S 6437   1.456   2.790   5.836 -0.0664  0.9434 -0.5602
   73SLPC   C26 6438   1.382   2.913   5.665 -0.0399 -0.7308 -0.0524
   73SLPC   H6R 6439   1.402   2.837   5.587  1.8937 -0.0682 -0.2554
   73SLPC   H6S 6440   1.479   2.967   5.671 -0.0526 -0.4970 -1.5598
   73SLPC   C27 6441   1.256   2.991   5.630  0.1385 -0.3848 -0.3919
   73SLPC   H7R 6442   1.280   3.089   5.678  0.6461 -0.1988 -1.0203
   73SLPC   H7S 6443   1.167   2.944   5.678  0.6788 -1.9904 -0.8956
   73SLPC   C28 6444   1.237   3.002   5.478  0.4389 -0.1079 -1.2837
   73SLPC   H8R 6445   1.330   3.045   5.435  0.7273  0.3754 -0.1976
   73SLPC   H8S 6446   1.157   3.078   5.466 -1.1041 -1.1354  1.5793
   73SLPC   C29 6447   1.200   2.867   5.415 -1.3523 -0.0455  0.0687
   73SLPC   H9R 6448   1.205   2.784   5.487 -0.1207 -1.4529 -1.5582
   73SLPC  C210 6449   1.147   2.840   5.295  0.1932  0.1758  0.7433
   73SLPC  H10R 6450   1.128   2.734   5.270  0.1594  0.2461  0.4753
   73SLPC  C211 6451   1.141   2.940   5.182 -0.3767  0.6650  0.1551
   73SLPC  H11R 6452   1.169   2.890   5.087  0.2810  0.3337  0.5150
   73SLPC  H11S 6453   1.209   3.024   5.205  1.3390 -0.6368  0.0092
   73SLPC  C212 6454   0.998   2.989   5.158  0.3376  0.5926  0.0941
   73SLPC  H12R 6455   0.915   2.951   5.219 -0.1222 -2.3368 -2.0955
   73SLPC  C213 6456   0.972   3.078   5.058 -0.2908 -0.1844  0.5008
   73SLPC  H13R 6457   0.870   3.111   5.036 -0.4206 -0.4950  0.6309
   73SLPC  C214 6458   1.083   3.135   4.969 -0.1048  0.8357 -0.1144
   73SLPC  H14R 6459   1.178   3.077   4.978 -0.1925  0.8592  1.1512
   73SLPC  H14S 6460   1.100   3.242   4.990 -0.3885  1.1231 -1.2855
   73SLPC  C215 6461   1.040   3.136   4.820 -0.5989 -0.0598 -0.3476
   73SLPC  H15R 6462   1.021   3.034   4.781 -0.4692  0.4027 -1.6771
   73SLPC  H15S 6463   1.125   3.161   4.752 -1.3276 -1.2086 -1.7512
   73SLPC  C216 6464   0.928   3.230   4.784  0.2475 -0.3333 -0.0221
   73SLPC  H16R 6465   0.965   3.328   4.819  2.5570 -1.0932 -0.2028
   73SLPC  H16S 6466   0.834   3.212   4.841 -1.6635  1.6528 -2.3283
   73SLPC  C217 6467   0.904   3.240   4.632 -0.2727 -0.3219  0.0017
   73SLPC  H17R 6468   0.872   3.141   4.592  0.2948 -0.3418 -0.4167
   73SLPC  H17S 6469   1.000   3.258   4.580 -0.5687 -2.0443 -1.2658
   73SLPC  C218 6470   0.803   3.349   4.591 -0.6015  0.3805  0.1356
   73SLPC  H18R 6471   0.822   3.367   4.483  0.5505  1.0505  0.4379
   73SLPC  H18S 6472   0.815   3.446   4.644 -1.4428  0.6647 -0.1617
   73SLPC  H18T 6473   0.700   3.316   4.616 -0.7090  1.8124  1.7605
   73SLPC   C33 6474   0.855   2.918   6.190  0.2887 -1.1582  0.2378
   73SLPC   H3X 6475   0.962   2.944   6.192  0.3572 -1.4515  1.2054
   73SLPC   H3Y 6476   0.791   2.970   6.116 -2.5131 -3.1749  1.0343
   73SLPC   C34 6477   0.850   2.771   6.163 -0.0024  0.8046  0.1657
   73SLPC   H4X 6478   0.745   2.734   6.170 -0.1749  0.8064 -1.8080
   73SLPC   H4Y 6479   0.908   2.729   6.247 -0.2011  0.5894  0.1982
   73SLPC   C35 6480   0.904   2.716   6.034  0.9696  0.0539 -0.0467
   73SLPC   H5X 6481   0.849   2.622   6.009 -0.1684  0.3826  1.1066
   73SLPC   H5Y 6482   1.011   2.687   6.042  0.9530 -1.2240 -2.9412
   73SLPC   C36 6483   0.892   2.820   5.915  0.9494 -0.8156  0.1132
   73SLPC   H6X 6484   0.958   2.908   5.933  0.0420 -0.0376 -0.3106
   73SLPC   H6Y 6485   0.785   2.844   5.896  1.4713  1.4448 -0.2799
   73SLPC   C37 6486   0.921   2.734   5.785 -0.5778 -0.4707 -0.4192
   73SLPC   H7X 6487   0.895   2.627   5.798 -0.2190 -0.4005  1.1635
   73SLPC   H7Y 6488   1.028   2.741   5.757 -0.5132 -0.7937 -0.2546
   73SLPC   C38 6489   0.855   2.792   5.661 -0.1493 -0.3099 -0.3804
   73SLPC   H8X 6490   0.893   2.895   5.644  0.5858 -0.4203  0.5116
   73SLPC   H8Y 6491   0.749   2.804   5.692 -0.2217 -2.1410  0.1790
   73SLPC   C39 6492   0.865   2.714   5.537 -0.4933  0.0466  0.1737
   73SLPC   H9X 6493   0.844   2.606   5.552  0.2731 -0.0692  0.4412
   73SLPC   H9Y 6494   0.967   2.715   5.495 -1.0764 -0.5699 -1.3339
   73SLPC  C310 6495   0.771   2.773   5.430  0.4418  0.1908 -0.3429
   73SLPC  H10X 6496   0.790   2.882   5.413 -0.0263  0.0494 -2.0240
   73SLPC  H10Y 6497   0.668   2.764   5.470 -0.4680  2.3225 -1.9787
   73SLPC  C311 6498   0.771   2.690   5.305  0.6499  0.2083 -0.7773
   73SLPC  H11X 6499   0.737   2.592   5.346  0.2696  0.0821 -1.3839
   73SLPC  H11Y 6500   0.877   2.678   5.272  1.3543 -0.3280  1.5212
   73SLPC  C312 6501   0.682   2.738   5.193  0.2515  0.1067  0.1218
   73SLPC  H12X 6502   0.694   2.847   5.177 -1.2600  0.0820 -1.4157
   73SLPC  H12Y 6503   0.576   2.721   5.223 -0.6730  0.1229 -2.8148
   73SLPC  C313 6504   0.696   2.658   5.065  0.2891  0.3793 -0.3855
   73SLPC  H13X 6505   0.599   2.685   5.017 -1.5487  1.6758  3.6123
   73SLPC  H13Y 6506   0.711   2.554   5.099  1.9711  0.9784  0.8423
   73SLPC  C314 6507   0.815   2.690   4.978  0.1706 -0.7454 -0.5217
   73SLPC  H14X 6508   0.843   2.594   4.928 -0.2012 -1.8607  1.3159
   73SLPC  H14Y 6509   0.890   2.714   5.056 -1.2748  1.9831  0.1366
   73SLPC  C315 6510   0.785   2.806   4.876  0.1023 -0.1302 -0.2529
   73SLPC  H15X 6511   0.885   2.830   4.835 -0.8075  2.2724 -1.2709
   73SLPC  H15Y 6512   0.747   2.896   4.929  0.1815  0.1501 -0.6670
   73SLPC  C316 6513   0.693   2.763   4.765 -0.2122  0.0078 -0.1789
   73SLPC  H16X 6514   0.597   2.735   4.815 -1.4424  1.0293 -1.8344
   73SLPC  H16Y 6515   0.736   2.673   4.717 -1.5063 -0.3793 -0.6744
   73SLPC  C317 6516   0.658   2.866   4.663  0.3129  0.2679 -0.3835
   73SLPC  H17X 6517   0.600   2.811   4.586  0.8030  0.4447 -0.8812
   73SLPC  H17Y 6518   0.752   2.902   4.617 -0.8389  1.4952 -1.8915
   73SLPC  C318 6519   0.582   2.985   4.714 -0.6030 -0.2803 -0.3887
   73SLPC  H18X 6520   0.554   3.061   4.638 -0.7534  1.7554  1.5955
   73SLPC  H18Y 6521   0.647   3.044   4.782  1.1743  0.1560 -2.3395
   73SLPC  H18Z 6522   0.496   2.953   4.776 -1.0334 -0.9896 -1.3278
   74SLPC     N 6523   6.437   1.950   6.914  0.3727 -0.4699 -0.6725
   74SLPC   C13 6524   6.315   1.913   6.991  0.1296  0.7781  0.0938
   74SLPC  H13A 6525   6.346   1.878   7.089 -0.8506 -0.2860  0.0488
   74SLPC  H13B 6526   6.247   1.995   7.008  0.7967  1.1494  1.0379
   74SLPC  H13C 6527   6.257   1.841   6.935  1.6705  1.0911 -2.0375
   74SLPC   C14 6528   6.553   1.856   6.953  0.0656  0.1374 -0.6450
   74SLPC  H14A 6529   6.636   1.881   6.889  1.2151  1.8087  1.3425
   74SLPC  H14B 6530   6.591   1.879   7.052  0.8243  0.9858 -1.1206
   74SLPC  H14C 6531   6.533   1.751   6.939  1.4873 -0.1393 -0.7932
   74SLPC   C15 6532   6.471   2.098   6.943  0.4155  0.0269 -0.3699
   74SLPC  H15A 6533   6.526   2.105   7.036  1.6569 -0.5865 -1.0233
   74SLPC  H15B 6534   6.537   2.139   6.867  0.2817 -0.2716 -0.6510
   74SLPC  H15C 6535   6.376   2.148   6.950  0.4593  0.1529 -0.6548
   74SLPC   C12 6536   6.407   1.938   6.771  0.2598 -0.0271  0.1333
   74SLPC  H12A 6537   6.334   2.013   6.744 -1.7561 -0.9321  2.6546
   74SLPC  H12B 6538   6.358   1.844   6.752 -0.4983  0.0866  1.4301
   74SLPC   C11 6539   6.521   1.956   6.668 -0.0800  0.2971  0.0506
   74SLPC  H11A 6540   6.487   1.957   6.563 -0.1514 -1.4340  0.0340
   74SLPC  H11B 6541   6.575   1.861   6.685  0.0163  0.6138  1.7039
   74SLPC     P 6542   6.760   2.073   6.683 -0.2787  0.0257 -0.1316
   74SLPC   O13 6543   6.808   2.206   6.718  0.1266  0.2941 -0.3111
   74SLPC   O14 6544   6.812   1.959   6.753 -1.3900  0.2278 -0.3075
   74SLPC   O12 6545   6.602   2.071   6.694 -0.5002  0.2219 -0.2583
   74SLPC   O11 6546   6.802   2.051   6.535 -0.1901 -0.5967  0.4104
   74SLPC    C1 6547   6.733   2.111   6.420  0.1729 -0.5829 -0.7276
   74SLPC    HA 6548   6.625   2.085   6.427  0.4501 -1.6489 -0.2667
   74SLPC    HB 6549   6.744   2.221   6.431  2.3440 -0.5742 -2.3240
   74SLPC    C2 6550   6.806   2.085   6.287  0.3327 -0.3741 -0.1314
   74SLPC    HS 6551   6.916   2.097   6.301  0.2962 -0.7086  0.4743
   74SLPC   O21 6552   6.750   2.171   6.194  0.9134 -0.6625  0.1849
   74SLPC   C21 6553   6.819   2.284   6.165 -0.4884  0.8330  0.2273
   74SLPC   O22 6554   6.907   2.326   6.236 -0.2630 -0.2736 -0.0773
   74SLPC   C22 6555   6.758   2.366   6.054  0.2564 -0.3198 -1.4221
   74SLPC   H2R 6556   6.657   2.321   6.044  0.5782 -1.8886  1.4218
   74SLPC   H2S 6557   6.747   2.472   6.087 -0.8375 -0.3602 -1.6189
   74SLPC    C3 6558   6.793   1.937   6.247 -0.0778 -0.3067  1.0969
   74SLPC    HX 6559   6.690   1.907   6.277  0.5965 -3.1587  0.9279
   74SLPC    HY 6560   6.876   1.881   6.296  2.1309  2.1999  0.4065
   74SLPC   O31 6561   6.809   1.928   6.104 -0.7477  0.1692  0.4062
   74SLPC   C31 6562   6.701   1.938   6.030  0.2742 -0.3319 -0.0726
   74SLPC   O32 6563   6.581   1.935   6.066 -0.0846 -0.5835  0.3967
   74SLPC   C32 6564   6.734   1.953   5.882 -0.4591  0.0350  0.5510
   74SLPC   H2X 6565   6.836   1.915   5.866  0.3405  1.5391  1.7955
   74SLPC   H2Y 6566   6.739   2.061   5.855 -1.1195  0.1126  0.7182
   74SLPC   C23 6567   6.849   2.367   5.923 -0.3984  0.0352  0.2891
   74SLPC   H3R 6568   6.834   2.268   5.875  0.7658  0.3369 -0.7264
   74SLPC   H3S 6569   6.958   2.378   5.941 -0.1139  0.2433 -1.4079
   74SLPC   C24 6570   6.806   2.478   5.824  0.1455 -0.2501  0.0594
   74SLPC   H4R 6571   6.849   2.576   5.854 -1.9225  1.0338 -0.9425
   74SLPC   H4S 6572   6.696   2.482   5.814  0.0710  0.9066  1.1018
   74SLPC   C25 6573   6.851   2.440   5.678  0.1787 -0.7726  1.0606
   74SLPC   H5R 6574   6.826   2.339   5.638  0.1948  0.3055 -1.8923
   74SLPC   H5S 6575   6.961   2.451   5.689  0.1442  0.0015  0.7024
   74SLPC   C26 6576   6.815   2.557   5.591  0.1522 -0.2295  0.3348
   74SLPC   H6R 6577   6.847   2.649   5.645  1.3069  0.8233 -1.9756
   74SLPC   H6S 6578   6.706   2.576   5.582  0.4239  1.4061  0.1832
   74SLPC   C27 6579   6.887   2.549   5.461 -0.4981 -0.0603  0.1489
   74SLPC   H7R 6580   6.832   2.481   5.393 -1.0311 -1.1137  1.5771
   74SLPC   H7S 6581   6.985   2.499   5.478 -0.3429  0.3411  0.4419
   74SLPC   C28 6582   6.899   2.686   5.387  0.0271  0.2427  0.0737
   74SLPC   H8R 6583   6.975   2.662   5.310  1.5030 -0.4286  1.6731
   74SLPC   H8S 6584   6.941   2.751   5.466  0.1502 -1.1239  1.1775
   74SLPC   C29 6585   6.782   2.751   5.316  0.3431 -0.2179  0.2525
   74SLPC   H9R 6586   6.697   2.796   5.371  0.1679  1.8770 -1.5701
   74SLPC  C210 6587   6.778   2.775   5.186 -0.1709  0.0548  0.9588
   74SLPC  H10R 6588   6.680   2.799   5.142 -0.6741 -2.8609  0.2329
   74SLPC  C211 6589   6.881   2.745   5.072  0.3828  0.4685 -0.9010
   74SLPC  H11R 6590   6.953   2.669   5.111  3.2457  3.4417  0.1194
   74SLPC  H11S 6591   6.950   2.832   5.062 -0.3244  1.0173 -1.0727
   74SLPC  C212 6592   6.831   2.712   4.937  0.0949 -0.8054  0.3187
   74SLPC  H12R 6593   6.779   2.788   4.877 -0.9026  0.2333  2.4031
   74SLPC  C213 6594   6.856   2.591   4.878  0.0418  0.5412 -0.2884
   74SLPC  H13R 6595   6.798   2.569   4.786 -1.1672  0.1795  0.5314
   74SLPC  C214 6596   6.919   2.463   4.942  0.1510 -0.3498  0.0126
   74SLPC  H14R 6597   6.863   2.373   4.912 -1.3345  0.8056 -0.7998
   74SLPC  H14S 6598   6.910   2.470   5.052 -0.4735 -0.4961 -0.0270
   74SLPC  C215 6599   7.071   2.436   4.913  0.9841 -0.2368  0.5559
   74SLPC  H15R 6600   7.109   2.357   4.981 -2.4474  0.2094  3.3046
   74SLPC  H15S 6601   7.114   2.533   4.943  1.6925 -0.5175  0.4608
   74SLPC  C216 6602   7.103   2.429   4.758 -0.3504 -0.3135 -0.1936
   74SLPC  H16R 6603   7.214   2.428   4.746 -0.3704  0.3844 -0.5069
   74SLPC  H16S 6604   7.077   2.520   4.700 -0.3479 -0.8128 -1.0082
   74SLPC  C217 6605   7.039   2.305   4.696 -0.1681 -0.2682 -0.7936
   74SLPC  H17R 6606   6.937   2.299   4.739 -0.0553 -0.7885 -0.6023
   74SLPC  H17S 6607   7.102   2.220   4.729  1.2526  1.0834  0.1067
   74SLPC  C218 6608   7.032   2.303   4.544  0.2304  0.0545  0.0148
   74SLPC  H18R 6609   7.128   2.285   4.492  0.2348 -2.2768  0.6976
   74SLPC  H18S 6610   6.978   2.395   4.512  1.6448  1.3758  1.2913
   74SLPC  H18T 6611   6.960   2.227   4.506 -0.6364  1.2024 -0.6896
   74SLPC   C33 6612   6.650   1.877   5.785 -0.3071  0.9372  0.3714
   74SLPC   H3X 6613   6.544   1.911   5.785 -1.0788 -1.2671 -0.5053
   74SLPC   H3Y 6614   6.652   1.768   5.806  0.6119  1.0149  0.7237
   74SLPC   C34 6615   6.697   1.900   5.639 -0.8863 -0.6374  0.0423
   74SLPC   H4X 6616   6.797   1.855   5.618 -1.1602 -0.9792 -0.5404
   74SLPC   H4Y 6617   6.707   2.010   5.631 -1.1790 -0.6422 -0.4186
   74SLPC   C35 6618   6.601   1.849   5.532  0.1743 -0.2413 -0.0678
   74SLPC   H5X 6619   6.505   1.895   5.560 -0.0871 -1.8586  1.9299
   74SLPC   H5Y 6620   6.576   1.743   5.555  2.0679 -0.6503  0.3283
   74SLPC   C36 6621   6.634   1.899   5.388  0.5376  0.5740  0.8555
   74SLPC   H6X 6622   6.738   1.871   5.361  0.5172  1.0584  0.2631
   74SLPC   H6Y 6623   6.602   2.005   5.382 -1.6388 -0.0645  0.0035
   74SLPC   C37 6624   6.561   1.826   5.265  0.2205  0.5081  0.3804
   74SLPC   H7X 6625   6.520   1.726   5.291 -0.3896  0.1986 -1.5893
   74SLPC   H7Y 6626   6.632   1.808   5.181 -1.5212  0.0550 -1.0571
   74SLPC   C38 6627   6.440   1.904   5.217 -0.5843  0.0699  0.1462
   74SLPC   H8X 6628   6.475   2.009   5.216 -0.9922  0.2184 -1.3984
   74SLPC   H8Y 6629   6.352   1.886   5.282 -1.0938  1.0568 -0.2557
   74SLPC   C39 6630   6.406   1.873   5.070 -0.9172 -0.0558 -0.0874
   74SLPC   H9X 6631   6.386   1.765   5.055  1.7950 -0.5641 -0.5448
   74SLPC   H9Y 6632   6.504   1.891   5.022 -2.2368  1.6274 -2.4005
   74SLPC  C310 6633   6.297   1.959   5.005 -0.9373 -0.5878  0.8079
   74SLPC  H10X 6634   6.332   2.064   5.015  0.1754 -0.7931 -0.5847
   74SLPC  H10Y 6635   6.200   1.946   5.056 -0.8339  0.6564  1.3394
   74SLPC  C311 6636   6.291   1.932   4.852  0.2031  0.3800 -0.7099
   74SLPC  H11X 6637   6.266   1.826   4.832 -0.7139  0.9552 -2.8919
   74SLPC  H11Y 6638   6.391   1.953   4.808  1.4032  1.0637  2.1189
   74SLPC  C312 6639   6.182   2.023   4.792  0.3509 -0.3126 -0.0181
   74SLPC  H12X 6640   6.206   2.129   4.815  0.1813 -0.4780  0.9964
   74SLPC  H12Y 6641   6.088   2.007   4.848  0.7745  0.0931  0.8341
   74SLPC  C313 6642   6.157   2.003   4.641 -0.4821  0.4469 -1.4338
   74SLPC  H13X 6643   6.249   1.990   4.580  0.2155 -0.7841 -0.1692
   74SLPC  H13Y 6644   6.116   2.098   4.600 -0.3500  0.9153 -0.4937
   74SLPC  C314 6645   6.048   1.891   4.615 -0.4535  0.4442 -0.3699
   74SLPC  H14X 6646   5.968   1.909   4.689  0.7695 -0.6644  1.3111
   74SLPC  H14Y 6647   6.093   1.792   4.642  0.0292  1.0423  1.1073
   74SLPC  C315 6648   6.017   1.891   4.468  0.0048  0.2462 -0.1994
   74SLPC  H15X 6649   6.109   1.889   4.407 -0.0267  1.2844 -0.2969
   74SLPC  H15Y 6650   5.969   1.990   4.452 -0.4146 -0.1522 -1.5491
   74SLPC  C316 6651   5.913   1.791   4.414 -0.1456 -0.3671 -0.0538
   74SLPC  H16X 6652   5.881   1.819   4.311  0.5028 -1.3284 -0.5309
   74SLPC  H16Y 6653   5.826   1.782   4.482  1.2264 -1.5732  1.6412
   74SLPC  C317 6654   5.974   1.647   4.394 -0.2032 -0.3717  0.4359
   74SLPC  H17X 6655   5.983   1.575   4.478  0.0607 -0.7937  0.0520
   74SLPC  H17Y 6656   6.076   1.661   4.352  0.3932 -1.1481  1.5616
   74SLPC  C318 6657   5.896   1.572   4.281  0.0504 -0.2440 -0.2742
   74SLPC  H18X 6658   5.904   1.641   4.195 -1.6323 -0.0483 -0.3116
   74SLPC  H18Y 6659   5.786   1.565   4.293 -0.0508 -1.0465 -1.4799
   74SLPC  H18Z 6660   5.940   1.476   4.245 -1.0417 -0.5037 -0.9530
   75SLPC     N 6661   3.175   4.067   6.738 -0.4191 -0.2022 -0.1382
   75SLPC   C13 6662   3.119   4.035   6.878 -0.7321  0.0361 -0.0856
   75SLPC  H13A 6663   3.193   4.016   6.954  0.2262  0.2673 -0.9403
   75SLPC  H13B 6664   3.069   4.123   6.914 -0.0102  2.0578 -3.5558
   75SLPC  H13C 6665   3.053   3.950   6.868  0.3924 -0.8854  0.1082
   75SLPC   C14 6666   3.254   3.947   6.687 -0.2776 -0.2513 -0.4631
   75SLPC  H14A 6667   3.323   3.910   6.762 -1.6711  0.0765  1.0490
   75SLPC  H14B 6668   3.175   3.875   6.672 -0.3490 -0.0618 -0.9896
   75SLPC  H14C 6669   3.310   3.963   6.597  2.0064 -1.1627  0.7020
   75SLPC   C15 6670   3.269   4.184   6.760  0.6795  0.7006 -0.0992
   75SLPC  H15A 6671   3.314   4.216   6.667 -1.1464 -0.2198 -1.3592
   75SLPC  H15B 6672   3.208   4.268   6.789  2.2381  1.1134  2.2680
   75SLPC  H15C 6673   3.351   4.164   6.827  0.9070  1.4351 -0.1425
   75SLPC   C12 6674   3.074   4.108   6.644 -0.1961 -0.8490 -0.2646
   75SLPC  H12A 6675   3.115   4.109   6.544  2.8578 -0.0426  0.8830
   75SLPC  H12B 6676   3.036   4.201   6.684  2.2929 -0.0315  0.3846
   75SLPC   C11 6677   2.951   4.015   6.651 -0.6268  0.2572 -0.5361
   75SLPC  H11A 6678   2.885   4.055   6.571 -0.3264  0.8708 -0.4836
   75SLPC  H11B 6679   2.897   4.036   6.746  1.1324  1.7030  0.2071
   75SLPC     P 6680   2.979   3.814   6.482  0.1358 -0.2978  0.1619
   75SLPC   O13 6681   3.108   3.856   6.426  0.0654  0.3549  0.6427
   75SLPC   O14 6682   2.939   3.676   6.493  0.4126  0.2955 -0.7007
   75SLPC   O12 6683   2.970   3.877   6.637  0.0996 -0.8133  0.2710
   75SLPC   O11 6684   2.862   3.897   6.410 -0.2129 -0.1931 -0.2142
   75SLPC    C1 6685   2.735   3.830   6.403  0.5496  0.2245  0.3927
   75SLPC    HA 6686   2.722   3.759   6.487  3.5202  0.1518  0.9036
   75SLPC    HB 6687   2.656   3.905   6.424  0.0983 -0.7885  2.5971
   75SLPC    C2 6688   2.704   3.758   6.260  0.2481  0.2343  0.1385
   75SLPC    HS 6689   2.758   3.662   6.248 -1.2507 -0.3946 -2.4556
   75SLPC   O21 6690   2.724   3.847   6.149 -0.1865 -0.0187  0.0169
   75SLPC   C21 6691   2.783   3.786   6.047 -0.6938 -0.2477  0.6268
   75SLPC   O22 6692   2.820   3.671   6.043 -0.0042 -0.3749 -0.2328
   75SLPC   C22 6693   2.796   3.887   5.935  0.2572 -0.4342 -0.1145
   75SLPC   H2R 6694   2.697   3.934   5.916 -0.6326 -1.8185  0.9216
   75SLPC   H2S 6695   2.869   3.967   5.959  0.8780  0.2994 -3.7765
   75SLPC    C3 6696   2.554   3.697   6.269 -0.0187  0.4414 -0.4343
   75SLPC    HX 6697   2.479   3.773   6.301 -0.4518  0.2208 -0.9183
   75SLPC    HY 6698   2.547   3.622   6.350  1.9285  0.1225 -0.5267
   75SLPC   O31 6699   2.498   3.642   6.145  0.3480 -0.1913  0.0333
   75SLPC   C31 6700   2.442   3.731   6.063  0.0038 -0.0135  0.3082
   75SLPC   O32 6701   2.419   3.853   6.092 -0.0105 -0.6789 -0.3029
   75SLPC   C32 6702   2.442   3.664   5.923  0.3153 -0.0537  0.0741
   75SLPC   H2X 6703   2.395   3.565   5.941  2.5355 -0.8881  1.7722
   75SLPC   H2Y 6704   2.549   3.636   5.907  1.0209  1.6621  1.4003
   75SLPC   C23 6705   2.837   3.810   5.808  0.0105  0.1826  0.4966
   75SLPC   H3R 6706   2.764   3.729   5.788 -0.5427  0.7358  0.2243
   75SLPC   H3S 6707   2.933   3.757   5.825  0.4092  0.9273  0.6182
   75SLPC   C24 6708   2.850   3.900   5.683 -0.3942  0.3577 -0.6706
   75SLPC   H4R 6709   2.938   3.963   5.707 -1.0852  0.7277  1.0279
   75SLPC   H4S 6710   2.764   3.967   5.668 -0.3597  0.5477 -0.0572
   75SLPC   C25 6711   2.863   3.826   5.553 -0.3793  0.6531 -0.5593
   75SLPC   H5R 6712   2.799   3.736   5.540  0.2241  0.0311  0.6330
   75SLPC   H5S 6713   2.967   3.790   5.548 -0.6669 -0.7156  1.8554
   75SLPC   C26 6714   2.837   3.904   5.427  0.1141 -0.0171  0.4874
   75SLPC   H6R 6715   2.899   3.994   5.411 -3.1435  2.6665  1.8945
   75SLPC   H6S 6716   2.735   3.945   5.441 -0.7988 -1.3338 -1.7098
   75SLPC   C27 6717   2.844   3.813   5.300 -0.5493 -0.8310 -0.4008
   75SLPC   H7R 6718   2.796   3.718   5.333  0.5694 -1.5470 -0.7860
   75SLPC   H7S 6719   2.949   3.786   5.277  0.1148  1.2518 -0.0077
   75SLPC   C28 6720   2.777   3.874   5.176 -0.5618 -0.1837  0.2958
   75SLPC   H8R 6721   2.674   3.904   5.205 -0.8281 -0.0769 -0.7234
   75SLPC   H8S 6722   2.784   3.790   5.104 -1.1858  1.0204 -1.2173
   75SLPC   C29 6723   2.861   3.993   5.124  0.5139 -0.6106  0.4668
   75SLPC   H9R 6724   2.856   4.081   5.189 -3.7453 -0.6117  0.3711
   75SLPC  C210 6725   2.922   4.000   5.008  0.1014  0.1616  0.6812
   75SLPC  H10R 6726   2.970   4.097   4.988 -1.2242  0.9679  1.2966
   75SLPC  C211 6727   2.926   3.894   4.899  0.1410 -0.7368 -0.1225
   75SLPC  H11R 6728   2.970   3.796   4.928  0.2022 -0.4196  0.9208
   75SLPC  H11S 6729   2.991   3.922   4.814 -0.5323 -1.9304 -1.0604
   75SLPC  C212 6730   2.788   3.860   4.839 -0.2524  0.3073  0.5575
   75SLPC  H12R 6731   2.737   3.774   4.886  2.1684 -1.9676 -0.7492
   75SLPC  C213 6732   2.726   3.926   4.739 -0.2472  0.2585  0.4833
   75SLPC  H13R 6733   2.637   3.899   4.681  0.3895  1.7597 -1.3110
   75SLPC  C214 6734   2.777   4.048   4.680 -0.2218 -1.1403  0.4716
   75SLPC  H14R 6735   2.758   4.049   4.571 -2.6235  0.3138  0.8100
   75SLPC  H14S 6736   2.884   4.075   4.695 -0.8464  1.0312  1.4334
   75SLPC  C215 6737   2.699   4.171   4.744 -0.6262 -0.3084 -0.1614
   75SLPC  H15R 6738   2.739   4.180   4.847  2.4766 -1.6760 -1.1169
   75SLPC  H15S 6739   2.589   4.161   4.758 -0.7457  2.0466  1.0593
   75SLPC  C216 6740   2.722   4.297   4.661 -0.1153  0.3809 -0.3608
   75SLPC  H16R 6741   2.686   4.289   4.556  1.6771 -0.1069 -0.9723
   75SLPC  H16S 6742   2.830   4.318   4.646  0.2016 -0.4276  0.7231
   75SLPC  C217 6743   2.675   4.417   4.739  0.3804  0.3241 -0.3569
   75SLPC  H17R 6744   2.704   4.392   4.844  2.4143  2.0439 -0.4426
   75SLPC  H17S 6745   2.565   4.427   4.729  0.4466 -0.1049 -1.7096
   75SLPC  C218 6746   2.744   4.550   4.696  0.4767 -0.9348 -0.0413
   75SLPC  H18R 6747   2.724   4.641   4.756 -1.7623  0.0259 -2.1089
   75SLPC  H18S 6748   2.709   4.567   4.592  1.5039 -1.2203 -0.4371
   75SLPC  H18T 6749   2.852   4.525   4.687  0.4963 -0.6996 -0.4489
   75SLPC   C33 6750   2.385   3.758   5.815  0.2819 -0.0824 -0.0068
   75SLPC   H3X 6751   2.455   3.844   5.808  0.3778 -0.2175 -0.7955
   75SLPC   H3Y 6752   2.282   3.777   5.851 -0.5263 -3.0790 -0.4546
   75SLPC   C34 6753   2.362   3.690   5.681  0.2150 -0.0537  0.3353
   75SLPC   H4X 6754   2.299   3.766   5.629  1.2574  1.7294  1.5889
   75SLPC   H4Y 6755   2.309   3.593   5.697  0.3056 -0.7394 -2.8424
   75SLPC   C35 6756   2.493   3.684   5.596  0.8025  1.0608  0.4925
   75SLPC   H5X 6757   2.559   3.609   5.644  0.1437 -1.1036 -1.7710
   75SLPC   H5Y 6758   2.535   3.786   5.606  1.9173  0.7527 -0.7759
   75SLPC   C36 6759   2.457   3.651   5.450 -0.0462 -0.0430 -0.6648
   75SLPC   H6X 6760   2.409   3.550   5.454  1.7210 -1.0129 -2.1457
   75SLPC   H6Y 6761   2.554   3.641   5.396  0.3428  1.3554 -0.2620
   75SLPC   C37 6762   2.376   3.757   5.376 -0.2521 -0.5953 -0.2127
   75SLPC   H7X 6763   2.421   3.857   5.388 -1.2173 -0.1327 -0.3614
   75SLPC   H7Y 6764   2.267   3.763   5.399 -0.4655  1.1939 -1.4504
   75SLPC   C38 6765   2.382   3.744   5.220 -0.0165 -1.0221  0.2626
   75SLPC   H8X 6766   2.490   3.755   5.196 -0.5262  0.3774 -1.6586
   75SLPC   H8Y 6767   2.324   3.827   5.173  0.8666 -0.7828 -0.4205
   75SLPC   C39 6768   2.329   3.613   5.176 -0.5716 -0.2445 -1.0107
   75SLPC   H9X 6769   2.228   3.608   5.221  0.2640  0.0055  0.9798
   75SLPC   H9Y 6770   2.392   3.533   5.220 -1.5050  0.4788  1.8954
   75SLPC  C310 6771   2.303   3.592   5.027  0.2526 -0.0356 -0.0832
   75SLPC  H10X 6772   2.240   3.681   5.003  2.2873  0.7323 -2.9962
   75SLPC  H10Y 6773   2.248   3.498   5.006  1.7805 -0.6132 -1.6749
   75SLPC  C311 6774   2.419   3.603   4.924  0.2512  0.6398 -0.0705
   75SLPC  H11X 6775   2.489   3.519   4.939 -0.0402  0.1580 -1.2444
   75SLPC  H11Y 6776   2.467   3.698   4.953 -0.7640  1.0356  0.3642
   75SLPC  C312 6777   2.359   3.606   4.783  0.5061 -0.3805  0.7853
   75SLPC  H12X 6778   2.296   3.696   4.778 -1.4811 -1.7691 -0.4826
   75SLPC  H12Y 6779   2.297   3.517   4.761  0.6444 -0.1669 -0.5363
   75SLPC  C313 6780   2.465   3.616   4.668  0.0843 -0.4268 -0.5276
   75SLPC  H13X 6781   2.516   3.520   4.646 -1.7972 -1.4196 -0.7721
   75SLPC  H13Y 6782   2.542   3.693   4.689  0.4143 -0.7774 -0.4277
   75SLPC  C314 6783   2.404   3.652   4.533  0.4893 -0.2576  0.2765
   75SLPC  H14X 6784   2.326   3.579   4.504 -0.7131  0.7941  0.7853
   75SLPC  H14Y 6785   2.492   3.651   4.464  0.9980 -1.7614  0.9039
   75SLPC  C315 6786   2.343   3.793   4.521 -0.3852 -0.2658  0.4905
   75SLPC  H15X 6787   2.410   3.869   4.568 -2.0985  1.0970  0.8328
   75SLPC  H15Y 6788   2.241   3.799   4.563 -1.2232  0.8499 -1.5787
   75SLPC  C316 6789   2.332   3.856   4.377  0.8412 -0.0961  0.7786
   75SLPC  H16X 6790   2.428   3.904   4.347  1.3489  0.2364  2.8115
   75SLPC  H16Y 6791   2.250   3.930   4.393 -0.5673 -1.5286  0.4613
   75SLPC  C317 6792   2.270   3.766   4.266 -0.2404  1.4040 -0.4469
   75SLPC  H17X 6793   2.174   3.727   4.306  0.1859  0.0187 -0.7222
   75SLPC  H17Y 6794   2.344   3.683   4.262  0.0170  1.6096 -0.0095
   75SLPC  C318 6795   2.261   3.817   4.125  0.0625 -0.6215  0.0238
   75SLPC  H18X 6796   2.197   3.908   4.131  0.8491  0.1784 -2.4989
   75SLPC  H18Y 6797   2.218   3.748   4.050 -0.9925  1.3941 -1.3373
   75SLPC  H18Z 6798   2.358   3.851   4.083 -0.3578  1.2358  0.4295
   76SLPC     N 6799   5.215   2.353   6.680 -0.3530 -0.4247 -0.5826
   76SLPC   C13 6800   5.153   2.238   6.748 -0.7602 -0.5520 -0.1026
   76SLPC  H13A 6801   5.055   2.261   6.789  0.0145 -1.5891  2.5305
   76SLPC  H13B 6802   5.135   2.155   6.681 -0.3661 -2.7119  2.3321
   76SLPC  H13C 6803   5.219   2.207   6.827  1.0758  1.9811 -0.5187
   76SLPC   C14 6804   5.353   2.322   6.637  0.3431 -0.1537  0.5144
   76SLPC  H14A 6805   5.344   2.240   6.567 -1.5188 -1.5938  2.3035
   76SLPC  H14B 6806   5.391   2.406   6.581 -1.2280  0.5458  0.4293
   76SLPC  H14C 6807   5.422   2.299   6.717  0.3143  1.0102  0.8929
   76SLPC   C15 6808   5.224   2.457   6.782  0.0117 -0.6649  0.0669
   76SLPC  H15A 6809   5.301   2.432   6.854 -0.1829 -2.9506 -0.4690
   76SLPC  H15B 6810   5.232   2.556   6.739 -1.2446 -0.7123 -0.2907
   76SLPC  H15C 6811   5.129   2.457   6.833  0.6091 -1.7176  1.2392
   76SLPC   C12 6812   5.125   2.414   6.571  0.3720 -0.2633  0.2169
   76SLPC  H12A 6813   5.174   2.503   6.533 -1.7556  1.7561  1.9039
   76SLPC  H12B 6814   5.035   2.451   6.618 -0.2730 -3.7732  2.0895
   76SLPC   C11 6815   5.091   2.338   6.445  0.0781  0.9322 -0.3153
   76SLPC  H11A 6816   5.186   2.326   6.390 -0.3343  2.6829 -1.5162
   76SLPC  H11B 6817   5.026   2.401   6.380 -3.6603  1.0732  3.1810
   76SLPC     P 6818   4.894   2.179   6.526  0.1721  0.0361 -0.1024
   76SLPC   O13 6819   4.914   2.090   6.643 -0.2188 -0.2349 -0.7629
   76SLPC   O14 6820   4.822   2.307   6.554 -0.1641 -0.1629  0.1844
   76SLPC   O12 6821   5.039   2.207   6.469  0.0731 -0.0244 -0.6826
   76SLPC   O11 6822   4.820   2.093   6.417  0.3318 -0.1186 -0.0266
   76SLPC    C1 6823   4.765   2.138   6.295  0.9076 -0.1429  0.1473
   76SLPC    HA 6824   4.669   2.082   6.282  0.2798  0.9036  0.2141
   76SLPC    HB 6825   4.735   2.243   6.311 -4.1423 -1.4095  0.7322
   76SLPC    C2 6826   4.856   2.118   6.172 -0.0452 -0.3393  0.0194
   76SLPC    HS 6827   4.930   2.200   6.179  0.8669 -1.1664  0.2858
   76SLPC   O21 6828   4.767   2.124   6.060  0.1054  0.0111 -0.0888
   76SLPC   C21 6829   4.798   2.226   5.981  0.6241 -0.2634 -0.3980
   76SLPC   O22 6830   4.869   2.322   6.001 -0.5050  0.2610  0.0827
   76SLPC   C22 6831   4.730   2.198   5.844  0.1288  0.4259 -0.3043
   76SLPC   H2R 6832   4.724   2.087   5.841 -1.6956  0.4787 -0.0299
   76SLPC   H2S 6833   4.624   2.233   5.848 -0.4788 -1.3407  0.2328
   76SLPC    C3 6834   4.947   1.993   6.171 -0.5495 -0.0689 -0.1923
   76SLPC    HX 6835   4.881   1.904   6.160  0.3093 -0.4622 -3.0105
   76SLPC    HY 6836   5.001   1.983   6.267  1.7575  0.2521 -1.3814
   76SLPC   O31 6837   5.024   1.990   6.055  0.2009 -0.0659 -0.0055
   76SLPC   C31 6838   5.149   2.037   6.068  0.1653  0.6703 -0.1565
   76SLPC   O32 6839   5.197   2.076   6.170 -0.2411  0.0153  0.4044
   76SLPC   C32 6840   5.214   2.046   5.930 -0.0551  0.1338 -0.0225
   76SLPC   H2X 6841   5.234   1.942   5.896  0.8703 -0.5834  2.4624
   76SLPC   H2Y 6842   5.316   2.091   5.933  1.1189 -2.3128 -0.5116
   76SLPC   C23 6843   4.806   2.266   5.732  0.5231  0.7587  0.8363
   76SLPC   H3R 6844   4.913   2.252   5.756  0.9596  0.1132 -1.2517
   76SLPC   H3S 6845   4.794   2.377   5.734  3.0429  1.0895  0.4425
   76SLPC   C24 6846   4.772   2.204   5.595 -0.5919  0.8340 -0.1688
   76SLPC   H4R 6847   4.661   2.195   5.592 -0.6720 -1.3351  2.9524
   76SLPC   H4S 6848   4.812   2.101   5.579 -0.5136  0.9084 -0.4451
   76SLPC   C25 6849   4.821   2.303   5.493 -0.2376  0.1437 -0.3410
   76SLPC   H5R 6850   4.929   2.319   5.509 -0.3383  0.2726  0.2350
   76SLPC   H5S 6851   4.778   2.405   5.507  0.2903  0.3640 -0.2901
   76SLPC   C26 6852   4.806   2.260   5.349  0.5977  0.3413  0.0986
   76SLPC   H6R 6853   4.833   2.341   5.278 -4.3652 -0.2751 -3.0183
   76SLPC   H6S 6854   4.700   2.245   5.320  0.3740 -0.1269  1.1009
   76SLPC   C27 6855   4.883   2.137   5.304  0.1210  0.3622  0.2167
   76SLPC   H7R 6856   4.855   2.051   5.369  0.7725 -0.3338 -0.4051
   76SLPC   H7S 6857   4.991   2.159   5.318 -0.1200  1.0700  1.0255
   76SLPC   C28 6858   4.857   2.093   5.158  0.5072 -0.1270  0.9026
   76SLPC   H8R 6859   4.747   2.074   5.155  0.7842 -1.7939  0.3727
   76SLPC   H8S 6860   4.924   2.007   5.135  2.0385  1.4042 -0.6974
   76SLPC   C29 6861   4.890   2.194   5.052  0.3657 -0.5646  0.6138
   76SLPC   H9R 6862   4.990   2.240   5.056  0.7108 -1.2239 -0.0769
   76SLPC  C210 6863   4.813   2.232   4.948 -0.1070 -0.2275  0.0004
   76SLPC  H10R 6864   4.862   2.306   4.884  1.5979 -1.4149 -0.1387
   76SLPC  C211 6865   4.681   2.170   4.910 -0.5397 -0.3334  0.3903
   76SLPC  H11R 6866   4.598   2.219   4.966  0.5269  3.5646 -1.1039
   76SLPC  H11S 6867   4.681   2.062   4.934  1.5114 -0.6287 -0.7178
   76SLPC  C212 6868   4.668   2.182   4.751  0.1122  0.8300  0.1638
   76SLPC  H12R 6869   4.653   2.285   4.714  0.3361 -0.0522 -2.6155
   76SLPC  C213 6870   4.655   2.078   4.668 -0.2412 -0.7337  0.6613
   76SLPC  H13R 6871   4.636   2.104   4.563  0.2614 -0.5903  0.6069
   76SLPC  C214 6872   4.668   1.933   4.692 -0.1559 -0.2052 -0.0773
   76SLPC  H14R 6873   4.574   1.875   4.689 -0.4698  0.2752  0.2288
   76SLPC  H14S 6874   4.712   1.910   4.792 -2.3263 -0.6599  0.8148
   76SLPC  C215 6875   4.755   1.872   4.580 -0.1066  1.3811 -0.7478
   76SLPC  H15R 6876   4.718   1.884   4.476  1.5414  0.3439 -1.4879
   76SLPC  H15S 6877   4.755   1.762   4.594 -0.4150  1.4832  0.1292
   76SLPC  C216 6878   4.897   1.914   4.594 -0.3964  0.2269 -0.4196
   76SLPC  H16R 6879   4.931   1.885   4.696 -0.8940 -0.2611 -0.3930
   76SLPC  H16S 6880   4.909   2.024   4.600 -0.0456  0.2340 -1.1262
   76SLPC  C217 6881   4.991   1.860   4.495 -0.2337  0.5096  0.5656
   76SLPC  H17R 6882   4.971   1.756   4.462 -1.9699  1.0975 -0.3696
   76SLPC  H17S 6883   5.088   1.867   4.549 -0.0594  1.1135  0.1908
   76SLPC  C218 6884   5.010   1.952   4.368 -0.4715 -0.1329  0.1401
   76SLPC  H18R 6885   5.094   1.918   4.303  0.7537  2.1537  0.4321
   76SLPC  H18S 6886   5.041   2.055   4.396  0.3679  0.4327 -2.5432
   76SLPC  H18T 6887   4.919   1.965   4.306 -0.5106 -0.2816  0.1642
   76SLPC   C33 6888   5.134   2.107   5.818  0.1199  0.1683 -0.5381
   76SLPC   H3X 6889   5.109   2.207   5.859 -1.2639 -0.1911 -0.4701
   76SLPC   H3Y 6890   5.038   2.051   5.812  1.0747 -1.6951  0.4503
   76SLPC   C34 6891   5.202   2.103   5.683  0.4626  0.4297  0.1594
   76SLPC   H4X 6892   5.127   2.137   5.609 -0.5063 -1.0675  0.4243
   76SLPC   H4Y 6893   5.221   1.997   5.654  0.5787  1.0385 -2.2177
   76SLPC   C35 6894   5.343   2.173   5.674  0.0466  0.6528  0.3281
   76SLPC   H5X 6895   5.399   2.141   5.765  1.2708  3.1242  0.5241
   76SLPC   H5Y 6896   5.340   2.284   5.672 -1.7101  0.6228 -0.3583
   76SLPC   C36 6897   5.430   2.130   5.549  0.4325 -0.5170  0.0155
   76SLPC   H6X 6898   5.447   2.020   5.552 -2.4151 -1.0185 -0.1786
   76SLPC   H6Y 6899   5.530   2.178   5.558  0.2680 -0.3346  0.9753
   76SLPC   C37 6900   5.354   2.160   5.416  0.5972 -0.2259 -0.3742
   76SLPC   H7X 6901   5.324   2.266   5.418  2.5968  0.3810 -0.2638
   76SLPC   H7Y 6902   5.267   2.090   5.419 -0.4265  0.9395 -1.6229
   76SLPC   C38 6903   5.448   2.139   5.298 -0.3633 -0.2869  0.1292
   76SLPC   H8X 6904   5.491   2.036   5.298 -2.1776 -1.1075 -1.5435
   76SLPC   H8Y 6905   5.534   2.208   5.312 -1.5620  0.7961  2.9437
   76SLPC   C39 6906   5.372   2.152   5.163  0.4096 -0.3559  0.5746
   76SLPC   H9X 6907   5.277   2.093   5.162  0.0545  0.0994  2.5808
   76SLPC   H9Y 6908   5.435   2.113   5.081  0.2765  0.3187  0.1499
   76SLPC  C310 6909   5.338   2.296   5.119 -0.4534  0.2168  0.5490
   76SLPC  H10X 6910   5.428   2.358   5.100 -1.3980  1.0592 -1.4840
   76SLPC  H10Y 6911   5.274   2.345   5.195 -0.4423  0.7233  0.2392
   76SLPC  C311 6912   5.261   2.300   4.983 -0.3790  0.1659 -0.2467
   76SLPC  H11X 6913   5.195   2.211   4.989  0.1163 -0.1520  0.6232
   76SLPC  H11Y 6914   5.333   2.274   4.903  0.1566 -0.7462  0.5134
   76SLPC  C312 6915   5.188   2.429   4.954  0.1414 -0.0678  0.6363
   76SLPC  H12X 6916   5.242   2.511   5.006 -1.6179 -0.7372  3.7541
   76SLPC  H12Y 6917   5.086   2.423   4.998 -0.0206  0.2406  0.3096
   76SLPC  C313 6918   5.179   2.477   4.805  0.3253  0.0239 -0.3499
   76SLPC  H13X 6919   5.275   2.512   4.761 -0.7198  0.7527 -2.1776
   76SLPC  H13Y 6920   5.110   2.564   4.796 -0.8790 -0.8648  0.0194
   76SLPC  C314 6921   5.113   2.371   4.708 -0.7964 -0.4255 -0.3536
   76SLPC  H14X 6922   5.027   2.328   4.762 -0.8567  0.2859  0.1335
   76SLPC  H14Y 6923   5.194   2.297   4.693  0.4438  0.4019  1.7472
   76SLPC  C315 6924   5.053   2.437   4.586  0.2713 -0.2515  0.2094
   76SLPC  H15X 6925   5.129   2.484   4.520  0.1419 -0.6883 -0.2554
   76SLPC  H15Y 6926   4.994   2.523   4.625  0.9419  0.0393  0.6031
   76SLPC  C316 6927   4.955   2.334   4.518  0.5340 -0.1923  0.0894
   76SLPC  H16X 6928   4.908   2.266   4.591  1.5582 -1.9414 -0.8275
   76SLPC  H16Y 6929   5.010   2.263   4.453  0.0491 -0.5737  0.0940
   76SLPC  C317 6930   4.866   2.418   4.425  0.8637  0.6017 -0.3545
   76SLPC  H17X 6931   4.925   2.499   4.377  0.3750  0.7109 -0.7729
   76SLPC  H17Y 6932   4.789   2.473   4.484  0.7376 -0.3175  0.3647
   76SLPC  C318 6933   4.803   2.319   4.321  0.8809 -0.5293  0.6031
   76SLPC  H18X 6934   4.879   2.283   4.248  0.3702  0.7970 -0.6432
   76SLPC  H18Y 6935   4.735   2.372   4.250 -3.2374 -1.8759  3.1480
   76SLPC  H18Z 6936   4.759   2.229   4.369 -0.4676  0.0939  0.5991
   77SLPC     N 6937   4.425   2.061   6.603  0.5912 -1.1531  0.6934
   77SLPC   C13 6938   4.507   2.178   6.635  0.5632  0.0256 -0.2669
   77SLPC  H13A 6939   4.507   2.249   6.554  1.7553 -0.6659 -0.8875
   77SLPC  H13B 6940   4.463   2.227   6.720  2.6490  0.3123  0.6999
   77SLPC  H13C 6941   4.611   2.163   6.657  0.2288 -0.5126  1.0280
   77SLPC   C14 6942   4.325   2.099   6.492  0.3690 -0.0484  0.2829
   77SLPC  H14A 6943   4.249   2.023   6.482 -0.8228  0.4767  3.7587
   77SLPC  H14B 6944   4.270   2.183   6.533 -0.9435 -1.9738  2.8368
   77SLPC  H14C 6945   4.379   2.123   6.402 -2.2456  0.2275 -1.3145
   77SLPC   C15 6946   4.351   2.020   6.726  0.0933  1.0848  0.8603
   77SLPC  H15A 6947   4.421   2.000   6.805  1.9790  1.1512 -0.7248
   77SLPC  H15B 6948   4.278   2.086   6.770 -0.7164  0.5758  0.3111
   77SLPC  H15C 6949   4.307   1.927   6.693  1.6526  0.1683  1.2590
   77SLPC   C12 6950   4.517   1.954   6.549  0.5165  0.1359 -0.0059
   77SLPC  H12A 6951   4.570   2.002   6.469 -1.1891  2.3257  0.1111
   77SLPC  H12B 6952   4.463   1.868   6.514 -0.8112  0.5813  0.8805
   77SLPC   C11 6953   4.614   1.886   6.649 -0.3515  0.0243  0.4696
   77SLPC  H11A 6954   4.693   1.951   6.692 -1.8013  1.9698  0.3399
   77SLPC  H11B 6955   4.686   1.829   6.588 -0.5361  1.2322 -0.9265
   77SLPC     P 6956   4.483   1.673   6.708  0.2589 -0.3647  0.3390
   77SLPC   O13 6957   4.561   1.555   6.743 -0.2576 -0.1918 -0.0849
   77SLPC   O14 6958   4.355   1.680   6.775  0.4440 -0.2638 -0.5877
   77SLPC   O12 6959   4.562   1.807   6.754  0.0096  0.4257 -0.0799
   77SLPC   O11 6960   4.469   1.695   6.550 -0.0156  0.0909  0.3247
   77SLPC    C1 6961   4.384   1.610   6.464 -0.5613 -0.6866  0.5518
   77SLPC    HA 6962   4.425   1.507   6.475  0.8670  0.1391  4.2825
   77SLPC    HB 6963   4.281   1.597   6.501 -0.9684 -1.1965 -0.6908
   77SLPC    C2 6964   4.384   1.648   6.313 -0.8642  0.5270 -0.9212
   77SLPC    HS 6965   4.347   1.570   6.243 -0.3863 -0.8313  0.3064
   77SLPC   O21 6966   4.513   1.680   6.274 -0.2260 -0.5485 -0.3482
   77SLPC   C21 6967   4.593   1.573   6.258  0.1389 -0.6703 -0.2411
   77SLPC   O22 6968   4.549   1.456   6.253  0.2415  0.7498  0.0658
   77SLPC   C22 6969   4.737   1.618   6.246  0.4983 -0.2480 -0.7636
   77SLPC   H2R 6970   4.738   1.725   6.216  0.4689  0.0281  0.1843
   77SLPC   H2S 6971   4.768   1.616   6.353 -4.8725 -0.2128  1.0918
   77SLPC    C3 6972   4.285   1.765   6.276 -0.2879  0.1741 -0.4763
   77SLPC    HX 6973   4.289   1.848   6.351 -0.9815  1.8599 -2.2203
   77SLPC    HY 6974   4.181   1.726   6.280  0.8238 -3.1557 -0.6592
   77SLPC   O31 6975   4.305   1.821   6.147 -0.0699  0.0987  0.8135
   77SLPC   C31 6976   4.405   1.913   6.131  0.1637  0.1554  0.6986
   77SLPC   O32 6977   4.462   1.965   6.224 -0.4728 -0.1884  0.0107
   77SLPC   C32 6978   4.412   1.953   5.976  0.5315 -0.2494  0.3502
   77SLPC   H2X 6979   4.455   2.056   5.977 -2.1081  1.0077 -1.4197
   77SLPC   H2Y 6980   4.304   1.963   5.950  0.2463  1.2828  1.8964
   77SLPC   C23 6981   4.827   1.535   6.150  1.5134 -0.1015  0.4783
   77SLPC   H3R 6982   4.832   1.428   6.177 -1.2111 -0.6029 -0.7096
   77SLPC   H3S 6983   4.925   1.584   6.169  0.6592  2.2984 -0.8678
   77SLPC   C24 6984   4.792   1.559   6.002 -0.1235 -0.4493  0.5412
   77SLPC   H4R 6985   4.682   1.561   5.989 -0.1547  2.5642  0.6175
   77SLPC   H4S 6986   4.832   1.472   5.945  0.0115  0.2779 -0.5066
   77SLPC   C25 6987   4.846   1.691   5.955  0.2078  0.4116  0.2645
   77SLPC   H5R 6988   4.943   1.719   6.001  0.8010 -1.0950  0.0054
   77SLPC   H5S 6989   4.775   1.772   5.980 -0.2379 -0.1899  0.9796
   77SLPC   C26 6990   4.856   1.684   5.802  0.0768  0.3260 -0.6735
   77SLPC   H6R 6991   4.764   1.651   5.750  0.6642  1.3198 -2.4011
   77SLPC   H6S 6992   4.932   1.610   5.772 -0.2557  0.1011 -0.9667
   77SLPC   C27 6993   4.902   1.822   5.745  0.0686 -0.5863  0.9002
   77SLPC   H7R 6994   5.000   1.855   5.786  1.0838 -2.1727 -0.1869
   77SLPC   H7S 6995   4.831   1.905   5.767 -0.8074 -1.7025  2.5082
   77SLPC   C28 6996   4.919   1.820   5.591  1.0012 -0.5751 -0.6624
   77SLPC   H8R 6997   4.958   1.911   5.542  0.0280  0.8192  1.0312
   77SLPC   H8S 6998   4.820   1.799   5.545  1.1165 -0.9057 -0.7685
   77SLPC   C29 6999   5.010   1.708   5.554 -0.0294 -0.7186 -0.2863
   77SLPC   H9R 7000   5.092   1.681   5.622 -0.9863 -0.8639  0.8436
   77SLPC  C210 7001   4.996   1.635   5.441  0.4517 -0.2791  0.2359
   77SLPC  H10R 7002   5.072   1.558   5.420  0.2020 -0.7142  0.8867
   77SLPC  C211 7003   4.907   1.650   5.323 -0.1244 -0.0227  1.0018
   77SLPC  H11R 7004   4.843   1.740   5.336 -1.7640 -0.8515 -0.8301
   77SLPC  H11S 7005   4.827   1.572   5.318 -0.8980  0.6865  1.9111
   77SLPC  C212 7006   4.974   1.666   5.187  0.9084 -0.3864  0.2314
   77SLPC  H12R 7007   5.081   1.688   5.194  0.6125  1.3704 -0.2776
   77SLPC  C213 7008   4.928   1.627   5.065 -0.2031  0.4051  0.5081
   77SLPC  H13R 7009   4.994   1.653   4.981  2.4545  0.2014  2.3860
   77SLPC  C214 7010   4.800   1.560   5.020 -0.5859 -0.2399 -0.1851
   77SLPC  H14R 7011   4.738   1.630   4.961 -2.3568 -0.8119  0.9107
   77SLPC  H14S 7012   4.736   1.538   5.108  0.2695  2.5889  1.2771
   77SLPC  C215 7013   4.836   1.439   4.932 -0.0321 -0.2575 -0.5802
   77SLPC  H15R 7014   4.747   1.381   4.898  0.9131 -0.3002 -3.1432
   77SLPC  H15S 7015   4.907   1.375   4.987  1.7460 -0.6608 -3.1870
   77SLPC  C216 7016   4.893   1.488   4.797  0.8083 -0.2859 -0.0621
   77SLPC  H16R 7017   5.004   1.482   4.793  0.8379 -0.1892  0.4790
   77SLPC  H16S 7018   4.857   1.591   4.777 -1.7664 -0.6224  2.2653
   77SLPC  C217 7019   4.852   1.397   4.675  0.1581 -0.0022 -0.3000
   77SLPC  H17R 7020   4.741   1.405   4.671 -0.0316 -2.1071 -3.7198
   77SLPC  H17S 7021   4.885   1.292   4.690  3.2668  0.6655 -1.7442
   77SLPC  C218 7022   4.901   1.454   4.546  0.2910  0.0961 -0.1081
   77SLPC  H18R 7023   4.886   1.564   4.549 -2.1162 -0.1250 -1.4421
   77SLPC  H18S 7024   4.843   1.406   4.465 -3.5561 -1.0015  2.9948
   77SLPC  H18T 7025   5.010   1.433   4.540  0.0369 -2.5809  2.4682
   77SLPC   C33 7026   4.490   1.862   5.882  0.3277 -0.4431 -1.2896
   77SLPC   H3X 7027   4.442   1.762   5.891 -1.8397  0.6964  0.9728
   77SLPC   H3Y 7028   4.598   1.860   5.909 -0.4847  0.7490  2.5847
   77SLPC   C34 7029   4.457   1.916   5.745 -0.0537  0.0475  0.6820
   77SLPC   H4X 7030   4.507   2.013   5.727  3.1134 -1.7459 -1.0911
   77SLPC   H4Y 7031   4.348   1.928   5.725  0.0291 -0.7242 -0.3575
   77SLPC   C35 7032   4.512   1.813   5.644  0.3550 -0.3658  0.9882
   77SLPC   H5X 7033   4.461   1.718   5.672 -0.5956 -1.0863 -2.6490
   77SLPC   H5Y 7034   4.620   1.807   5.670  0.4142 -0.4764  0.7231
   77SLPC   C36 7035   4.470   1.857   5.506  0.2680 -0.0951  0.5772
   77SLPC   H6X 7036   4.507   1.962   5.494  0.3858 -0.1234  0.6853
   77SLPC   H6Y 7037   4.360   1.871   5.502  0.2486  0.1711  1.6794
   77SLPC   C37 7038   4.518   1.767   5.394  0.1645 -0.9741  0.8681
   77SLPC   H7X 7039   4.458   1.675   5.410 -1.6192  0.3108  1.8763
   77SLPC   H7Y 7040   4.628   1.751   5.401  0.6111  1.2291 -0.2318
   77SLPC   C38 7041   4.482   1.822   5.256  0.0469  0.1349 -0.1801
   77SLPC   H8X 7042   4.525   1.924   5.245  0.4363  0.1267  1.1566
   77SLPC   H8Y 7043   4.372   1.821   5.242 -0.2693  0.0933  2.0041
   77SLPC   C39 7044   4.543   1.741   5.140  0.1651 -0.2335  0.1811
   77SLPC   H9X 7045   4.521   1.632   5.138  2.2892 -0.7041 -0.0848
   77SLPC   H9Y 7046   4.654   1.734   5.150  0.0660 -0.4722  1.2097
   77SLPC  C310 7047   4.500   1.805   5.002 -0.1153 -0.3196 -0.9473
   77SLPC  H10X 7048   4.595   1.808   4.944 -0.1709 -2.6977 -1.2762
   77SLPC  H10Y 7049   4.460   1.906   5.022  1.0222 -0.0827  0.3051
   77SLPC  C311 7050   4.388   1.723   4.923 -0.6768 -0.3512 -0.7242
   77SLPC  H11X 7051   4.362   1.788   4.837  0.9815 -0.4187 -1.3108
   77SLPC  H11Y 7052   4.309   1.726   5.001 -0.6196 -1.9687 -0.5765
   77SLPC  C312 7053   4.423   1.582   4.880  0.2483 -0.2874  0.1104
   77SLPC  H12X 7054   4.321   1.538   4.873 -0.7255  1.5948  1.4893
   77SLPC  H12Y 7055   4.477   1.522   4.957  1.0080 -1.1142 -1.0253
   77SLPC  C313 7056   4.491   1.572   4.738  0.1279  0.2152  0.9278
   77SLPC  H13X 7057   4.516   1.465   4.723  1.6220  0.8769 -1.8179
   77SLPC  H13Y 7058   4.587   1.627   4.736  0.0958  0.4806  3.4070
   77SLPC  C314 7059   4.399   1.599   4.615  0.2569 -0.1828  0.2130
   77SLPC  H14X 7060   4.353   1.700   4.630  0.7189  0.1207 -0.4027
   77SLPC  H14Y 7061   4.314   1.531   4.636  1.2002 -0.8533  2.0694
   77SLPC  C315 7062   4.470   1.606   4.477 -0.6010  0.6919  0.8717
   77SLPC  H15X 7063   4.520   1.511   4.448 -1.2759  1.1015 -1.8730
   77SLPC  H15Y 7064   4.553   1.681   4.477 -1.3698  1.8332 -3.6008
   77SLPC  C316 7065   4.371   1.665   4.375 -0.0699  0.2762 -0.2956
   77SLPC  H16X 7066   4.331   1.764   4.406 -1.6460  0.5331 -2.8789
   77SLPC  H16Y 7067   4.278   1.604   4.377  0.1804 -0.1023  0.9121
   77SLPC  C317 7068   4.413   1.680   4.231 -0.2255 -0.4223 -0.5110
   77SLPC  H17X 7069   4.322   1.710   4.174 -1.5230  0.8001  2.0462
   77SLPC  H17Y 7070   4.452   1.579   4.205 -1.1483 -2.1159  3.7318
   77SLPC  C318 7071   4.523   1.774   4.191  0.3433 -0.3843 -0.5718
   77SLPC  H18X 7072   4.497   1.878   4.220  0.8406 -0.5721  0.5969
   77SLPC  H18Y 7073   4.543   1.777   4.082 -0.0541  1.3435 -0.6188
   77SLPC  H18Z 7074   4.620   1.759   4.243  0.0742  0.5166  0.2073
   78SLPC     N 7075   1.520   0.466   6.731 -0.5312 -0.5587 -0.5963
   78SLPC   C13 7076   1.439   0.401   6.626 -0.3051 -0.6416 -0.3308
   78SLPC  H13A 7077   1.341   0.442   6.611 -0.0365 -0.1307 -0.7092
   78SLPC  H13B 7078   1.477   0.410   6.525 -2.1638  0.2288 -1.0016
   78SLPC  H13C 7079   1.437   0.296   6.650 -2.4127 -0.6386 -0.3913
   78SLPC   C14 7080   1.554   0.606   6.691  0.3779  0.2366 -0.1731
   78SLPC  H14A 7081   1.631   0.647   6.755 -0.3005  1.2566  0.0009
   78SLPC  H14B 7082   1.589   0.614   6.589 -1.9643  0.2008 -1.0381
   78SLPC  H14C 7083   1.473   0.676   6.702  0.1505  0.2192 -1.5637
   78SLPC   C15 7084   1.646   0.385   6.735 -0.5384  0.2401  0.4206
   78SLPC  H15A 7085   1.619   0.280   6.740  1.7223 -0.4242 -0.0513
   78SLPC  H15B 7086   1.695   0.383   6.638 -0.4776 -1.7808  0.4474
   78SLPC  H15C 7087   1.722   0.410   6.806  0.1913 -1.1707  0.1747
   78SLPC   C12 7088   1.450   0.460   6.868  0.2543  0.4398 -0.1285
   78SLPC  H12A 7089   1.499   0.485   6.961 -3.7448 -0.8829  2.5958
   78SLPC  H12B 7090   1.432   0.354   6.877 -3.2338  0.8189 -1.0675
   78SLPC   C11 7091   1.309   0.523   6.897 -0.2083 -0.6604  0.8488
   78SLPC  H11A 7092   1.277   0.490   6.998  1.0834 -1.6574  0.9558
   78SLPC  H11B 7093   1.248   0.476   6.817  2.2783  2.6831 -3.4665
   78SLPC     P 7094   1.198   0.754   6.825 -0.0194 -0.6682  0.0629
   78SLPC   O13 7095   1.126   0.818   6.936  1.1660 -0.3729  0.1829
   78SLPC   O14 7096   1.264   0.845   6.728 -0.3542 -0.8276  0.3013
   78SLPC   O12 7097   1.314   0.664   6.881 -0.0798 -0.4461  1.2628
   78SLPC   O11 7098   1.102   0.661   6.746  0.2819 -0.2097  0.3755
   78SLPC    C1 7099   1.127   0.612   6.611 -0.7412 -0.4477 -0.3467
   78SLPC    HA 7100   1.110   0.698   6.543  0.5278 -0.4733 -0.7321
   78SLPC    HB 7101   1.235   0.589   6.598 -0.2605 -0.3373  2.6865
   78SLPC    C2 7102   1.028   0.506   6.575  0.1921 -1.0274 -0.9333
   78SLPC    HS 7103   1.061   0.401   6.596 -1.0162 -0.9619  1.7093
   78SLPC   O21 7104   0.986   0.521   6.445  0.4098  0.3591  0.3020
   78SLPC   C21 7105   1.068   0.497   6.345  0.6898  0.2867 -0.2504
   78SLPC   O22 7106   1.183   0.469   6.355 -0.0408 -0.2427 -0.0255
   78SLPC   C22 7107   0.993   0.491   6.213  0.4443 -0.3666 -0.1290
   78SLPC   H2R 7108   0.894   0.453   6.245  1.2368  0.2500  3.6354
   78SLPC   H2S 7109   0.994   0.594   6.171  0.3906  0.5474  1.9671
   78SLPC    C3 7110   0.897   0.518   6.664  0.1786  0.2851 -0.1789
   78SLPC    HX 7111   0.867   0.624   6.654  0.0682  0.2278 -0.4604
   78SLPC    HY 7112   0.913   0.501   6.773 -1.5526 -1.4128 -0.1248
   78SLPC   O31 7113   0.796   0.426   6.620  0.7103  0.5310  0.1341
   78SLPC   C31 7114   0.672   0.473   6.620 -0.4537  0.1217 -0.0879
   78SLPC   O32 7115   0.646   0.585   6.647  0.1591 -0.4730  0.3480
   78SLPC   C32 7116   0.568   0.364   6.575 -0.4176 -0.6194  0.2028
   78SLPC   H2X 7117   0.476   0.414   6.540 -1.9978 -2.6586  1.2227
   78SLPC   H2Y 7118   0.539   0.316   6.670 -0.7228  1.0773  0.9982
   78SLPC   C23 7119   1.047   0.404   6.096 -0.1087 -0.8482 -0.0077
   78SLPC   H3R 7120   1.037   0.299   6.133  0.7716  0.2878  4.0078
   78SLPC   H3S 7121   1.155   0.421   6.079 -0.2429 -1.4905 -1.6890
   78SLPC   C24 7122   0.971   0.423   5.959  0.2993  0.3671  0.0580
   78SLPC   H4R 7123   0.863   0.439   5.981 -0.1704 -0.8289 -1.2343
   78SLPC   H4S 7124   0.980   0.328   5.902  2.3257  0.2158  0.5833
   78SLPC   C25 7125   1.026   0.532   5.879  0.0292 -1.0916 -0.1019
   78SLPC   H5R 7126   1.135   0.522   5.862 -0.5156 -2.0574 -4.4619
   78SLPC   H5S 7127   1.009   0.634   5.921  0.7920 -0.6566 -0.8040
   78SLPC   C26 7128   0.957   0.535   5.740 -0.3100 -0.6079  0.5380
   78SLPC   H6R 7129   0.848   0.535   5.762 -0.7414  0.2567 -1.4038
   78SLPC   H6S 7130   0.986   0.436   5.700 -0.3329 -1.5233  2.6460
   78SLPC   C27 7131   0.993   0.656   5.646 -0.3808  0.3152  0.0835
   78SLPC   H7R 7132   0.966   0.753   5.694 -4.3552 -0.5629 -0.0213
   78SLPC   H7S 7133   0.924   0.649   5.559 -0.1894 -2.6364  0.0621
   78SLPC   C28 7134   1.145   0.644   5.598 -1.8084  0.7192  0.5609
   78SLPC   H8R 7135   1.159   0.544   5.550  1.5858  0.4852  1.7852
   78SLPC   H8S 7136   1.213   0.646   5.686 -2.3837  2.6772  1.0182
   78SLPC   C29 7137   1.184   0.747   5.494 -0.3180 -0.5715 -0.6012
   78SLPC   H9R 7138   1.175   0.852   5.524  0.3598 -0.6270 -0.1875
   78SLPC  C210 7139   1.208   0.725   5.367 -0.2536 -0.0553 -0.0167
   78SLPC  H10R 7140   1.235   0.810   5.303 -0.4010 -0.9304 -1.2894
   78SLPC  C211 7141   1.210   0.595   5.290  0.6862 -0.5219  0.7152
   78SLPC  H11R 7142   1.158   0.519   5.353  1.2557 -2.0295 -0.5584
   78SLPC  H11S 7143   1.314   0.556   5.288  0.5038 -0.9922  0.1182
   78SLPC  C212 7144   1.132   0.599   5.159 -0.1606  0.1103 -0.1711
   78SLPC  H12R 7145   1.026   0.628   5.164  0.2092  1.3726  0.9054
   78SLPC  C213 7146   1.191   0.617   5.041  0.2370 -0.6189  0.1834
   78SLPC  H13R 7147   1.134   0.602   4.948  1.9983  0.5510 -1.1333
   78SLPC  C214 7148   1.337   0.587   5.026  0.1687  0.3623 -0.2286
   78SLPC  H14R 7149   1.351   0.480   5.048  2.0310  0.7537  0.7438
   78SLPC  H14S 7150   1.400   0.623   5.110 -0.8011  1.9642 -0.1483
   78SLPC  C215 7151   1.403   0.622   4.889 -0.5092 -0.4816 -0.4216
   78SLPC  H15R 7152   1.514   0.630   4.894 -0.6377  0.3836  2.1827
   78SLPC  H15S 7153   1.380   0.731   4.882  1.2195 -0.0249  0.5238
   78SLPC  C216 7154   1.353   0.553   4.765 -0.3833  0.2636 -0.6798
   78SLPC  H16R 7155   1.380   0.617   4.678  2.1041 -0.3024 -0.4063
   78SLPC  H16S 7156   1.242   0.541   4.767 -0.4418  0.4140 -2.0863
   78SLPC  C217 7157   1.403   0.410   4.726  0.1819  0.4800 -0.1056
   78SLPC  H17R 7158   1.384   0.337   4.807 -0.8890  0.6391 -0.2035
   78SLPC  H17S 7159   1.513   0.423   4.718  0.5596 -1.3452  1.4048
   78SLPC  C218 7160   1.361   0.347   4.587  0.4208 -0.0137  0.1110
   78SLPC  H18R 7161   1.380   0.425   4.511 -1.0363  1.5044  1.2468
   78SLPC  H18S 7162   1.252   0.334   4.598  0.5037  0.1734  1.3396
   78SLPC  H18T 7163   1.411   0.248   4.576  1.4409  0.6449 -1.6283
   78SLPC   C33 7164   0.606   0.274   6.459 -0.1873 -0.2799  0.2307
   78SLPC   H3X 7165   0.528   0.196   6.451 -2.5698  2.1675 -2.7668
   78SLPC   H3Y 7166   0.706   0.232   6.482 -0.1563  1.5850  4.4129
   78SLPC   C34 7167   0.613   0.346   6.325  0.0468 -0.0434  0.5159
   78SLPC   H4X 7168   0.683   0.433   6.323  1.1922 -0.9573 -0.9577
   78SLPC   H4Y 7169   0.515   0.389   6.295  0.2724  0.0284 -0.1567
   78SLPC   C35 7170   0.635   0.253   6.206  0.4971  0.7522  1.0544
   78SLPC   H5X 7171   0.578   0.161   6.229  0.0620  0.4719 -0.9586
   78SLPC   H5Y 7172   0.744   0.231   6.198  0.0866 -0.9643 -0.5191
   78SLPC   C36 7173   0.589   0.311   6.066 -0.1905  0.1162 -0.4591
   78SLPC   H6X 7174   0.647   0.405   6.057 -2.3732  1.6482  0.7058
   78SLPC   H6Y 7175   0.484   0.347   6.062 -0.7168 -1.2823  0.1354
   78SLPC   C37 7176   0.627   0.224   5.945  0.2104  0.3152  0.7867
   78SLPC   H7X 7177   0.584   0.121   5.936 -0.4611  0.7254 -1.4827
   78SLPC   H7Y 7178   0.736   0.202   5.946 -0.2759 -2.5846  0.2981
   78SLPC   C38 7179   0.603   0.293   5.807 -0.6840  0.1200  0.7577
   78SLPC   H8X 7180   0.650   0.393   5.795  0.1439 -0.5699 -2.8081
   78SLPC   H8Y 7181   0.495   0.305   5.781  0.3351  1.2430 -3.7231
   78SLPC   C39 7182   0.671   0.217   5.685  0.6499  0.3807 -0.8776
   78SLPC   H9X 7183   0.643   0.109   5.692  0.0347  0.5059 -1.3673
   78SLPC   H9Y 7184   0.780   0.224   5.703  0.4310  0.1781  0.6003
   78SLPC  C310 7185   0.619   0.271   5.549 -0.0676  0.1560 -0.1716
   78SLPC  H10X 7186   0.605   0.381   5.548  0.3601  0.2150 -0.0200
   78SLPC  H10Y 7187   0.517   0.229   5.538 -0.1324  0.2298  0.1379
   78SLPC  C311 7188   0.703   0.231   5.428  0.0347 -0.5986  0.3781
   78SLPC  H11X 7189   0.715   0.121   5.436 -2.9206 -1.2595 -2.2227
   78SLPC  H11Y 7190   0.792   0.295   5.445 -1.8223  2.0581  0.7990
   78SLPC  C312 7191   0.630   0.254   5.292 -0.1813 -0.0636 -0.3764
   78SLPC  H12X 7192   0.593   0.358   5.287  0.4886  0.1960 -0.0583
   78SLPC  H12Y 7193   0.558   0.169   5.291  2.0542 -2.0848 -0.3081
   78SLPC  C313 7194   0.720   0.226   5.175  0.5260  0.6746  0.7388
   78SLPC  H13X 7195   0.771   0.127   5.172  0.6896  0.7825 -0.5395
   78SLPC  H13Y 7196   0.797   0.305   5.166 -0.7202  1.6972 -2.4346
   78SLPC  C314 7197   0.630   0.228   5.043  0.0205 -0.2135  0.6336
   78SLPC  H14X 7198   0.554   0.309   5.038  1.3471  1.0302 -0.1969
   78SLPC  H14Y 7199   0.569   0.135   5.047 -1.1370  0.5620  1.5222
   78SLPC  C315 7200   0.720   0.223   4.922  0.1047 -0.1719  0.6040
   78SLPC  H15X 7201   0.664   0.169   4.842 -0.0430 -1.7726  1.7337
   78SLPC  H15Y 7202   0.807   0.159   4.948  1.4528  0.4443 -2.0818
   78SLPC  C316 7203   0.762   0.364   4.876 -0.3886 -0.2875 -0.5380
   78SLPC  H16X 7204   0.810   0.424   4.957 -1.0002 -0.3756 -0.1024
   78SLPC  H16Y 7205   0.672   0.416   4.838 -1.1613 -1.1099  0.1232
   78SLPC  C317 7206   0.858   0.363   4.758  0.7975 -0.7205  0.1932
   78SLPC  H17X 7207   0.802   0.311   4.678 -2.0317 -2.5642  3.1186
   78SLPC  H17Y 7208   0.940   0.288   4.767 -0.8330 -2.8112 -1.3846
   78SLPC  C318 7209   0.927   0.497   4.720 -0.2858  0.7074 -0.1520
   78SLPC  H18X 7210   0.997   0.490   4.634 -0.9714 -0.6286 -0.6209
   78SLPC  H18Y 7211   0.992   0.529   4.805  0.9902  0.1467 -0.8860
   78SLPC  H18Z 7212   0.846   0.568   4.692  0.4681  1.7996  0.3418
   79SLPC     N 7213   6.035   1.378   6.943 -0.2499 -0.7956 -0.2282
   79SLPC   C13 7214   5.995   1.285   7.059  0.1980 -0.1028 -0.1077
   79SLPC  H13A 7215   6.008   1.343   7.149  0.6796  0.4691 -0.5354
   79SLPC  H13B 7216   5.895   1.252   7.033 -0.2918  2.1561 -1.4377
   79SLPC  H13C 7217   6.063   1.202   7.056 -0.4468 -0.7895  2.3256
   79SLPC   C14 7218   6.160   1.449   6.981  0.3860 -1.0180 -0.4719
   79SLPC  H14A 7219   6.174   1.531   6.912 -3.5835 -0.0153 -0.3323
   79SLPC  H14B 7220   6.146   1.484   7.083 -0.6144  0.8695 -1.2124
   79SLPC  H14C 7221   6.247   1.386   6.987  0.5591 -0.6715  1.4517
   79SLPC   C15 7222   5.932   1.493   6.947 -0.7842 -0.2976 -0.1304
   79SLPC  H15A 7223   5.969   1.569   6.880 -0.8755 -1.0893 -1.1100
   79SLPC  H15B 7224   5.838   1.459   6.906 -0.9365 -1.2337  0.9667
   79SLPC  H15C 7225   5.918   1.536   7.044 -0.4655  0.1157 -0.2642
   79SLPC   C12 7226   6.021   1.310   6.807 -0.1114  1.0329 -0.0750
   79SLPC  H12A 7227   5.915   1.296   6.789 -0.3684  1.1008  1.3027
   79SLPC  H12B 7228   6.071   1.216   6.823 -1.7940  0.2868  1.1276
   79SLPC   C11 7229   6.087   1.377   6.686 -0.1753 -0.3723 -0.4179
   79SLPC  H11A 7230   6.058   1.323   6.594 -0.3069 -0.7942 -0.1335
   79SLPC  H11B 7231   6.195   1.371   6.711 -0.2608 -0.5824 -0.0863
   79SLPC     P 7232   5.932   1.561   6.590 -0.2925  0.2098  0.6629
   79SLPC   O13 7233   5.854   1.443   6.552 -0.8279 -0.0025 -0.3733
   79SLPC   O14 7234   5.867   1.663   6.671 -0.5074  0.1445  0.1762
   79SLPC   O12 7235   6.056   1.514   6.678 -0.1969  0.0462  0.6799
   79SLPC   O11 7236   6.006   1.622   6.461  0.1858 -0.0399 -0.0605
   79SLPC    C1 7237   5.931   1.717   6.379 -0.4788 -0.0020  0.4248
   79SLPC    HA 7238   5.848   1.772   6.429 -0.9309  0.1406 -0.4620
   79SLPC    HB 7239   5.991   1.804   6.344  1.1322 -0.7606  1.2112
   79SLPC    C2 7240   5.863   1.650   6.255 -0.1677 -0.7017  0.8319
   79SLPC    HS 7241   5.769   1.614   6.302 -1.0171 -0.9462 -0.9611
   79SLPC   O21 7242   5.946   1.546   6.200  1.4064 -0.0427 -0.3413
   79SLPC   C21 7243   5.885   1.449   6.132  0.8559 -0.3415  0.0611
   79SLPC   O22 7244   5.762   1.448   6.116 -0.3272 -0.5176  0.1328
   79SLPC   C22 7245   5.986   1.349   6.089 -0.1468  0.1567  0.3452
   79SLPC   H2R 7246   6.079   1.400   6.058 -0.9251  0.5212 -1.5021
   79SLPC   H2S 7247   6.004   1.292   6.183  0.6981  0.7487  0.5615
   79SLPC    C3 7248   5.832   1.754   6.136 -0.0871 -0.0159 -0.0958
   79SLPC    HX 7249   5.777   1.840   6.179  1.4499  0.0186  1.9667
   79SLPC    HY 7250   5.764   1.716   6.057  0.8043  0.6365 -1.2056
   79SLPC   O31 7251   5.964   1.798   6.085  0.2793 -0.3477  0.0025
   79SLPC   C31 7252   5.959   1.848   5.964  0.4114 -0.1771 -0.6754
   79SLPC   O32 7253   5.859   1.867   5.896  0.4823  0.0825  0.3359
   79SLPC   C32 7254   6.097   1.914   5.940  0.3301 -1.0751  0.5670
   79SLPC   H2X 7255   6.182   1.852   5.904  1.7605  2.0989 -2.0829
   79SLPC   H2Y 7256   6.126   1.963   6.035  0.4296 -0.7634  0.3770
   79SLPC   C23 7257   5.937   1.256   5.978  0.6434 -0.0186 -0.2413
   79SLPC   H3R 7258   5.838   1.209   5.998  0.3742  0.3427 -0.6929
   79SLPC   H3S 7259   6.006   1.170   5.966  1.0777  0.1688  0.7760
   79SLPC   C24 7260   5.946   1.325   5.844 -0.1919  0.4260  0.7790
   79SLPC   H4R 7261   6.033   1.393   5.827  1.0012 -1.5165 -1.4099
   79SLPC   H4S 7262   5.855   1.389   5.849 -1.4664 -1.1938 -0.8332
   79SLPC   C25 7263   5.929   1.235   5.727  0.7448  0.2436  0.3391
   79SLPC   H5R 7264   5.826   1.194   5.731  1.3254 -1.1661  1.8381
   79SLPC   H5S 7265   5.988   1.142   5.742 -0.5124 -0.3922  1.5830
   79SLPC   C26 7266   5.967   1.289   5.594  0.2843 -0.0024  0.9874
   79SLPC   H6R 7267   6.061   1.348   5.607  0.2092 -0.0234  1.6429
   79SLPC   H6S 7268   5.894   1.364   5.558 -0.4594  0.2138  2.8472
   79SLPC   C27 7269   6.004   1.183   5.486  0.8010 -0.0526 -0.3057
   79SLPC   H7R 7270   5.917   1.118   5.460  0.2188  1.7403 -3.4619
   79SLPC   H7S 7271   6.090   1.120   5.516  1.8921  1.1580 -0.7791
   79SLPC   C28 7272   6.046   1.237   5.350 -0.7293 -0.3436 -0.2512
   79SLPC   H8R 7273   6.093   1.154   5.295  0.1912 -0.7238  1.0691
   79SLPC   H8S 7274   6.124   1.311   5.379 -1.9534  0.5465  0.9660
   79SLPC   C29 7275   5.936   1.306   5.272  0.8391  0.5573 -0.1751
   79SLPC   H9R 7276   5.838   1.258   5.290  0.6882  1.0498  0.3402
   79SLPC  C210 7277   5.942   1.421   5.200  0.5045  0.2796  0.2337
   79SLPC  H10R 7278   5.850   1.463   5.156 -0.2136  1.1025  2.3720
   79SLPC  C211 7279   6.065   1.504   5.180 -0.6122 -0.2959  0.0423
   79SLPC  H11R 7280   6.151   1.437   5.161 -0.4708  0.1600 -1.0229
   79SLPC  H11S 7281   6.085   1.560   5.274 -3.0840  0.5287  0.1383
   79SLPC  C212 7282   6.039   1.596   5.063  0.1612  0.6180  0.2983
   79SLPC  H12R 7283   6.010   1.701   5.080 -1.7653  0.3678 -1.0664
   79SLPC  C213 7284   6.059   1.573   4.928  0.7163  0.8433 -0.6888
   79SLPC  H13R 7285   6.024   1.648   4.855 -1.0042  3.0316  2.1468
   79SLPC  C214 7286   6.092   1.436   4.876 -0.1306  0.4333  1.2226
   79SLPC  H14R 7287   5.994   1.389   4.854  0.0038  0.3852  0.7171
   79SLPC  H14S 7288   6.143   1.365   4.945  0.6409 -0.1908  0.0420
   79SLPC  C215 7289   6.175   1.410   4.745 -0.2338 -0.0063  0.0696
   79SLPC  H15R 7290   6.275   1.457   4.757 -0.1927  0.8962 -2.8885
   79SLPC  H15S 7291   6.129   1.461   4.657  0.4806  1.0224  0.2736
   79SLPC  C216 7292   6.199   1.255   4.723  0.6128  0.0214 -0.1467
   79SLPC  H16R 7293   6.113   1.218   4.663 -1.6222  3.2098  0.8118
   79SLPC  H16S 7294   6.192   1.200   4.820  2.1430  0.0420 -0.0053
   79SLPC  C217 7295   6.333   1.217   4.663  0.5868 -0.3666  0.2267
   79SLPC  H17R 7296   6.414   1.285   4.699 -0.3542 -0.2777  2.3168
   79SLPC  H17S 7297   6.332   1.224   4.552  0.8732  0.2447  0.2572
   79SLPC  C218 7298   6.363   1.076   4.708 -0.6687  0.6359 -0.5467
   79SLPC  H18R 7299   6.382   1.070   4.817  2.6033 -1.0225 -1.0811
   79SLPC  H18S 7300   6.456   1.039   4.660 -1.0862 -0.0698 -0.8256
   79SLPC  H18T 7301   6.281   1.007   4.679 -1.5562  0.6821  1.6531
   79SLPC   C33 7302   6.072   2.028   5.836 -0.2508  0.2826  0.0050
   79SLPC   H3X 7303   6.006   2.105   5.884  0.7777  0.0047  1.9841
   79SLPC   H3Y 7304   6.015   1.978   5.755 -0.5277  0.9159 -0.1973
   79SLPC   C34 7305   6.196   2.091   5.774 -0.4207  0.3224 -0.2844
   79SLPC   H4X 7306   6.171   2.165   5.696 -0.1820  0.5478 -0.1469
   79SLPC   H4Y 7307   6.248   2.007   5.722 -0.3872  0.3476 -0.2916
   79SLPC   C35 7308   6.288   2.162   5.872 -1.0503  0.5687 -0.1701
   79SLPC   H5X 7309   6.313   2.095   5.957 -5.5449 -2.4791 -0.9241
   79SLPC   H5Y 7310   6.230   2.243   5.921  0.9637  2.6672 -1.0615
   79SLPC   C36 7311   6.425   2.215   5.815  0.1527  0.2708 -0.7744
   79SLPC   H6X 7312   6.501   2.133   5.805  2.6889  2.5137 -1.0197
   79SLPC   H6Y 7313   6.457   2.283   5.897 -1.8073  0.7123 -0.3337
   79SLPC   C37 7314   6.427   2.289   5.681 -0.1337  0.6824  0.1503
   79SLPC   H7X 7315   6.511   2.362   5.686 -0.3481  1.1866 -2.4459
   79SLPC   H7Y 7316   6.345   2.362   5.662 -0.9931 -0.4446 -0.5277
   79SLPC   C38 7317   6.445   2.193   5.566  0.1293  0.1304  0.9562
   79SLPC   H8X 7318   6.365   2.118   5.551  0.4962 -0.0071 -0.3854
   79SLPC   H8Y 7319   6.542   2.139   5.581 -0.8033 -2.1088 -0.5392
   79SLPC   C39 7320   6.449   2.269   5.430  0.5110 -0.2063  0.4686
   79SLPC   H9X 7321   6.355   2.327   5.421  0.0728 -0.3659  3.1516
   79SLPC   H9Y 7322   6.465   2.190   5.354  2.8253  0.2653  0.3964
   79SLPC  C310 7323   6.553   2.374   5.411  0.0767 -0.1098 -0.1603
   79SLPC  H10X 7324   6.652   2.336   5.443  0.2187  1.0451  0.8208
   79SLPC  H10Y 7325   6.533   2.456   5.483  0.5386 -0.1651  0.0327
   79SLPC  C311 7326   6.567   2.434   5.276  0.0317  1.1613  0.9039
   79SLPC  H11X 7327   6.644   2.514   5.274 -0.6772  1.9557  3.0741
   79SLPC  H11Y 7328   6.467   2.480   5.261  0.0243  0.8627 -0.0250
   79SLPC  C312 7329   6.599   2.330   5.160  0.1654  0.4663  0.1543
   79SLPC  H12X 7330   6.535   2.240   5.170 -0.4501  1.1077  2.5527
   79SLPC  H12Y 7331   6.706   2.301   5.169  0.2657  1.4000  2.9582
   79SLPC  C313 7332   6.563   2.393   5.023  0.0013 -0.4015  0.5002
   79SLPC  H13X 7333   6.638   2.475   5.011  0.3817 -0.7581  0.4241
   79SLPC  H13Y 7334   6.466   2.446   5.023  0.2250  0.1219 -1.9376
   79SLPC  C314 7335   6.556   2.293   4.905 -0.4034  0.6041 -0.4614
   79SLPC  H14X 7336   6.494   2.209   4.942  0.1586  1.6118  3.1758
   79SLPC  H14Y 7337   6.654   2.250   4.877 -0.4759 -0.1642  0.4092
   79SLPC  C315 7338   6.488   2.354   4.780 -0.0417 -0.5938 -0.7304
   79SLPC  H15X 7339   6.566   2.425   4.747 -0.5167 -0.4706 -1.6250
   79SLPC  H15Y 7340   6.390   2.401   4.803 -0.4618 -0.5259 -2.5141
   79SLPC  C316 7341   6.466   2.255   4.672 -0.0934  0.3068  0.4323
   79SLPC  H16X 7342   6.404   2.302   4.592 -0.3004 -1.4228 -0.4640
   79SLPC  H16Y 7343   6.413   2.166   4.710 -0.7232  0.5048  0.0449
   79SLPC  C317 7344   6.589   2.211   4.584  0.2565 -0.0335  0.5907
   79SLPC  H17X 7345   6.667   2.170   4.652 -1.3399 -0.1468  2.4418
   79SLPC  H17Y 7346   6.632   2.301   4.535 -1.9133  0.0914 -1.2356
   79SLPC  C318 7347   6.549   2.114   4.477  0.0769 -0.1459  0.6160
   79SLPC  H18X 7348   6.630   2.046   4.443 -1.7093 -1.1616 -1.9363
   79SLPC  H18Y 7349   6.534   2.165   4.380  2.6663  1.1642  0.8070
   79SLPC  H18Z 7350   6.465   2.051   4.514  0.4906 -1.2379 -0.2605
   80SLPC     N 7351   3.645   6.291   7.019  0.1837 -0.1983 -0.3111
   80SLPC   C13 7352   3.710   6.162   7.057  0.1543 -0.0729  0.6156
   80SLPC  H13A 7353   3.723   6.158   7.164 -1.6777 -0.6935  0.8493
   80SLPC  H13B 7354   3.652   6.081   7.017 -1.1553  1.6483 -1.2057
   80SLPC  H13C 7355   3.811   6.160   7.017 -0.0399  0.6571  0.0748
   80SLPC   C14 7356   3.732   6.403   7.061  0.4474 -0.5969 -0.0366
   80SLPC  H14A 7357   3.792   6.388   7.149  1.2661 -0.6260 -0.5923
   80SLPC  H14B 7358   3.814   6.424   6.994 -1.0376  2.1587 -1.1715
   80SLPC  H14C 7359   3.666   6.489   7.061 -1.0192 -1.6758 -1.2788
   80SLPC   C15 7360   3.517   6.294   7.094 -0.1895  0.3443  0.1834
   80SLPC  H15A 7361   3.460   6.204   7.080 -1.0624  0.9209 -0.0465
   80SLPC  H15B 7362   3.534   6.319   7.198 -1.0099  2.3517 -0.1351
   80SLPC  H15C 7363   3.465   6.382   7.061  0.8919  1.0742  0.3633
   80SLPC   C12 7364   3.621   6.285   6.859 -0.1037 -0.0781 -0.1701
   80SLPC  H12A 7365   3.553   6.366   6.837  0.8117  0.8034  0.1184
   80SLPC  H12B 7366   3.573   6.189   6.852  0.9774 -0.7562  1.0520
   80SLPC   C11 7367   3.741   6.301   6.762 -0.2030  0.0284  0.3549
   80SLPC  H11A 7368   3.705   6.272   6.661  0.6729  2.0985 -0.6086
   80SLPC  H11B 7369   3.816   6.223   6.788  2.1885  1.8126 -0.8559
   80SLPC     P 7370   3.721   6.553   6.701  0.2689 -0.0676 -0.2219
   80SLPC   O13 7371   3.624   6.594   6.802  0.2261 -0.0417  0.5176
   80SLPC   O14 7372   3.816   6.662   6.655  1.0033 -0.2040 -0.2045
   80SLPC   O12 7373   3.803   6.430   6.764 -0.2969 -0.1235 -0.1136
   80SLPC   O11 7374   3.646   6.490   6.582 -0.0917  0.1123  0.0359
   80SLPC    C1 7375   3.694   6.508   6.450  0.3399  0.0925 -0.1129
   80SLPC    HA 7376   3.801   6.536   6.451  0.3590  0.0558  1.4617
   80SLPC    HB 7377   3.685   6.410   6.399 -1.6210  1.0910 -1.8407
   80SLPC    C2 7378   3.617   6.611   6.365  0.0430  0.3375  0.4534
   80SLPC    HS 7379   3.649   6.713   6.395  0.7313  1.1687 -2.7222
   80SLPC   O21 7380   3.477   6.589   6.385  0.4476 -0.3158 -0.0879
   80SLPC   C21 7381   3.406   6.693   6.423 -0.7223 -0.7589 -0.0616
   80SLPC   O22 7382   3.452   6.804   6.446 -0.2166  0.8326 -0.3121
   80SLPC   C22 7383   3.257   6.677   6.419  0.1415  0.5314  0.6502
   80SLPC   H2R 7384   3.233   6.571   6.443  0.6180  0.4380  0.7288
   80SLPC   H2S 7385   3.220   6.746   6.497 -1.9555 -0.4401  0.5749
   80SLPC    C3 7386   3.667   6.596   6.221  0.0504  0.9260  0.1617
   80SLPC    HX 7387   3.642   6.499   6.173  0.0640  0.1584  1.6456
   80SLPC    HY 7388   3.778   6.591   6.221  0.0020 -1.1284  0.8783
   80SLPC   O31 7389   3.631   6.708   6.138  0.2316 -0.1814  0.0810
   80SLPC   C31 7390   3.514   6.693   6.060 -0.3098  0.1203 -0.2941
   80SLPC   O32 7391   3.449   6.589   6.052 -0.3948 -0.0426  0.2159
   80SLPC   C32 7392   3.469   6.827   6.009  0.0224  0.8330 -0.1869
   80SLPC   H2X 7393   3.550   6.902   5.997  1.1144 -0.2581  0.2261
   80SLPC   H2Y 7394   3.400   6.869   6.085  0.4913  0.0414  0.6906
   80SLPC   C23 7395   3.204   6.705   6.276 -0.3278 -0.4262 -0.5403
   80SLPC   H3R 7396   3.260   6.647   6.199  0.1599 -0.2885 -0.2889
   80SLPC   H3S 7397   3.223   6.809   6.244  0.0176 -0.3214 -0.0046
   80SLPC   C24 7398   3.049   6.693   6.257 -0.0379  0.5828  0.2234
   80SLPC   H4R 7399   3.009   6.774   6.322 -0.4088  0.4015  0.2237
   80SLPC   H4S 7400   3.013   6.600   6.307  2.0184  0.1885  1.0887
   80SLPC   C25 7401   2.991   6.690   6.116 -0.3682  0.0245  0.6326
   80SLPC   H5R 7402   3.030   6.602   6.060  1.7895  0.3012  1.5775
   80SLPC   H5S 7403   3.011   6.789   6.069 -0.7710 -0.5406 -0.7584
   80SLPC   C26 7404   2.837   6.667   6.111  0.4307  0.6824  0.3004
   80SLPC   H6R 7405   2.801   6.671   6.006  2.0223 -0.2998 -0.3138
   80SLPC   H6S 7406   2.789   6.742   6.178  0.3273  1.5465 -0.7034
   80SLPC   C27 7407   2.795   6.518   6.154  0.5012 -0.5108 -0.0657
   80SLPC   H7R 7408   2.802   6.523   6.265  0.9255 -2.9044  0.0759
   80SLPC   H7S 7409   2.860   6.437   6.115 -0.1464  0.0956 -2.6021
   80SLPC   C28 7410   2.651   6.480   6.115 -0.1754 -0.2071 -0.7358
   80SLPC   H8R 7411   2.633   6.519   6.013  2.1483 -1.4101 -1.6818
   80SLPC   H8S 7412   2.579   6.518   6.190 -1.5857  0.1967 -2.2505
   80SLPC   C29 7413   2.642   6.330   6.107  0.7648 -0.5010 -0.0752
   80SLPC   H9R 7414   2.685   6.271   6.189  2.1296 -0.6267 -0.8593
   80SLPC  C210 7415   2.588   6.258   6.009 -0.9607  0.2874  0.8306
   80SLPC  H10R 7416   2.601   6.150   6.021  0.5610  0.2100 -1.1130
   80SLPC  C211 7417   2.541   6.310   5.873  0.0671  0.4657 -0.4218
   80SLPC  H11R 7418   2.566   6.418   5.864 -1.6590  0.8422 -1.0475
   80SLPC  H11S 7419   2.430   6.304   5.873  0.0293  0.9715  0.5572
   80SLPC  C212 7420   2.595   6.218   5.766 -0.9045 -0.1631  0.6753
   80SLPC  H12R 7421   2.683   6.248   5.707 -0.3301 -1.1265  1.0055
   80SLPC  C213 7422   2.534   6.113   5.710 -0.1399 -0.5751 -0.4587
   80SLPC  H13R 7423   2.582   6.066   5.622 -1.1064 -0.7269 -0.9145
   80SLPC  C214 7424   2.393   6.067   5.742 -0.1261  0.3956 -0.5474
   80SLPC  H14R 7425   2.361   6.105   5.842 -0.0049  0.1121 -0.4004
   80SLPC  H14S 7426   2.389   5.958   5.764 -1.8110  0.3612 -0.8773
   80SLPC  C215 7427   2.289   6.112   5.646  0.0754 -0.3204  0.1071
   80SLPC  H15R 7428   2.300   6.219   5.618  0.1515 -0.3081  0.1842
   80SLPC  H15S 7429   2.189   6.095   5.692 -0.2888  0.2409 -0.4648
   80SLPC  C216 7430   2.300   6.027   5.521 -0.0480  0.5136  0.7767
   80SLPC  H16R 7431   2.259   5.926   5.545  1.8441 -0.5948 -0.3854
   80SLPC  H16S 7432   2.401   6.009   5.479 -0.9651 -1.2655 -0.8673
   80SLPC  C217 7433   2.217   6.073   5.403 -0.2482  0.2625  0.4604
   80SLPC  H17R 7434   2.245   6.178   5.378 -1.1202 -0.3950 -4.0447
   80SLPC  H17S 7435   2.107   6.059   5.411 -0.0650 -1.2819  0.4240
   80SLPC  C218 7436   2.255   5.985   5.277  0.3796  0.3730 -0.6564
   80SLPC  H18R 7437   2.255   5.885   5.326  0.0457  0.5785 -0.2375
   80SLPC  H18S 7438   2.355   6.004   5.233  0.3266 -1.6059 -1.7925
   80SLPC  H18T 7439   2.173   5.984   5.201  1.3778  2.1944 -1.8230
   80SLPC   C33 7440   3.392   6.812   5.870  0.8645 -0.0711  0.2152
   80SLPC   H3X 7441   3.347   6.913   5.856 -1.8435 -0.8276  2.5326
   80SLPC   H3Y 7442   3.307   6.742   5.880 -1.5580  2.8774  2.0121
   80SLPC   C34 7443   3.485   6.761   5.755 -0.1719 -0.6114  0.0725
   80SLPC   H4X 7444   3.535   6.663   5.767 -1.6638 -1.5496 -1.1044
   80SLPC   H4Y 7445   3.560   6.841   5.741 -0.3090 -0.4437  0.2805
   80SLPC   C35 7446   3.402   6.753   5.624  0.4776  0.2172  0.5727
   80SLPC   H5X 7447   3.323   6.830   5.611 -0.1811 -0.5728 -0.3774
   80SLPC   H5Y 7448   3.343   6.663   5.654  0.0340  0.6976  1.1626
   80SLPC   C36 7449   3.472   6.720   5.490 -0.4301  0.0997 -0.1253
   80SLPC   H6X 7450   3.397   6.666   5.428 -1.2388  2.6085 -1.4739
   80SLPC   H6Y 7451   3.558   6.654   5.514 -0.5262  0.4004  1.1441
   80SLPC   C37 7452   3.518   6.839   5.402  0.2325 -0.8270 -0.1132
   80SLPC   H7X 7453   3.599   6.898   5.451  0.7586 -1.7634  0.1680
   80SLPC   H7Y 7454   3.430   6.906   5.391  0.1691 -1.1017 -1.4899
   80SLPC   C38 7455   3.545   6.795   5.255 -0.4263 -0.1622 -0.2616
   80SLPC   H8X 7456   3.460   6.732   5.221 -2.0778  1.6283  0.3071
   80SLPC   H8Y 7457   3.627   6.721   5.262  0.3571  0.6177 -0.9780
   80SLPC   C39 7458   3.587   6.903   5.155 -0.3328  0.1715 -0.6356
   80SLPC   H9X 7459   3.677   6.950   5.199  0.1022  0.3341 -1.6773
   80SLPC   H9Y 7460   3.501   6.973   5.150  1.3052  2.3046 -0.1897
   80SLPC  C310 7461   3.610   6.865   5.012 -0.0184  0.2596 -0.4385
   80SLPC  H10X 7462   3.534   6.790   4.981 -1.4907  1.0931  1.0567
   80SLPC  H10Y 7463   3.706   6.809   5.002  0.4793  0.8202  0.9794
   80SLPC  C311 7464   3.641   6.980   4.913 -0.0561 -0.4541  0.1362
   80SLPC  H11X 7465   3.709   7.054   4.960 -2.0585  1.6440 -0.0789
   80SLPC  H11Y 7466   3.544   7.026   4.883  0.1283 -0.1622 -0.0141
   80SLPC  C312 7467   3.694   6.931   4.772  0.0342 -0.7576 -0.4091
   80SLPC  H12X 7468   3.668   6.999   4.688  0.2720  1.8642  1.5077
   80SLPC  H12Y 7469   3.669   6.823   4.765  1.8945 -1.2751  0.2711
   80SLPC  C313 7470   3.846   6.921   4.770 -0.1405  0.0870 -0.1680
   80SLPC  H13X 7471   3.871   6.849   4.690 -1.7644  0.9861 -1.5643
   80SLPC  H13Y 7472   3.891   6.870   4.857 -0.5287  2.1555  1.3197
   80SLPC  C314 7473   3.926   7.051   4.742 -0.3365  0.2472 -1.1080
   80SLPC  H14X 7474   3.875   7.131   4.799  0.0704 -0.3620  0.1465
   80SLPC  H14Y 7475   3.917   7.075   4.634 -0.6541 -2.9617 -1.9227
   80SLPC  C315 7476   4.077   7.045   4.795 -0.2063 -0.3097  0.8907
   80SLPC  H15X 7477   4.132   7.133   4.756 -1.0767  0.6020  1.6343
   80SLPC  H15Y 7478   4.120   6.962   4.736 -0.8639  0.6581 -1.0344
   80SLPC  C316 7479   4.108   7.005   4.937 -0.3341  0.5377 -0.1674
   80SLPC  H16X 7480   4.216   7.024   4.958 -0.3793  0.9161 -0.2580
   80SLPC  H16Y 7481   4.102   6.895   4.943  1.3829  0.4206  0.0985
   80SLPC  C317 7482   4.012   7.060   5.040 -0.5256  0.4755 -0.8389
   80SLPC  H17X 7483   3.904   7.032   5.034 -0.3117 -0.8823  0.7102
   80SLPC  H17Y 7484   4.015   7.169   5.022 -1.6163  0.3419 -1.9314
   80SLPC  C318 7485   4.080   7.010   5.172  0.4261  0.1984  0.2575
   80SLPC  H18X 7486   4.025   7.055   5.257  0.4996  0.2184  0.2944
   80SLPC  H18Y 7487   4.186   7.043   5.169  0.8836 -1.2216  0.2394
   80SLPC  H18Z 7488   4.089   6.904   5.203  0.3515  0.4464  1.1475
   81SLPC     N 7489   2.260   6.284   2.049  0.7590  0.5696 -0.4197
   81SLPC   C13 7490   2.282   6.395   2.152  0.0422 -0.8496  1.0399
   81SLPC  H13A 7491   2.217   6.376   2.236  1.1166 -2.4402  1.5603
   81SLPC  H13B 7492   2.386   6.386   2.179  1.2783  1.2969 -2.3128
   81SLPC  H13C 7493   2.266   6.495   2.113 -1.8777 -1.2174  0.8210
   81SLPC   C14 7494   2.323   6.327   1.919 -0.2491 -0.0034 -1.0453
   81SLPC  H14A 7495   2.266   6.412   1.886 -0.2604  0.6842  0.6548
   81SLPC  H14B 7496   2.428   6.347   1.935 -0.1505 -0.0017 -1.6696
   81SLPC  H14C 7497   2.312   6.250   1.843  1.1179 -1.3122  0.0250
   81SLPC   C15 7498   2.112   6.276   2.017  0.4862 -0.2680 -0.4269
   81SLPC  H15A 7499   2.061   6.238   2.104  1.1274  2.0381  1.0780
   81SLPC  H15B 7500   2.069   6.372   1.992 -0.9385 -1.3054 -2.1468
   81SLPC  H15C 7501   2.108   6.199   1.942 -1.3826 -0.1958 -0.4387
   81SLPC   C12 7502   2.316   6.151   2.096 -0.0272  0.3524 -0.3159
   81SLPC  H12A 7503   2.247   6.106   2.166  1.3911 -0.8485  0.3453
   81SLPC  H12B 7504   2.412   6.172   2.140 -1.7326  2.0447  2.9893
   81SLPC   C11 7505   2.338   6.036   1.993  0.1307  0.2707  0.4486
   81SLPC  H11A 7506   2.388   5.947   2.037 -0.7679  0.0406  1.0347
   81SLPC  H11B 7507   2.411   6.077   1.920  0.4039 -0.1825  0.4638
   81SLPC     P 7508   2.113   5.917   1.983  0.1260  0.0483  0.1015
   81SLPC   O13 7509   2.004   5.900   1.880  0.3114  0.0290 -0.0282
   81SLPC   O14 7510   2.174   5.791   2.028 -0.0328 -0.0062 -0.9184
   81SLPC   O12 7511   2.218   6.010   1.922 -1.0256 -0.0972  0.5248
   81SLPC   O11 7512   2.054   6.004   2.096  0.0091  0.6199  0.1133
   81SLPC    C1 7513   1.961   5.954   2.198 -0.4755  0.6325  0.3996
   81SLPC    HA 7514   1.854   5.953   2.168 -0.5020 -1.8568  0.3718
   81SLPC    HB 7515   1.986   5.849   2.224 -0.8633 -0.4619 -3.0771
   81SLPC    C2 7516   1.981   6.050   2.318  0.6002 -0.0374  0.1879
   81SLPC    HS 7517   1.941   6.150   2.291  0.1985 -0.0572  0.6907
   81SLPC   O21 7518   2.117   6.058   2.357 -0.0315 -0.1115 -0.0235
   81SLPC   C21 7519   2.161   6.175   2.404  0.3881 -0.8959  0.0071
   81SLPC   O22 7520   2.101   6.280   2.398  0.1364 -0.7040 -0.3902
   81SLPC   C22 7521   2.297   6.156   2.463  0.1576  0.2417  0.1090
   81SLPC   H2R 7522   2.309   6.048   2.482 -2.6798  0.0170  0.9976
   81SLPC   H2S 7523   2.375   6.170   2.384 -1.3609  0.6560 -1.3694
   81SLPC    C3 7524   1.896   6.009   2.441  0.1868  0.1084  0.1918
   81SLPC    HX 7525   1.797   6.005   2.389  0.7999 -2.9509 -0.9359
   81SLPC    HY 7526   1.899   6.088   2.518  0.2054  1.4036 -1.0892
   81SLPC   O31 7527   1.937   5.885   2.499  0.1744 -0.3873 -0.2162
   81SLPC   C31 7528   2.042   5.872   2.583  0.8101  0.9230 -0.5273
   81SLPC   O32 7529   2.094   5.967   2.641  0.1221 -0.2530 -0.1024
   81SLPC   C32 7530   2.080   5.733   2.590 -0.7478  0.2223 -0.1809
   81SLPC   H2X 7531   2.150   5.698   2.511  1.3513 -0.1924  1.7535
   81SLPC   H2Y 7532   1.997   5.660   2.579  0.2368 -0.7081 -1.9455
   81SLPC   C23 7533   2.324   6.243   2.582 -0.3322  0.0061 -0.1513
   81SLPC   H3R 7534   2.243   6.220   2.655  0.1866  0.0298  0.4434
   81SLPC   H3S 7535   2.326   6.352   2.563 -0.8469  0.3268  1.4302
   81SLPC   C24 7536   2.455   6.214   2.648 -0.4766 -0.7654 -0.4247
   81SLPC   H4R 7537   2.536   6.256   2.585 -0.2615  0.5878  0.7070
   81SLPC   H4S 7538   2.470   6.105   2.664 -2.4957 -0.7045  2.8531
   81SLPC   C25 7539   2.460   6.280   2.788  0.3169 -0.6356  0.4420
   81SLPC   H5R 7540   2.385   6.361   2.796 -0.7935 -1.2167 -2.8505
   81SLPC   H5S 7541   2.564   6.314   2.806  0.1855 -0.3124  0.5915
   81SLPC   C26 7542   2.434   6.172   2.895 -0.0384  0.5496  0.0084
   81SLPC   H6R 7543   2.525   6.110   2.911 -1.1374 -0.7190  1.6461
   81SLPC   H6S 7544   2.352   6.108   2.856  2.3849 -0.4429 -4.0168
   81SLPC   C27 7545   2.396   6.227   3.033 -0.3353 -0.3735  0.3445
   81SLPC   H7R 7546   2.290   6.260   3.029 -0.4230 -0.7589 -1.3268
   81SLPC   H7S 7547   2.450   6.323   3.043 -3.2038  1.0929  4.1003
   81SLPC   C28 7548   2.425   6.121   3.143 -0.2350  0.6871  0.7879
   81SLPC   H8R 7549   2.432   6.176   3.239 -1.4299 -1.6935  2.3465
   81SLPC   H8S 7550   2.521   6.066   3.132 -1.3804 -1.0940 -1.2409
   81SLPC   C29 7551   2.317   6.011   3.151  0.5277 -0.6420 -0.4952
   81SLPC   H9R 7552   2.274   5.971   3.059 -1.5173 -0.8788  0.4928
   81SLPC  C210 7553   2.251   5.978   3.268 -0.1615 -0.2965  0.7960
   81SLPC  H10R 7554   2.163   5.915   3.248  1.0697 -1.3374 -1.8607
   81SLPC  C211 7555   2.264   6.045   3.398  0.6081  0.2673  0.2722
   81SLPC  H11R 7556   2.233   6.150   3.380  0.3599 -0.1631 -2.1000
   81SLPC  H11S 7557   2.371   6.054   3.429  0.2363  0.1267  1.6890
   81SLPC  C212 7558   2.163   5.982   3.493  0.0570  0.1186  0.3905
   81SLPC  H12R 7559   2.089   5.915   3.445  1.5538 -1.5300  0.2720
   81SLPC  C213 7560   2.157   5.988   3.626 -0.7121 -0.2745  0.0971
   81SLPC  H13R 7561   2.078   5.935   3.680  0.1709 -0.5976  1.0976
   81SLPC  C214 7562   2.268   6.049   3.710 -0.4692  0.7188  0.6739
   81SLPC  H14R 7563   2.233   6.152   3.732  2.9087  2.2622 -0.4682
   81SLPC  H14S 7564   2.361   6.061   3.650 -1.1874 -0.5619 -0.7631
   81SLPC  C215 7565   2.292   5.963   3.830  0.2442  0.0120 -0.7607
   81SLPC  H15R 7566   2.390   5.981   3.880 -0.4223 -0.4621  0.7836
   81SLPC  H15S 7567   2.298   5.854   3.808  0.3730 -0.1062 -0.1687
   81SLPC  C216 7568   2.177   5.979   3.931 -0.2790 -0.7509  0.3380
   81SLPC  H16R 7569   2.113   5.894   3.898 -0.8574 -0.7258  1.3658
   81SLPC  H16S 7570   2.121   6.073   3.915  0.2783 -0.4302  0.2521
   81SLPC  C217 7571   2.207   5.947   4.076 -0.0671 -0.2386  0.5427
   81SLPC  H17R 7572   2.279   6.016   4.127 -0.5956 -0.3246  1.4271
   81SLPC  H17S 7573   2.264   5.852   4.066 -0.5360 -0.4720  0.0246
   81SLPC  C218 7574   2.073   5.930   4.155  0.6847 -0.2641  0.5622
   81SLPC  H18R 7575   2.078   5.864   4.243  0.8527  1.2038  1.6950
   81SLPC  H18S 7576   1.998   5.904   4.077  1.0028  1.5550 -0.4182
   81SLPC  H18T 7577   2.037   6.031   4.186 -0.4771 -0.4166 -0.2149
   81SLPC   C33 7578   2.149   5.682   2.719  0.6018 -0.5424  0.0985
   81SLPC   H3X 7579   2.226   5.751   2.758  0.2471  0.2513 -0.5446
   81SLPC   H3Y 7580   2.186   5.580   2.695  0.6541 -0.8922  1.6120
   81SLPC   C34 7581   2.041   5.652   2.816 -0.8600 -0.9364 -0.4514
   81SLPC   H4X 7582   1.988   5.557   2.793 -3.3206  0.2849 -0.1769
   81SLPC   H4Y 7583   1.975   5.740   2.832  0.9946  0.0861  2.4735
   81SLPC   C35 7584   2.118   5.647   2.951 -0.0221  0.5426 -0.2963
   81SLPC   H5X 7585   2.166   5.744   2.977 -0.4410  0.5857  0.3294
   81SLPC   H5Y 7586   2.202   5.575   2.946  1.4883  2.2112  0.0020
   81SLPC   C36 7587   2.031   5.615   3.075 -0.2307  0.0864  0.0137
   81SLPC   H6X 7588   1.973   5.522   3.053  0.2529 -0.6668  1.7093
   81SLPC   H6Y 7589   1.960   5.700   3.086 -1.8298 -0.8716 -2.1554
   81SLPC   C37 7590   2.130   5.612   3.189 -0.2985  0.0102 -0.0952
   81SLPC   H7X 7591   2.207   5.692   3.190  2.3428 -2.2816 -2.5354
   81SLPC   H7Y 7592   2.187   5.517   3.176  0.0361  0.2895 -0.6979
   81SLPC   C38 7593   2.057   5.603   3.323 -0.1768  0.2261  0.9996
   81SLPC   H8X 7594   1.973   5.531   3.312 -1.2400  1.7119 -1.1481
   81SLPC   H8Y 7595   1.994   5.694   3.331 -1.7789 -0.9532  3.4454
   81SLPC   C39 7596   2.147   5.584   3.445 -0.3801  0.0757 -0.1203
   81SLPC   H9X 7597   2.189   5.683   3.472 -1.9539  0.2450  1.9665
   81SLPC   H9Y 7598   2.228   5.509   3.433 -0.2858 -0.1399  1.5238
   81SLPC  C310 7599   2.067   5.553   3.572  0.3509  0.5628  0.2758
   81SLPC  H10X 7600   2.010   5.457   3.577 -1.2418  1.2877 -2.2646
   81SLPC  H10Y 7601   1.992   5.633   3.590  0.8442  0.2375  5.1623
   81SLPC  C311 7602   2.156   5.575   3.699  0.5396 -0.4031 -0.5274
   81SLPC  H11X 7603   2.078   5.589   3.776  0.3964  1.1623 -0.9300
   81SLPC  H11Y 7604   2.206   5.673   3.686  0.9638 -0.8643 -2.8300
   81SLPC  C312 7605   2.259   5.466   3.722 -0.0081  0.0762  1.0423
   81SLPC  H12X 7606   2.345   5.471   3.651  0.2244 -0.0459  1.3106
   81SLPC  H12Y 7607   2.217   5.364   3.720 -1.2230  0.5607 -1.1899
   81SLPC  C313 7608   2.332   5.481   3.854 -0.8500  0.1062 -0.3380
   81SLPC  H13X 7609   2.257   5.443   3.926  1.6758 -1.4560  1.6767
   81SLPC  H13Y 7610   2.364   5.585   3.877  0.6862 -0.9192  2.7137
   81SLPC  C314 7611   2.456   5.380   3.859 -0.6077  0.0476 -0.1755
   81SLPC  H14X 7612   2.530   5.433   3.795 -0.5830 -1.6000 -1.5814
   81SLPC  H14Y 7613   2.434   5.278   3.822 -1.4807  0.5676 -1.1144
   81SLPC  C315 7614   2.528   5.367   3.998 -0.2537 -0.2799  0.2865
   81SLPC  H15X 7615   2.549   5.465   4.045  1.0850 -0.0391 -0.7640
   81SLPC  H15Y 7616   2.623   5.311   4.008 -0.4730 -0.6072  0.5800
   81SLPC  C316 7617   2.432   5.294   4.095  0.3481 -0.3437 -0.3535
   81SLPC  H16X 7618   2.407   5.196   4.050 -3.1004  1.3359 -2.6087
   81SLPC  H16Y 7619   2.339   5.353   4.111  0.6853 -0.1496  1.0160
   81SLPC  C317 7620   2.494   5.275   4.234 -0.0695  0.5422  0.4016
   81SLPC  H17X 7621   2.512   5.377   4.275  1.0416  0.3686  0.3770
   81SLPC  H17Y 7622   2.590   5.219   4.242  0.1677  0.7214 -0.9405
   81SLPC  C318 7623   2.385   5.208   4.322 -0.4751  0.3053 -0.1361
   81SLPC  H18X 7624   2.374   5.103   4.285 -0.4359  0.0872  0.4661
   81SLPC  H18Y 7625   2.289   5.263   4.311 -1.1656 -0.4166  1.9526
   81SLPC  H18Z 7626   2.419   5.217   4.427  0.6802 -0.4984 -0.4176
   82SLPC     N 7627   6.240   3.076   2.186  0.1423  0.2231  0.3633
   82SLPC   C13 7628   6.268   3.154   2.063 -0.0778 -0.3867 -0.1994
   82SLPC  H13A 7629   6.186   3.177   1.997 -0.7617 -0.8525  0.4781
   82SLPC  H13B 7630   6.316   3.247   2.090  2.3055 -1.2611 -1.1387
   82SLPC  H13C 7631   6.340   3.095   2.010  2.6523 -0.7865  3.5171
   82SLPC   C14 7632   6.146   3.147   2.270  0.4888  0.2469 -0.7523
   82SLPC  H14A 7633   6.049   3.167   2.227  0.7034 -2.0666 -2.5351
   82SLPC  H14B 7634   6.133   3.082   2.356  1.3574 -2.3446 -2.4533
   82SLPC  H14C 7635   6.178   3.244   2.305  1.2885 -0.4489  0.5467
   82SLPC   C15 7636   6.371   3.049   2.243 -0.0044 -0.8698 -0.1698
   82SLPC  H15A 7637   6.418   3.140   2.277 -2.8765  0.7290 -0.1795
   82SLPC  H15B 7638   6.367   2.988   2.332 -1.6288 -1.1301 -0.3857
   82SLPC  H15C 7639   6.434   2.997   2.173 -1.9367 -1.2191 -1.7350
   82SLPC   C12 7640   6.187   2.949   2.132 -0.2740  0.2812  0.5470
   82SLPC  H12A 7641   6.252   2.917   2.052  0.8462  0.0573  1.5220
   82SLPC  H12B 7642   6.100   2.978   2.076  0.5636  0.0271 -0.9277
   82SLPC   C11 7643   6.146   2.835   2.231  0.2193 -0.0915 -0.0249
   82SLPC  H11A 7644   6.119   2.754   2.160  0.9795 -0.2649 -0.1154
   82SLPC  H11B 7645   6.051   2.866   2.280  0.7520 -1.2232  1.8163
   82SLPC     P 7646   6.343   2.682   2.310  0.0474  0.6402  0.4466
   82SLPC   O13 7647   6.327   2.572   2.411 -0.0849 -0.2530  0.5898
   82SLPC   O14 7648   6.349   2.644   2.167  0.0645  0.0464  1.0362
   82SLPC   O12 7649   6.239   2.798   2.335 -0.1201  0.0447 -0.4030
   82SLPC   O11 7650   6.463   2.775   2.352  0.0766  1.0808 -0.3440
   82SLPC    C1 7651   6.594   2.730   2.360 -0.2239  0.3826 -0.5158
   82SLPC    HA 7652   6.597   2.626   2.399  1.7417  0.8557  0.7234
   82SLPC    HB 7653   6.630   2.732   2.255  0.0597 -0.9551 -0.4653
   82SLPC    C2 7654   6.687   2.817   2.447  0.3659 -0.2845 -0.0334
   82SLPC    HS 7655   6.789   2.783   2.419  0.4872 -2.0183  2.2519
   82SLPC   O21 7656   6.655   2.810   2.585  0.1409 -0.0889  0.5819
   82SLPC   C21 7657   6.685   2.697   2.646  0.4021  0.4959 -0.2561
   82SLPC   O22 7658   6.726   2.597   2.590  0.1263  0.8247  0.1036
   82SLPC   C22 7659   6.672   2.715   2.790  0.2184 -0.1337 -0.4525
   82SLPC   H2R 7660   6.730   2.808   2.811 -3.8395  2.6327 -0.4451
   82SLPC   H2S 7661   6.567   2.741   2.814  0.4138  0.2587  0.0041
   82SLPC    C3 7662   6.674   2.967   2.411 -0.2669  0.2242  0.2974
   82SLPC    HX 7663   6.578   2.993   2.460 -0.3918 -0.8578  0.6637
   82SLPC    HY 7664   6.671   2.980   2.301  3.1281  0.5022  0.1133
   82SLPC   O31 7665   6.788   3.047   2.451  0.0325  0.1233 -0.4324
   82SLPC   C31 7666   6.760   3.132   2.551 -0.0848 -0.0623  0.1692
   82SLPC   O32 7667   6.650   3.150   2.597 -0.2831 -0.1344 -0.4876
   82SLPC   C32 7668   6.883   3.209   2.587  0.0758 -0.3777  0.0551
   82SLPC   H2X 7669   6.880   3.303   2.528  0.1807  1.2044  2.4464
   82SLPC   H2Y 7670   6.980   3.155   2.577  0.4940  0.3415  0.1778
   82SLPC   C23 7671   6.736   2.600   2.870 -0.4309  0.4598  0.5461
   82SLPC   H3R 7672   6.839   2.574   2.838 -0.2583 -0.7643  1.9982
   82SLPC   H3S 7673   6.667   2.514   2.854 -3.2308  2.5398  0.5016
   82SLPC   C24 7674   6.731   2.613   3.022 -0.3033 -0.3464 -0.4169
   82SLPC   H4R 7675   6.731   2.515   3.074 -0.4031  0.0443  0.3295
   82SLPC   H4S 7676   6.633   2.662   3.039 -0.6541 -0.8274 -1.0138
   82SLPC   C25 7677   6.831   2.712   3.086 -0.2901  0.3386  1.1611
   82SLPC   H5R 7678   6.818   2.817   3.051  0.1730  0.9962  2.8515
   82SLPC   H5S 7679   6.933   2.686   3.052  0.0359  1.2495  1.4129
   82SLPC   C26 7680   6.839   2.705   3.241  0.9161 -0.4631 -0.0206
   82SLPC   H6R 7681   6.737   2.723   3.283  0.9689 -0.3950  0.0773
   82SLPC   H6S 7682   6.911   2.783   3.272  0.8989 -1.0842  1.6884
   82SLPC   C27 7683   6.882   2.568   3.286 -0.0638 -0.1856 -0.4500
   82SLPC   H7R 7684   6.962   2.527   3.221  0.9008  3.7515 -2.0802
   82SLPC   H7S 7685   6.797   2.502   3.259 -0.6395  0.7638 -1.0470
   82SLPC   C28 7686   6.912   2.551   3.428  0.6416 -0.3821 -0.1414
   82SLPC   H8R 7687   6.938   2.445   3.450  2.3858  0.5244  2.7310
   82SLPC   H8S 7688   6.819   2.572   3.484  1.0107  2.0010 -0.3261
   82SLPC   C29 7689   7.024   2.638   3.472 -0.1939  0.4650  0.4578
   82SLPC   H9R 7690   7.113   2.642   3.408 -1.0678 -1.0282 -0.9049
   82SLPC  C210 7691   7.027   2.702   3.593 -0.0910 -1.0075 -0.0137
   82SLPC  H10R 7692   7.114   2.765   3.618  0.8956 -1.8306 -1.2337
   82SLPC  C211 7693   6.923   2.701   3.702  0.4696 -0.4073  0.0655
   82SLPC  H11R 7694   6.966   2.689   3.804 -1.7594  2.7161  1.5044
   82SLPC  H11S 7695   6.866   2.606   3.694 -0.5375  0.3296 -2.3130
   82SLPC  C212 7696   6.835   2.821   3.712 -0.1075 -0.8225  0.5320
   82SLPC  H12R 7697   6.817   2.853   3.608 -0.8988  0.3340  1.0047
   82SLPC  C213 7698   6.755   2.876   3.807  0.8966 -0.3465  0.1596
   82SLPC  H13R 7699   6.702   2.967   3.776 -0.0284 -0.5846  1.0149
   82SLPC  C214 7700   6.724   2.838   3.949 -0.3766 -0.7519  0.3128
   82SLPC  H14R 7701   6.758   2.736   3.973 -0.6593 -0.6109  1.3698
   82SLPC  H14S 7702   6.614   2.829   3.967 -0.5172  0.5928  0.2705
   82SLPC  C215 7703   6.761   2.947   4.052  0.7696  0.2417 -0.1834
   82SLPC  H15R 7704   6.866   2.981   4.044  0.6856  0.6574  0.4262
   82SLPC  H15S 7705   6.761   2.897   4.151 -1.7836  1.7943  0.7094
   82SLPC  C216 7706   6.663   3.064   4.056  0.0646  0.2903 -0.4009
   82SLPC  H16R 7707   6.560   3.030   4.029 -1.1027  2.9024  0.3953
   82SLPC  H16S 7708   6.686   3.134   3.972  2.1102  1.1046  0.7752
   82SLPC  C217 7709   6.649   3.127   4.193 -0.0135 -0.6597  0.5167
   82SLPC  H17R 7710   6.750   3.162   4.226 -1.2441  1.4136  2.3866
   82SLPC  H17S 7711   6.622   3.045   4.263  1.4521 -1.7117 -0.1016
   82SLPC  C218 7712   6.547   3.242   4.198 -0.0964  0.4456  0.2054
   82SLPC  H18R 7713   6.449   3.214   4.154  0.0961  1.1152 -0.6702
   82SLPC  H18S 7714   6.600   3.325   4.146  3.9189 -2.0050 -0.0903
   82SLPC  H18T 7715   6.518   3.269   4.301  0.7425 -1.4784  0.9996
   82SLPC   C33 7716   6.893   3.256   2.732  0.2364 -0.1952  0.1561
   82SLPC   H3X 7717   6.818   3.333   2.758 -0.4033 -0.7470 -0.0276
   82SLPC   H3Y 7718   6.994   3.302   2.742 -0.4111  0.7826  2.7444
   82SLPC   C34 7719   6.889   3.145   2.837  0.6740  0.8748  0.4114
   82SLPC   H4X 7720   6.962   3.063   2.822 -1.3749 -1.5067  2.5710
   82SLPC   H4Y 7721   6.794   3.089   2.823  1.9438 -0.9612 -1.7287
   82SLPC   C35 7722   6.906   3.195   2.981 -0.0032 -0.1248 -0.3246
   82SLPC   H5X 7723   6.839   3.284   2.989 -1.8117 -1.5192  1.1975
   82SLPC   H5Y 7724   7.006   3.242   2.988 -0.2771  0.2827  1.4517
   82SLPC   C36 7725   6.861   3.091   3.090  0.7668 -0.0198  0.7749
   82SLPC   H6X 7726   6.929   3.003   3.093 -0.9350 -1.4720 -0.7333
   82SLPC   H6Y 7727   6.769   3.048   3.044 -0.0566  0.9049  1.4992
   82SLPC   C37 7728   6.847   3.147   3.234 -0.0413 -0.2030 -0.2133
   82SLPC   H7X 7729   6.770   3.226   3.229 -1.0895 -1.2567 -1.8400
   82SLPC   H7Y 7730   6.947   3.185   3.265  0.0300 -0.4916 -0.0818
   82SLPC   C38 7731   6.803   3.047   3.334 -0.4782  0.0178 -0.5314
   82SLPC   H8X 7732   6.876   2.974   3.374 -0.6981  0.1625  0.1355
   82SLPC   H8Y 7733   6.728   2.983   3.281 -0.9657 -0.7127  0.9906
   82SLPC   C39 7734   6.726   3.102   3.455 -0.3990 -0.7007 -0.6904
   82SLPC   H9X 7735   6.696   3.016   3.519  0.7613  0.5938  1.7271
   82SLPC   H9Y 7736   6.630   3.155   3.434 -0.1769  0.6756  1.5118
   82SLPC  C310 7737   6.805   3.190   3.562  0.4231  0.4987 -0.3782
   82SLPC  H10X 7738   6.873   3.260   3.509 -0.3329  1.6957  0.1712
   82SLPC  H10Y 7739   6.875   3.124   3.617 -0.6724  0.9861  1.6792
   82SLPC  C311 7740   6.719   3.260   3.663  0.1515 -0.3750  0.5803
   82SLPC  H11X 7741   6.781   3.297   3.747  0.0081  2.5158 -0.4799
   82SLPC  H11Y 7742   6.640   3.186   3.690 -1.6950  1.3673  0.2114
   82SLPC  C312 7743   6.662   3.386   3.601  0.4861 -0.2696 -0.3910
   82SLPC  H12X 7744   6.589   3.363   3.520  1.4936 -0.3564 -1.2906
   82SLPC  H12Y 7745   6.749   3.449   3.574  0.8290 -0.1255  1.0042
   82SLPC  C313 7746   6.593   3.469   3.708 -0.3425 -0.4594  0.3488
   82SLPC  H13X 7747   6.546   3.557   3.659 -0.2078 -0.5525  0.0461
   82SLPC  H13Y 7748   6.675   3.515   3.767  1.4619 -2.0568 -0.7865
   82SLPC  C314 7749   6.486   3.400   3.799 -0.5138  0.3890  0.3823
   82SLPC  H14X 7750   6.448   3.471   3.875 -0.8961  1.3131 -0.6567
   82SLPC  H14Y 7751   6.534   3.315   3.853 -0.4404  1.2199  1.6678
   82SLPC  C315 7752   6.366   3.353   3.716  0.3965  0.0706  0.5765
   82SLPC  H15X 7753   6.307   3.295   3.790  0.6451 -2.0776 -0.8029
   82SLPC  H15Y 7754   6.394   3.278   3.638 -0.4412  1.1928 -0.8746
   82SLPC  C316 7755   6.285   3.463   3.660  0.7406 -0.3567  0.7747
   82SLPC  H16X 7756   6.337   3.517   3.578  0.0730  0.8556  1.1182
   82SLPC  H16Y 7757   6.262   3.541   3.737 -4.4000  0.5217 -1.2904
   82SLPC  C317 7758   6.154   3.406   3.608 -0.3917 -0.1912 -0.2258
   82SLPC  H17X 7759   6.096   3.489   3.563 -1.8930 -0.7915  0.5418
   82SLPC  H17Y 7760   6.101   3.355   3.691  1.8265  0.2834  1.5811
   82SLPC  C318 7761   6.165   3.291   3.503 -0.2243 -0.1862  0.8355
   82SLPC  H18X 7762   6.227   3.205   3.537  2.5487  1.8573  1.3299
   82SLPC  H18Y 7763   6.212   3.326   3.408  0.1249 -2.4915  0.1021
   82SLPC  H18Z 7764   6.072   3.233   3.484 -0.6798  0.7946 -0.1122
   83SLPC     N 7765   1.162   5.502   1.991  0.4075  0.6670 -0.0019
   83SLPC   C13 7766   1.029   5.535   1.936 -0.6240 -0.4125 -0.0702
   83SLPC  H13A 7767   0.966   5.450   1.916 -0.7849 -0.1575 -0.6521
   83SLPC  H13B 7768   0.977   5.594   2.010  0.3845  0.9451 -0.3922
   83SLPC  H13C 7769   1.025   5.605   1.854 -2.9369  1.0157  1.1468
   83SLPC   C14 7770   1.232   5.631   2.013  0.5042  0.5690  0.0251
   83SLPC  H14A 7771   1.281   5.660   1.921  0.4130 -1.0232 -0.5451
   83SLPC  H14B 7772   1.167   5.713   2.042  1.1667  0.9680  0.4225
   83SLPC  H14C 7773   1.315   5.614   2.080  1.7018  0.1310 -1.5018
   83SLPC   C15 7774   1.239   5.416   1.890  1.0934  0.1055 -0.3918
   83SLPC  H15A 7775   1.250   5.461   1.793 -1.9043 -1.1216 -1.4148
   83SLPC  H15B 7776   1.339   5.395   1.925  0.6573 -0.7483  0.3907
   83SLPC  H15C 7777   1.182   5.325   1.885  1.3887 -0.0152 -1.9060
   83SLPC   C12 7778   1.152   5.436   2.128  0.4577  0.1484  0.2770
   83SLPC  H12A 7779   1.079   5.358   2.117 -2.3187  1.9974  3.6426
   83SLPC  H12B 7780   1.110   5.505   2.200 -0.8657  0.8820 -1.1453
   83SLPC   C11 7781   1.280   5.382   2.191  0.0089 -0.2144 -0.0131
   83SLPC  H11A 7782   1.334   5.322   2.115 -0.1079 -0.8594  0.4072
   83SLPC  H11B 7783   1.249   5.309   2.269  0.5916 -0.9729 -0.4802
   83SLPC     P 7784   1.317   5.568   2.367  0.6138 -0.0400 -0.0749
   83SLPC   O13 7785   1.313   5.711   2.337  0.0377  0.4604 -0.4074
   83SLPC   O14 7786   1.199   5.504   2.431  1.1246 -0.0119 -0.3190
   83SLPC   O12 7787   1.361   5.493   2.242  0.1568 -0.1075 -0.4578
   83SLPC   O11 7788   1.422   5.538   2.476 -0.5274 -0.3559 -0.0356
   83SLPC    C1 7789   1.568   5.564   2.468 -0.5613  0.1028  0.0861
   83SLPC    HA 7790   1.618   5.468   2.490 -0.1659 -0.0108 -1.2299
   83SLPC    HB 7791   1.601   5.591   2.365  1.8101 -2.4334  0.0573
   83SLPC    C2 7792   1.623   5.675   2.560  1.0491  0.5422 -0.4788
   83SLPC    HS 7793   1.732   5.691   2.545  1.3424  0.0530  0.9522
   83SLPC   O21 7794   1.605   5.643   2.701  0.0158 -0.0327 -0.0864
   83SLPC   C21 7795   1.682   5.546   2.753 -0.2850 -0.0616 -0.8810
   83SLPC   O22 7796   1.755   5.475   2.687  0.1492 -0.3672  0.2560
   83SLPC   C22 7797   1.671   5.552   2.912 -0.2838  0.0371  0.4574
   83SLPC   H2R 7798   1.751   5.618   2.952 -2.1714  2.9128 -0.2172
   83SLPC   H2S 7799   1.572   5.598   2.934  0.6727  2.1429  0.6143
   83SLPC    C3 7800   1.571   5.816   2.522 -0.8439 -0.3045  0.1566
   83SLPC    HX 7801   1.461   5.831   2.520 -0.6411  1.2630 -0.2161
   83SLPC    HY 7802   1.611   5.820   2.418 -1.5031 -0.6480 -0.1141
   83SLPC   O31 7803   1.641   5.921   2.593  0.3689  0.6401 -0.2605
   83SLPC   C31 7804   1.578   5.960   2.700 -0.7643 -0.4840 -0.0109
   83SLPC   O32 7805   1.477   5.913   2.752  0.1094 -0.8394  0.2886
   83SLPC   C32 7806   1.657   6.068   2.763 -0.2120  0.3743 -0.0314
   83SLPC   H2X 7807   1.648   6.160   2.701 -0.5178  0.0553 -0.4686
   83SLPC   H2Y 7808   1.761   6.033   2.751 -0.6262 -0.5304 -1.1500
   83SLPC   C23 7809   1.676   5.421   2.986  0.3459  0.5727 -0.1744
   83SLPC   H3R 7810   1.780   5.385   2.976  0.1633  0.2878 -1.1519
   83SLPC   H3S 7811   1.608   5.348   2.938  1.4995  0.9084 -2.4399
   83SLPC   C24 7812   1.654   5.435   3.141  0.7035  0.2742 -0.1721
   83SLPC   H4R 7813   1.551   5.475   3.156  0.6768 -0.1815  0.9810
   83SLPC   H4S 7814   1.725   5.513   3.175  0.4366  0.7626 -0.7226
   83SLPC   C25 7815   1.664   5.316   3.229 -0.8279 -1.0264  0.1329
   83SLPC   H5R 7816   1.765   5.274   3.210 -0.4105  1.2526 -3.6106
   83SLPC   H5S 7817   1.596   5.232   3.202 -0.4527 -1.8073  1.5126
   83SLPC   C26 7818   1.644   5.356   3.371 -0.3706  0.1280 -0.1065
   83SLPC   H6R 7819   1.544   5.401   3.391 -0.1957  0.7478 -0.6113
   83SLPC   H6S 7820   1.717   5.433   3.403 -1.9175  2.9140 -2.8452
   83SLPC   C27 7821   1.673   5.235   3.470 -0.2195  0.0851  0.4903
   83SLPC   H7R 7822   1.782   5.216   3.473 -0.6067 -2.6279 -0.0362
   83SLPC   H7S 7823   1.620   5.148   3.425  0.4418  1.2454 -2.7240
   83SLPC   C28 7824   1.622   5.253   3.613  0.6288  0.1971 -0.3083
   83SLPC   H8R 7825   1.640   5.158   3.667 -1.1012  0.0430  0.0353
   83SLPC   H8S 7826   1.513   5.264   3.597  0.8265 -0.1191 -2.0878
   83SLPC   C29 7827   1.685   5.372   3.687  0.5091 -0.2118  0.3332
   83SLPC   H9R 7828   1.655   5.477   3.670 -0.0135 -0.2760  0.8422
   83SLPC  C210 7829   1.776   5.343   3.780  0.3007  0.2804  0.1234
   83SLPC  H10R 7830   1.814   5.431   3.833 -2.7649  1.8577 -0.0941
   83SLPC  C211 7831   1.842   5.215   3.815 -0.3631  0.3443  0.2019
   83SLPC  H11R 7832   1.859   5.162   3.718  1.8750  1.4527 -0.0711
   83SLPC  H11S 7833   1.763   5.161   3.871 -0.7963  0.6054 -0.1465
   83SLPC  C212 7834   1.969   5.234   3.896  0.3925 -0.5131 -0.7531
   83SLPC  H12R 7835   2.046   5.294   3.845  0.9819 -1.1329 -0.6032
   83SLPC  C213 7836   2.011   5.191   4.013  0.2214  0.3486  0.0030
   83SLPC  H13R 7837   2.105   5.225   4.058  1.2170  0.3749 -1.9722
   83SLPC  C214 7838   1.936   5.095   4.104  0.0886 -0.2402 -0.1537
   83SLPC  H14R 7839   1.979   4.994   4.091 -0.5133 -0.3229 -1.7367
   83SLPC  H14S 7840   1.828   5.098   4.080  0.2128 -0.5563 -0.7586
   83SLPC  C215 7841   1.938   5.127   4.251 -0.2503  0.0714 -0.3630
   83SLPC  H15R 7842   2.042   5.154   4.279  1.0141 -1.8434 -2.8595
   83SLPC  H15S 7843   1.912   5.038   4.312  0.0129  1.1604  1.4310
   83SLPC  C216 7844   1.837   5.235   4.290 -1.0767 -1.0857 -0.2631
   83SLPC  H16R 7845   1.748   5.180   4.328 -0.2812 -1.5857  0.9159
   83SLPC  H16S 7846   1.797   5.284   4.199 -0.8483 -2.7511 -1.2961
   83SLPC  C217 7847   1.904   5.344   4.377  0.2442  0.0216  0.0816
   83SLPC  H17R 7848   1.962   5.270   4.436  0.1513  0.0967  0.2687
   83SLPC  H17S 7849   1.833   5.404   4.438 -0.4858  0.7964 -1.4581
   83SLPC  C218 7850   1.989   5.436   4.295 -0.1773 -0.0699 -0.0409
   83SLPC  H18R 7851   2.067   5.481   4.359  2.0981  0.0852 -2.7212
   83SLPC  H18S 7852   1.931   5.515   4.243 -2.0634 -1.4535 -0.1497
   83SLPC  H18T 7853   2.042   5.387   4.211 -1.2111 -1.9863  0.3521
   83SLPC   C33 7854   1.622   6.074   2.909 -0.6617 -0.2878  0.4131
   83SLPC   H3X 7855   1.512   6.072   2.928 -0.4434 -1.4920  1.7557
   83SLPC   H3Y 7856   1.660   6.166   2.958 -0.3370  0.0229 -0.4166
   83SLPC   C34 7857   1.679   5.970   3.009 -0.0270 -0.1759 -1.2540
   83SLPC   H4X 7858   1.788   5.958   2.991 -0.0119 -2.4039 -0.0070
   83SLPC   H4Y 7859   1.636   5.871   2.979 -0.9250  0.2269 -1.3441
   83SLPC   C35 7860   1.661   6.006   3.155  0.2107 -0.0695  0.3969
   83SLPC   H5X 7861   1.553   6.009   3.180  0.1219 -0.5584  0.0738
   83SLPC   H5Y 7862   1.709   6.104   3.178 -0.7292  0.2431  1.1163
   83SLPC   C36 7863   1.729   5.906   3.246 -0.1937 -0.1896 -0.6008
   83SLPC   H6X 7864   1.837   5.901   3.218 -0.2832  2.8053 -1.8334
   83SLPC   H6Y 7865   1.685   5.805   3.232 -0.2926 -0.1472 -0.5899
   83SLPC   C37 7866   1.720   5.956   3.393  0.2030 -0.2000 -0.0979
   83SLPC   H7X 7867   1.616   5.982   3.419  1.0163  3.5436  0.0351
   83SLPC   H7Y 7868   1.774   6.053   3.384 -0.4978  0.4930  2.4097
   83SLPC   C38 7869   1.775   5.863   3.499  0.4861 -0.0674 -0.0710
   83SLPC   H8X 7870   1.884   5.871   3.516  0.5372  0.0614 -0.4629
   83SLPC   H8Y 7871   1.748   5.762   3.460 -0.8650 -0.1210  0.9098
   83SLPC   C39 7872   1.720   5.903   3.636 -0.5082  0.8202 -0.0475
   83SLPC   H9X 7873   1.612   5.929   3.626 -0.8745 -0.6237 -0.1141
   83SLPC   H9Y 7874   1.766   5.998   3.671 -1.1521  0.2054  2.7056
   83SLPC  C310 7875   1.742   5.802   3.753 -0.5309 -0.4896  0.9778
   83SLPC  H10X 7876   1.847   5.766   3.757 -0.6125 -0.8568  0.1733
   83SLPC  H10Y 7877   1.676   5.717   3.727 -0.6510  0.5647 -2.7438
   83SLPC  C311 7878   1.703   5.862   3.882  0.2335  0.9441 -0.1792
   83SLPC  H11X 7879   1.599   5.901   3.881  0.4090  1.4377 -1.5482
   83SLPC  H11Y 7880   1.776   5.946   3.888 -0.1913  1.5093 -2.1570
   83SLPC  C312 7881   1.726   5.766   4.004 -0.1720 -0.3760 -0.2837
   83SLPC  H12X 7882   1.705   5.837   4.087 -2.2502 -0.0027 -1.0495
   83SLPC  H12Y 7883   1.829   5.724   4.006 -0.0574 -0.0588  1.5497
   83SLPC  C313 7884   1.629   5.642   4.015  0.8184  0.3306  0.2502
   83SLPC  H13X 7885   1.656   5.590   3.920 -0.2582 -1.2414  0.7652
   83SLPC  H13Y 7886   1.523   5.675   4.015  0.8843  0.5512 -0.2050
   83SLPC  C314 7887   1.665   5.547   4.130 -0.8104 -0.5843  1.2110
   83SLPC  H14X 7888   1.685   5.615   4.216 -0.0355  0.7697 -0.0079
   83SLPC  H14Y 7889   1.761   5.502   4.096 -1.3717 -1.6988  1.0417
   83SLPC  C315 7890   1.580   5.430   4.162  0.2256  0.6273  0.2290
   83SLPC  H15X 7891   1.481   5.468   4.193 -0.0470  0.1491 -0.0417
   83SLPC  H15Y 7892   1.620   5.373   4.248  1.5354  1.7071  0.3744
   83SLPC  C316 7893   1.557   5.324   4.043 -0.5935 -0.1001 -0.2802
   83SLPC  H16X 7894   1.642   5.253   4.055  0.2893  0.9698 -0.0765
   83SLPC  H16Y 7895   1.571   5.379   3.947  1.4681  1.1132  0.6357
   83SLPC  C317 7896   1.426   5.248   4.033  0.2831 -0.4267  1.0906
   83SLPC  H17X 7897   1.335   5.306   4.005  0.3936 -0.8177 -0.1020
   83SLPC  H17Y 7898   1.416   5.205   4.136  2.7348 -1.2277  1.0481
   83SLPC  C318 7899   1.433   5.131   3.935 -0.5656  0.3109 -0.6068
   83SLPC  H18X 7900   1.497   5.050   3.976  2.1535  2.3996 -0.4589
   83SLPC  H18Y 7901   1.486   5.160   3.841  1.6392 -0.3470  0.3625
   83SLPC  H18Z 7902   1.331   5.092   3.916 -0.0817 -1.7894  0.8109
   84SLPC     N 7903   6.172   2.007   2.284 -0.1366  0.4046 -0.6990
   84SLPC   C13 7904   6.255   2.109   2.212 -0.7348 -0.6252  0.0673
   84SLPC  H13A 7905   6.255   2.207   2.257 -0.7904  0.0791 -1.3964
   84SLPC  H13B 7906   6.357   2.077   2.224 -1.3782 -2.6624  0.4932
   84SLPC  H13C 7907   6.234   2.128   2.107  0.7588  1.0793  0.0214
   84SLPC   C14 7908   6.191   1.871   2.218 -0.0252  0.0840 -0.0364
   84SLPC  H14A 7909   6.145   1.853   2.121 -0.4147 -1.0308  0.3457
   84SLPC  H14B 7910   6.294   1.841   2.215  0.0390 -0.1832  2.7067
   84SLPC  H14C 7911   6.147   1.798   2.283  0.3145 -0.4263 -0.3732
   84SLPC   C15 7912   6.036   2.057   2.269 -0.8433 -0.1442  0.0615
   84SLPC  H15A 7913   5.963   1.990   2.311  0.0902 -2.3517 -1.6100
   84SLPC  H15B 7914   6.020   2.153   2.315 -0.5023  0.2554 -0.6297
   84SLPC  H15C 7915   6.006   2.067   2.166 -0.9705  0.9841  0.1987
   84SLPC   C12 7916   6.221   1.991   2.427 -0.2986  0.1035 -0.1258
   84SLPC  H12A 7917   6.143   1.945   2.486  1.7121 -2.1563  0.9023
   84SLPC  H12B 7918   6.228   2.091   2.468  1.5759 -0.4235  0.8950
   84SLPC   C11 7919   6.356   1.923   2.449  0.7864 -0.2181  0.1008
   84SLPC  H11A 7920   6.343   1.822   2.405  3.0455 -2.0708  3.2562
   84SLPC  H11B 7921   6.384   1.901   2.554  1.5365 -1.0373 -0.2522
   84SLPC     P 7922   6.601   1.932   2.333 -0.0510  0.1096 -0.0578
   84SLPC   O13 7923   6.579   1.795   2.283 -0.2115  0.0730 -0.6756
   84SLPC   O14 7924   6.660   2.027   2.239  0.3634 -0.2206  0.2221
   84SLPC   O12 7925   6.466   1.994   2.383 -0.3098  0.8466  0.4158
   84SLPC   O11 7926   6.693   1.932   2.465  0.0873 -0.0141  0.2959
   84SLPC    C1 7927   6.799   1.837   2.489  0.2966  0.1925  0.9756
   84SLPC    HA 7928   6.837   1.786   2.398  0.9056  0.9231  0.8068
   84SLPC    HB 7929   6.884   1.897   2.525  1.3315 -0.5792 -0.1096
   84SLPC    C2 7930   6.754   1.745   2.599 -0.1070  0.2456  0.0963
   84SLPC    HS 7931   6.669   1.685   2.561  0.7442 -0.8390 -0.1675
   84SLPC   O21 7932   6.725   1.823   2.713  0.1738 -0.4553 -0.9458
   84SLPC   C21 7933   6.596   1.834   2.756  0.2394 -0.2234  0.6768
   84SLPC   O22 7934   6.502   1.774   2.705  0.0149 -0.1257 -0.0547
   84SLPC   C22 7935   6.584   1.939   2.863  0.4058  0.4855 -0.2369
   84SLPC   H2R 7936   6.647   2.028   2.839 -0.5115  1.3788  0.5726
   84SLPC   H2S 7937   6.480   1.975   2.875  0.2480 -0.0947  0.1966
   84SLPC    C3 7938   6.863   1.648   2.644  0.1894  0.5830 -0.0411
   84SLPC    HX 7939   6.939   1.717   2.687  0.4713  0.1794  0.1096
   84SLPC    HY 7940   6.913   1.590   2.563 -2.5048  0.9589 -2.1303
   84SLPC   O31 7941   6.799   1.560   2.746 -0.3683  0.1456 -0.1049
   84SLPC   C31 7942   6.753   1.445   2.705 -0.5653  0.5106  0.2530
   84SLPC   O32 7943   6.752   1.397   2.591  0.3961  0.6609  0.5716
   84SLPC   C32 7944   6.722   1.352   2.820 -0.1689 -0.0839 -0.9360
   84SLPC   H2X 7945   6.795   1.351   2.904  0.6938 -2.3076 -1.6424
   84SLPC   H2Y 7946   6.741   1.249   2.782 -0.6123 -1.4522  2.2685
   84SLPC   C23 7947   6.622   1.877   3.005 -0.1941  0.3246  0.3130
   84SLPC   H3R 7948   6.586   1.772   3.016 -1.9604  0.3981 -3.2205
   84SLPC   H3S 7949   6.586   1.956   3.075 -0.1622  0.8532 -0.2617
   84SLPC   C24 7950   6.782   1.857   3.020  0.4427 -0.7522 -0.1005
   84SLPC   H4R 7951   6.837   1.953   3.015  2.1565 -1.7106 -0.2364
   84SLPC   H4S 7952   6.839   1.788   2.955  0.5245 -0.9686  0.1961
   84SLPC   C25 7953   6.817   1.791   3.165 -0.1757  0.6973  0.9541
   84SLPC   H5R 7954   6.927   1.786   3.176  0.0600 -2.4184 -1.3844
   84SLPC   H5S 7955   6.784   1.685   3.160  1.2443  0.2875 -1.2427
   84SLPC   C26 7956   6.755   1.858   3.287  0.3966  0.2051  0.0381
   84SLPC   H6R 7957   6.646   1.863   3.264  0.6058  1.2820 -0.7980
   84SLPC   H6S 7958   6.798   1.960   3.289 -0.8228  0.7311  1.5956
   84SLPC   C27 7959   6.787   1.786   3.419  0.1172 -0.7907 -0.1011
   84SLPC   H7R 7960   6.882   1.733   3.397 -0.0233 -0.2736 -2.1066
   84SLPC   H7S 7961   6.712   1.706   3.440  0.8818 -1.7722 -0.9960
   84SLPC   C28 7962   6.779   1.865   3.552 -0.0651 -0.6075 -0.1762
   84SLPC   H8R 7963   6.678   1.912   3.560 -0.0672  0.0351 -3.1447
   84SLPC   H8S 7964   6.838   1.958   3.545 -2.5578  1.1544  0.4940
   84SLPC   C29 7965   6.808   1.782   3.678 -0.6429 -0.2776 -0.7279
   84SLPC   H9R 7966   6.732   1.706   3.701  0.8531 -1.1658  1.6869
   84SLPC  C210 7967   6.905   1.785   3.760 -0.0525  0.4633 -0.2422
   84SLPC  H10R 7968   6.904   1.702   3.831  0.0382 -0.3387 -1.1570
   84SLPC  C211 7969   7.017   1.879   3.770 -0.4250 -0.1462 -0.1962
   84SLPC  H11R 7970   7.004   1.926   3.870 -3.1875  0.0658 -0.5734
   84SLPC  H11S 7971   7.015   1.964   3.697  2.1209 -0.8402 -1.1735
   84SLPC  C212 7972   7.161   1.828   3.753 -0.0519  0.1735  0.5544
   84SLPC  H12R 7973   7.188   1.787   3.655 -0.0589  2.0928 -0.2748
   84SLPC  C213 7974   7.249   1.829   3.856  0.7875  0.0614  0.1944
   84SLPC  H13R 7975   7.349   1.788   3.839  1.2416  1.1968  0.0789
   84SLPC  C214 7976   7.223   1.882   3.996 -0.4472 -0.3488 -0.2267
   84SLPC  H14R 7977   7.272   1.808   4.062  1.5170  0.3860 -0.7905
   84SLPC  H14S 7978   7.115   1.882   4.025  0.2347 -0.0849  2.6347
   84SLPC  C215 7979   7.277   2.025   4.028 -0.1235  0.6070  0.3963
   84SLPC  H15R 7980   7.197   2.098   4.002  1.0568  1.4102 -1.1999
   84SLPC  H15S 7981   7.361   2.052   3.961  0.1245 -1.4583 -0.1770
   84SLPC  C216 7982   7.327   2.050   4.176  0.1213 -0.6663  0.2731
   84SLPC  H16R 7983   7.409   1.981   4.207  1.5799  0.8295 -0.1142
   84SLPC  H16S 7984   7.238   2.022   4.237 -1.5950 -0.8177 -2.1807
   84SLPC  C217 7985   7.370   2.198   4.209  0.5659  0.6382  0.0314
   84SLPC  H17R 7986   7.281   2.265   4.208 -1.2656 -1.6400  0.8242
   84SLPC  H17S 7987   7.441   2.235   4.133  1.7915 -1.8981 -0.1654
   84SLPC  C218 7988   7.433   2.220   4.351  0.3168 -0.1884  0.0810
   84SLPC  H18R 7989   7.363   2.177   4.425  0.1654 -0.3389 -0.1452
   84SLPC  H18S 7990   7.444   2.330   4.359  0.7500 -0.2837  0.8788
   84SLPC  H18T 7991   7.535   2.175   4.353  1.6974  2.7057  0.5716
   84SLPC   C33 7992   6.569   1.352   2.868  0.4395 -0.4099  0.1175
   84SLPC   H3X 7993   6.557   1.258   2.925  0.0747 -0.8030 -0.5973
   84SLPC   H3Y 7994   6.501   1.354   2.780 -0.3454  0.2481  0.7236
   84SLPC   C34 7995   6.534   1.472   2.964 -0.5110  0.1028  0.4091
   84SLPC   H4X 7996   6.423   1.471   2.970 -0.4444 -0.8585  2.2051
   84SLPC   H4Y 7997   6.572   1.565   2.918  0.2720 -0.8845 -1.0250
   84SLPC   C35 7998   6.584   1.469   3.109  0.2606  0.0314  0.1288
   84SLPC   H5X 7999   6.580   1.570   3.155 -1.2479 -0.7439  1.7915
   84SLPC   H5Y 8000   6.692   1.445   3.098  0.1589 -0.9210  1.0224
   84SLPC   C36 8001   6.533   1.358   3.211  0.1904 -0.1439 -0.0423
   84SLPC   H6X 8002   6.538   1.254   3.172  1.4029 -1.4155  3.1933
   84SLPC   H6Y 8003   6.424   1.376   3.227  0.5576  1.8132  0.5441
   84SLPC   C37 8004   6.613   1.351   3.346 -0.1977  0.1751 -0.4142
   84SLPC   H7X 8005   6.722   1.367   3.332  0.0827 -1.0233  0.2862
   84SLPC   H7Y 8006   6.610   1.251   3.393 -3.1281 -0.2600 -1.3204
   84SLPC   C38 8007   6.578   1.452   3.456  0.1166  0.0106  0.3136
   84SLPC   H8X 8008   6.469   1.434   3.466 -0.3638 -1.0322 -4.4405
   84SLPC   H8Y 8009   6.591   1.552   3.409 -3.9087  1.4139  1.7800
   84SLPC   C39 8010   6.648   1.443   3.594 -0.3423  0.8764  0.1533
   84SLPC   H9X 8011   6.619   1.530   3.656  1.3234  1.6466 -0.0853
   84SLPC   H9Y 8012   6.755   1.451   3.563 -0.6011 -2.7527 -2.3970
   84SLPC  C310 8013   6.618   1.313   3.672  0.0627  0.0068 -0.6112
   84SLPC  H10X 8014   6.689   1.287   3.754 -3.4632  0.5526  2.9088
   84SLPC  H10Y 8015   6.635   1.221   3.612  2.5033 -1.4084  1.9808
   84SLPC  C311 8016   6.484   1.313   3.742  0.3339  0.7604 -0.4071
   84SLPC  H11X 8017   6.424   1.224   3.713  1.9384 -0.2476 -0.7297
   84SLPC  H11Y 8018   6.423   1.389   3.689 -0.5915  0.4745  0.2302
   84SLPC  C312 8019   6.486   1.333   3.899 -0.1973 -0.2614  0.6780
   84SLPC  H12X 8020   6.402   1.401   3.923 -0.9819 -0.8081 -0.4375
   84SLPC  H12Y 8021   6.576   1.393   3.923 -1.7926  2.0012  1.2464
   84SLPC  C313 8022   6.475   1.208   3.982 -0.1879 -0.0761 -0.1308
   84SLPC  H13X 8023   6.566   1.149   3.960 -0.6103 -0.5022 -0.8062
   84SLPC  H13Y 8024   6.388   1.145   3.953 -1.2503  0.7830  1.0916
   84SLPC  C314 8025   6.478   1.240   4.129 -0.1777 -0.5015  0.4227
   84SLPC  H14X 8026   6.403   1.317   4.156 -0.0969 -0.4794  0.5864
   84SLPC  H14Y 8027   6.572   1.296   4.148  0.8998 -1.4908 -1.6485
   84SLPC  C315 8028   6.475   1.117   4.218  0.2278 -0.2101  0.1788
   84SLPC  H15X 8029   6.374   1.074   4.197  0.8297 -0.9668 -1.3597
   84SLPC  H15Y 8030   6.479   1.153   4.323  1.8819  1.0600 -0.2812
   84SLPC  C316 8031   6.587   1.023   4.186 -0.5875  0.9708 -0.1585
   84SLPC  H16X 8032   6.685   1.076   4.191  0.2817 -0.5995  0.1099
   84SLPC  H16Y 8033   6.576   0.982   4.083 -0.1083  1.9172 -0.5996
   84SLPC  C317 8034   6.579   0.900   4.275  0.9498 -0.0264 -0.2805
   84SLPC  H17X 8035   6.589   0.801   4.226 -1.2263 -0.9095  0.9063
   84SLPC  H17Y 8036   6.474   0.908   4.310  1.2127  0.7572  0.3683
   84SLPC  C318 8037   6.672   0.920   4.394  0.0619 -0.5151 -0.2084
   84SLPC  H18X 8038   6.777   0.919   4.358  1.4218 -0.6976  3.3946
   84SLPC  H18Y 8039   6.661   0.849   4.478  0.8021  2.9399  3.0870
   84SLPC  H18Z 8040   6.650   1.018   4.442 -0.3464  0.5408 -2.3927
   85SLPC     N 8041   4.206   5.870   2.220  0.2537 -0.5951  0.1460
   85SLPC   C13 8042   4.325   5.878   2.310  0.2415  0.3835  0.7335
   85SLPC  H13A 8043   4.286   5.889   2.410 -0.2219  0.6740  0.5260
   85SLPC  H13B 8044   4.372   5.782   2.299  1.2323  1.0117 -0.8567
   85SLPC  H13C 8045   4.394   5.956   2.282  0.6624 -0.6492 -1.3227
   85SLPC   C14 8046   4.269   5.862   2.081  0.3213 -0.4699 -0.0605
   85SLPC  H14A 8047   4.264   5.961   2.037  0.5904 -0.6991 -0.6257
   85SLPC  H14B 8048   4.375   5.845   2.091  0.3700  0.9316  3.0534
   85SLPC  H14C 8049   4.220   5.799   2.009  2.3287  0.3476 -2.2903
   85SLPC   C15 8050   4.110   5.986   2.229 -0.3449  0.1618 -0.0956
   85SLPC  H15A 8051   4.037   5.976   2.150 -0.5143 -0.5214  0.1422
   85SLPC  H15B 8052   4.058   5.990   2.324 -0.8724 -0.8958 -0.3227
   85SLPC  H15C 8053   4.165   6.077   2.213 -1.4961  1.5632  3.0222
   85SLPC   C12 8054   4.131   5.732   2.248  0.3054 -0.0518 -0.5990
   85SLPC  H12A 8055   4.201   5.651   2.233 -0.2852 -0.4271 -1.3443
   85SLPC  H12B 8056   4.061   5.724   2.167 -1.4218 -0.9290  0.9251
   85SLPC   C11 8057   4.057   5.702   2.384 -0.6633 -0.5463  0.4706
   85SLPC  H11A 8058   4.045   5.593   2.402  1.4470 -0.3611  3.8848
   85SLPC  H11B 8059   3.954   5.744   2.377 -0.4087  0.3726  1.6791
   85SLPC     P 8060   4.063   5.838   2.614 -0.3022 -0.2039 -0.1100
   85SLPC   O13 8061   4.153   5.953   2.648 -0.1965 -0.0992  0.0705
   85SLPC   O14 8062   3.922   5.877   2.593 -0.2820 -0.3545 -1.0527
   85SLPC   O12 8063   4.129   5.759   2.492  0.0656  0.3197 -0.4953
   85SLPC   O11 8064   4.052   5.737   2.739  0.3167  0.2089 -0.5297
   85SLPC    C1 8065   4.117   5.612   2.725 -0.1413  0.1246  0.0715
   85SLPC    HA 8066   4.056   5.545   2.660  2.4673  0.7679 -3.3658
   85SLPC    HB 8067   4.216   5.618   2.675  0.7090 -0.3757  1.6402
   85SLPC    C2 8068   4.154   5.545   2.866 -0.3289  0.4408 -0.4770
   85SLPC    HS 8069   4.205   5.449   2.844 -1.9220 -0.3674 -0.7644
   85SLPC   O21 8070   4.036   5.528   2.955 -0.0581  0.0832  1.0161
   85SLPC   C21 8071   3.946   5.444   2.899 -0.5238  0.3422 -0.7578
   85SLPC   O22 8072   3.959   5.384   2.795 -0.0514 -0.4202 -0.0030
   85SLPC   C22 8073   3.828   5.433   2.996  0.1825 -0.5953 -0.4112
   85SLPC   H2R 8074   3.808   5.534   3.039 -1.8649 -1.5100  0.9020
   85SLPC   H2S 8075   3.745   5.403   2.929  1.5212 -0.1513 -2.3398
   85SLPC    C3 8076   4.261   5.635   2.943  0.1225  1.3054 -0.0001
   85SLPC    HX 8077   4.212   5.731   2.968 -0.9390  1.0627 -1.0231
   85SLPC    HY 8078   4.347   5.648   2.874 -1.1237  0.1930 -1.8749
   85SLPC   O31 8079   4.306   5.568   3.062 -0.6542 -0.0379  0.7089
   85SLPC   C31 8080   4.412   5.629   3.119 -0.0076 -0.2202  0.1924
   85SLPC   O32 8081   4.457   5.743   3.092  0.0383  0.0128 -0.4615
   85SLPC   C32 8082   4.462   5.537   3.226 -0.7909  0.0354  0.0086
   85SLPC   H2X 8083   4.510   5.453   3.172 -1.0557  0.8850 -1.6278
   85SLPC   H2Y 8084   4.375   5.488   3.276  0.0343  0.8147  2.3687
   85SLPC   C23 8085   3.857   5.329   3.115  0.0107  0.0244 -0.2116
   85SLPC   H3R 8086   3.940   5.352   3.185 -2.4526  3.8730  1.8442
   85SLPC   H3S 8087   3.881   5.231   3.070 -0.0832 -0.3701  0.5906
   85SLPC   C24 8088   3.733   5.323   3.199  0.2328  0.7872 -0.1123
   85SLPC   H4R 8089   3.667   5.248   3.151  2.3550 -1.9429  0.9659
   85SLPC   H4S 8090   3.702   5.430   3.194 -0.9635  0.4612  0.1722
   85SLPC   C25 8091   3.769   5.275   3.344 -0.5593  0.2015 -0.1349
   85SLPC   H5R 8092   3.786   5.165   3.348 -0.0122  0.3108  0.6116
   85SLPC   H5S 8093   3.865   5.323   3.372  0.9035 -2.6886  0.1822
   85SLPC   C26 8094   3.675   5.321   3.461  0.1366 -0.1968  0.5756
   85SLPC   H6R 8095   3.579   5.272   3.436  0.6620 -1.7506  1.5419
   85SLPC   H6S 8096   3.654   5.428   3.436  1.1601  0.0899  0.8922
   85SLPC   C27 8097   3.723   5.290   3.599  0.3604 -0.2818 -0.1136
   85SLPC   H7R 8098   3.833   5.272   3.597  0.2673 -1.2686  1.9259
   85SLPC   H7S 8099   3.678   5.196   3.637  0.9054 -1.0580 -1.3232
   85SLPC   C28 8100   3.713   5.411   3.704  1.1138  0.0975  0.0433
   85SLPC   H8R 8101   3.603   5.424   3.713  1.2844  0.4216  2.0004
   85SLPC   H8S 8102   3.756   5.507   3.669  0.5183  0.6408  0.7804
   85SLPC   C29 8103   3.779   5.370   3.829  0.4190  0.1924  0.3616
   85SLPC   H9R 8104   3.886   5.353   3.813  0.0409  0.3635 -2.9789
   85SLPC  C210 8105   3.723   5.334   3.943 -0.5793 -0.2126  0.2072
   85SLPC  H10R 8106   3.778   5.305   4.034 -2.9704 -2.9052  0.9517
   85SLPC  C211 8107   3.578   5.318   3.957  0.9392 -0.2552 -0.2619
   85SLPC  H11R 8108   3.537   5.229   3.904 -2.4936 -0.6138  2.5706
   85SLPC  H11S 8109   3.518   5.400   3.910 -1.0829 -1.2818  0.4101
   85SLPC  C212 8110   3.532   5.297   4.094 -0.2529  0.9829  0.7675
   85SLPC  H12R 8111   3.505   5.389   4.148  1.3651  2.9294 -1.5123
   85SLPC  C213 8112   3.492   5.181   4.151 -0.2469 -0.5030  0.4642
   85SLPC  H13R 8113   3.463   5.180   4.257 -0.6516 -2.5355  0.3766
   85SLPC  C214 8114   3.489   5.044   4.085  0.8657  0.6551 -0.6824
   85SLPC  H14R 8115   3.592   5.002   4.087  0.9201  0.8015 -0.3910
   85SLPC  H14S 8116   3.464   5.043   3.977  0.0502 -1.5798 -0.5301
   85SLPC  C215 8117   3.395   4.933   4.153  0.3558  0.1759 -0.1543
   85SLPC  H15R 8118   3.413   4.837   4.100  2.7979 -0.4297  1.6252
   85SLPC  H15S 8119   3.294   4.978   4.148  0.5628  0.7188  0.3826
   85SLPC  C216 8120   3.418   4.913   4.307  0.6339 -0.6379 -0.5051
   85SLPC  H16R 8121   3.387   5.000   4.368  1.4659  0.3999 -1.5224
   85SLPC  H16S 8122   3.524   4.883   4.324  0.5381 -1.0339 -0.5815
   85SLPC  C217 8123   3.335   4.801   4.368  0.0774  0.8277 -0.1182
   85SLPC  H17R 8124   3.322   4.721   4.293 -2.1169 -0.5177  1.5831
   85SLPC  H17S 8125   3.239   4.828   4.417 -0.0683  0.7126 -0.3443
   85SLPC  C218 8126   3.421   4.741   4.491  0.0550 -0.2222  0.6617
   85SLPC  H18R 8127   3.517   4.695   4.456 -0.1659 -1.6080  1.7795
   85SLPC  H18S 8128   3.358   4.662   4.538 -0.6720  0.8971  1.6020
   85SLPC  H18T 8129   3.459   4.822   4.557  0.9787  1.0108 -1.2830
   85SLPC   C33 8130   4.558   5.618   3.315  0.2490 -0.4709  0.2332
   85SLPC   H3X 8131   4.642   5.667   3.261  1.5060 -0.3485  2.1793
   85SLPC   H3Y 8132   4.603   5.540   3.380 -0.9830 -1.3242  0.0977
   85SLPC   C34 8133   4.493   5.720   3.407  0.0504 -0.0289  0.0700
   85SLPC   H4X 8134   4.389   5.695   3.436  0.8904 -2.7843  0.9880
   85SLPC   H4Y 8135   4.495   5.822   3.363 -2.4741  1.0526  2.2327
   85SLPC   C35 8136   4.574   5.745   3.536 -0.1136  0.1991  0.0516
   85SLPC   H5X 8137   4.677   5.781   3.515  1.3932 -2.4848  2.0577
   85SLPC   H5Y 8138   4.604   5.645   3.575  2.1859  0.6102 -0.5213
   85SLPC   C36 8139   4.499   5.816   3.645 -0.3683 -0.2002  0.5753
   85SLPC   H6X 8140   4.405   5.759   3.658  0.5696 -2.4569 -1.5583
   85SLPC   H6Y 8141   4.475   5.920   3.612 -1.3523 -0.2854  0.9916
   85SLPC   C37 8142   4.582   5.828   3.770 -0.3054 -0.4401 -0.1112
   85SLPC   H7X 8143   4.684   5.864   3.745 -0.3973 -0.5679 -0.6777
   85SLPC   H7Y 8144   4.591   5.723   3.805  0.4229 -0.4483 -0.3106
   85SLPC   C38 8145   4.519   5.911   3.880 -0.5518  0.4791  0.7402
   85SLPC   H8X 8146   4.487   6.005   3.831 -1.3471 -1.2308 -2.3143
   85SLPC   H8Y 8147   4.596   5.914   3.961  1.1269  0.6702 -0.7994
   85SLPC   C39 8148   4.391   5.840   3.931 -0.2068  0.0748 -0.4928
   85SLPC   H9X 8149   4.425   5.750   3.986  1.4323  1.0985  0.2413
   85SLPC   H9Y 8150   4.310   5.812   3.860 -0.1538 -0.4481 -0.3480
   85SLPC  C310 8151   4.333   5.926   4.044 -0.2783  0.3581  0.0332
   85SLPC  H10X 8152   4.425   5.962   4.094  1.2212 -1.4839 -1.2956
   85SLPC  H10Y 8153   4.285   5.861   4.120 -0.8684 -1.0969 -1.5222
   85SLPC  C311 8154   4.243   6.037   4.000 -0.4388 -0.5650  0.1062
   85SLPC  H11X 8155   4.154   5.990   3.951 -2.0784  0.2305  2.1866
   85SLPC  H11Y 8156   4.300   6.095   3.924  1.2084 -0.0095  1.6988
   85SLPC  C312 8157   4.204   6.133   4.116  0.4404 -0.5705  0.3549
   85SLPC  H12X 8158   4.293   6.186   4.155 -0.6188  0.3003  1.7117
   85SLPC  H12Y 8159   4.156   6.071   4.195 -1.5487  1.4885  0.8793
   85SLPC  C313 8160   4.111   6.241   4.073 -0.5900 -0.6927 -0.3351
   85SLPC  H13X 8161   4.026   6.189   4.023 -0.7484 -0.4674 -0.3045
   85SLPC  H13Y 8162   4.167   6.299   3.997  1.2105  1.1700  2.2346
   85SLPC  C314 8163   4.057   6.330   4.191  0.1902 -0.1337  0.7793
   85SLPC  H14X 8164   3.978   6.398   4.153 -0.2208  0.3259  2.3881
   85SLPC  H14Y 8165   4.145   6.386   4.227  1.1216  1.4393 -3.3718
   85SLPC  C315 8166   3.986   6.267   4.312  0.9265 -0.6634  0.0491
   85SLPC  H15X 8167   3.991   6.339   4.395  0.4205 -0.1696 -0.3413
   85SLPC  H15Y 8168   4.040   6.171   4.326 -1.6246 -2.7059 -2.5971
   85SLPC  C316 8169   3.840   6.218   4.286  0.3955 -0.3604 -0.0441
   85SLPC  H16X 8170   3.845   6.132   4.216 -0.1882 -0.1822 -0.3094
   85SLPC  H16Y 8171   3.784   6.301   4.238 -1.2573 -0.6424  1.3055
   85SLPC  C317 8172   3.768   6.187   4.413 -0.0750 -0.0282 -0.3365
   85SLPC  H17X 8173   3.759   6.277   4.478  0.4097 -0.1216 -0.1373
   85SLPC  H17Y 8174   3.825   6.115   4.474 -0.5596 -0.7832 -0.7557
   85SLPC  C318 8175   3.626   6.136   4.388  0.5620  0.1730 -0.5356
   85SLPC  H18X 8176   3.617   6.058   4.310 -3.0467 -1.7601  1.5533
   85SLPC  H18Y 8177   3.553   6.219   4.376  0.5324  0.2514  0.1259
   85SLPC  H18Z 8178   3.590   6.082   4.479  2.4804 -1.2095 -0.5320
   86SLPC     N 8179   5.669   4.066   2.089 -0.4512  0.3650  0.6704
   86SLPC   C13 8180   5.553   4.138   2.154  0.3119 -0.5655 -0.1431
   86SLPC  H13A 8181   5.478   4.065   2.182  0.0032 -0.3426 -0.3688
   86SLPC  H13B 8182   5.580   4.198   2.239  1.1154 -0.5463 -0.4032
   86SLPC  H13C 8183   5.508   4.204   2.080  0.1329  0.4800  0.8778
   86SLPC   C14 8184   5.773   4.167   2.051  0.3511 -0.2803  1.1225
   86SLPC  H14A 8185   5.856   4.122   1.999 -0.0324  1.5045 -1.1782
   86SLPC  H14B 8186   5.726   4.233   1.979 -2.0516 -1.5831  1.4146
   86SLPC  H14C 8187   5.818   4.214   2.138 -1.0006  3.5450 -0.0576
   86SLPC   C15 8188   5.622   4.007   1.965  0.3971  0.2597 -0.6659
   86SLPC  H15A 8189   5.578   4.084   1.903 -0.9807  1.3480  1.5193
   86SLPC  H15B 8190   5.691   3.948   1.908  0.3933  0.0337 -0.4396
   86SLPC  H15C 8191   5.540   3.939   1.983 -0.7762  1.3736 -1.6067
   86SLPC   C12 8192   5.738   3.977   2.187 -0.5668  0.0604 -0.7550
   86SLPC  H12A 8193   5.775   4.039   2.267  0.9410 -0.9123 -0.6541
   86SLPC  H12B 8194   5.818   3.931   2.131  0.6118  0.5807  0.4420
   86SLPC   C11 8195   5.653   3.863   2.248 -0.0036  0.8779  0.3983
   86SLPC  H11A 8196   5.548   3.900   2.248  0.0417  1.1311 -1.9933
   86SLPC  H11B 8197   5.683   3.835   2.351  0.2128 -1.1425 -0.1796
   86SLPC     P 8198   5.798   3.676   2.129  0.1922 -0.1740  0.0812
   86SLPC   O13 8199   5.776   3.543   2.065 -0.2355  0.1776  0.1688
   86SLPC   O14 8200   5.890   3.767   2.061  0.4079 -0.0102  0.3212
   86SLPC   O12 8201   5.657   3.746   2.154 -0.2586  0.6291  0.3265
   86SLPC   O11 8202   5.863   3.646   2.274 -0.1037  0.3206 -0.6725
   86SLPC    C1 8203   5.809   3.546   2.359  0.7431  0.5438 -0.3408
   86SLPC    HA 8204   5.738   3.477   2.309  1.6192  0.9860 -2.3131
   86SLPC    HB 8205   5.890   3.479   2.393  0.5939  0.2851 -0.4927
   86SLPC    C2 8206   5.735   3.597   2.493 -0.4777  0.2690  0.3765
   86SLPC    HS 8207   5.638   3.644   2.466 -1.7540 -1.8493  1.0229
   86SLPC   O21 8208   5.817   3.687   2.560  0.1798 -0.6333 -0.0198
   86SLPC   C21 8209   5.770   3.756   2.666 -0.5207  0.3840  0.2645
   86SLPC   O22 8210   5.657   3.756   2.703  0.1468 -0.2210  0.3481
   86SLPC   C22 8211   5.876   3.820   2.742 -0.2103  0.4981 -0.0208
   86SLPC   H2R 8212   5.977   3.797   2.701 -1.3481 -0.7328 -2.2932
   86SLPC   H2S 8213   5.861   3.930   2.734 -1.1002  0.2673 -2.2009
   86SLPC    C3 8214   5.695   3.476   2.584  0.1276  0.0609 -0.1262
   86SLPC    HX 8215   5.639   3.400   2.525  0.7335 -0.5045  0.0156
   86SLPC    HY 8216   5.638   3.525   2.665  1.5719  0.9529  0.3736
   86SLPC   O31 8217   5.817   3.403   2.635  0.5802  0.6362 -0.2174
   86SLPC   C31 8218   5.778   3.288   2.687  0.3600 -0.1381 -0.1397
   86SLPC   O32 8219   5.658   3.258   2.709 -0.2897 -0.4223  0.1279
   86SLPC   C32 8220   5.900   3.196   2.722  0.2788 -0.2601 -0.3901
   86SLPC   H2X 8221   5.992   3.251   2.752 -0.5263  1.2780 -0.6156
   86SLPC   H2Y 8222   5.931   3.150   2.626 -0.1001  1.6811 -1.5002
   86SLPC   C23 8223   5.867   3.762   2.884 -0.1295  0.5855 -0.0817
   86SLPC   H3R 8224   5.771   3.788   2.934  0.3046  1.0190  0.5336
   86SLPC   H3S 8225   5.948   3.795   2.953 -2.1505 -0.0889  2.8220
   86SLPC   C24 8226   5.872   3.605   2.898  0.7123  0.4279 -0.5019
   86SLPC   H4R 8227   5.963   3.572   2.842  0.4587 -1.7778  0.2648
   86SLPC   H4S 8228   5.784   3.553   2.855  0.3303 -0.6538  1.4392
   86SLPC   C25 8229   5.891   3.551   3.038 -0.1517 -0.1971 -0.6317
   86SLPC   H5R 8230   5.909   3.442   3.035 -0.3039 -0.1971 -1.9787
   86SLPC   H5S 8231   5.794   3.568   3.088 -0.5834  0.6438 -1.7045
   86SLPC   C26 8232   6.006   3.610   3.119  0.2915 -0.5603  0.3268
   86SLPC   H6R 8233   5.988   3.710   3.164 -0.6595 -2.2837  4.2320
   86SLPC   H6S 8234   6.099   3.612   3.058 -0.2280 -2.3128 -0.5909
   86SLPC   C27 8235   6.041   3.521   3.241 -0.3476 -0.4600  0.5158
   86SLPC   H7R 8236   6.123   3.568   3.299  1.1852 -0.7674 -1.2972
   86SLPC   H7S 8237   6.086   3.429   3.196  2.1312  0.9739 -0.1411
   86SLPC   C28 8238   5.917   3.489   3.332 -0.2827  0.4393  0.2697
   86SLPC   H8R 8239   5.957   3.404   3.392  1.9250  0.4782 -1.0170
   86SLPC   H8S 8240   5.841   3.437   3.270 -1.0356  0.6202  1.0250
   86SLPC   C29 8241   5.864   3.613   3.397 -0.1464 -0.5007  0.5717
   86SLPC   H9R 8242   5.865   3.703   3.333 -1.7298  0.5477  1.9467
   86SLPC  C210 8243   5.816   3.621   3.518  0.0746 -0.1002 -0.1097
   86SLPC  H10R 8244   5.801   3.722   3.558 -1.1815 -0.9635  1.7270
   86SLPC  C211 8245   5.792   3.507   3.618  0.9651  0.4240  0.2223
   86SLPC  H11R 8246   5.884   3.478   3.672 -0.5463 -2.5523  1.4570
   86SLPC  H11S 8247   5.767   3.412   3.566  2.1101  0.3976 -0.3111
   86SLPC  C212 8248   5.690   3.547   3.726 -0.5822 -0.4672 -0.2832
   86SLPC  H12R 8249   5.585   3.561   3.699 -0.3912  1.8833 -0.0186
   86SLPC  C213 8250   5.726   3.573   3.855 -0.4715  0.7957 -0.2427
   86SLPC  H13R 8251   5.643   3.584   3.926 -0.2751  3.2126 -0.3233
   86SLPC  C214 8252   5.864   3.584   3.915 -0.0921  0.3144 -0.5139
   86SLPC  H14R 8253   5.873   3.662   3.993 -0.5598 -0.5264  0.4007
   86SLPC  H14S 8254   5.938   3.619   3.840  0.9990  0.9785  0.8317
   86SLPC  C215 8255   5.917   3.451   3.975  0.0461 -0.1330 -0.1788
   86SLPC  H15R 8256   5.922   3.366   3.903 -0.4824 -1.5230  1.3425
   86SLPC  H15S 8257   5.848   3.414   4.053  1.1125 -3.0549 -0.4935
   86SLPC  C216 8258   6.057   3.458   4.029 -0.2311  0.3963 -0.5041
   86SLPC  H16R 8259   6.069   3.547   4.094  0.7649 -0.7808  1.0166
   86SLPC  H16S 8260   6.120   3.460   3.938 -0.6325 -1.4264 -0.8720
   86SLPC  C217 8261   6.097   3.340   4.123 -0.4447 -0.2516 -0.2125
   86SLPC  H17R 8262   6.104   3.244   4.067  1.8210 -0.1560 -0.1849
   86SLPC  H17S 8263   6.007   3.326   4.187 -0.3027  0.9746  0.2886
   86SLPC  C218 8264   6.219   3.366   4.200 -0.6172 -0.5210  0.0705
   86SLPC  H18R 8265   6.310   3.375   4.137 -0.5805  1.6063  0.3533
   86SLPC  H18S 8266   6.241   3.278   4.265  1.3393  1.4256  2.1958
   86SLPC  H18T 8267   6.206   3.457   4.262  1.4927 -0.4239  0.4580
   86SLPC   C33 8268   5.868   3.075   2.816  0.2796  0.7447 -0.4789
   86SLPC   H3X 8269   5.963   3.017   2.821  0.0427  0.4223  0.4718
   86SLPC   H3Y 8270   5.782   3.016   2.779 -0.4848  0.6897  1.2982
   86SLPC   C34 8271   5.845   3.125   2.958  0.1300  0.2734  0.1671
   86SLPC   H4X 8272   5.769   3.206   2.959  1.4034  1.4911  1.6203
   86SLPC   H4Y 8273   5.941   3.174   2.985  0.4800  0.4538 -1.2987
   86SLPC   C35 8274   5.807   3.014   3.060 -0.1075  0.1372 -0.1316
   86SLPC   H5X 8275   5.880   2.935   3.036 -0.0226  0.9862 -3.0816
   86SLPC   H5Y 8276   5.706   2.972   3.041  0.0289  0.2287 -1.0810
   86SLPC   C36 8277   5.829   3.055   3.211  0.8059  0.5140  0.0448
   86SLPC   H6X 8278   5.744   3.118   3.246 -0.6160 -0.8662 -0.7721
   86SLPC   H6Y 8279   5.920   3.118   3.224  0.3047  0.9097  2.0044
   86SLPC   C37 8280   5.836   2.934   3.303 -0.1805 -0.4341 -0.4249
   86SLPC   H7X 8281   5.907   2.858   3.264 -2.2936 -1.9458 -1.5046
   86SLPC   H7Y 8282   5.737   2.886   3.313  1.0640 -3.0857  0.0121
   86SLPC   C38 8283   5.868   2.980   3.449  0.3686  0.4077  0.8687
   86SLPC   H8X 8284   5.959   3.040   3.427  0.2751  0.0499 -0.5491
   86SLPC   H8Y 8285   5.904   2.890   3.503  3.3950  1.2960  0.5366
   86SLPC   C39 8286   5.768   3.079   3.512  0.3874  0.6819 -0.2824
   86SLPC   H9X 8287   5.665   3.039   3.499 -0.0357  1.7933 -0.4680
   86SLPC   H9Y 8288   5.770   3.172   3.452 -0.0114 -0.7353 -2.6103
   86SLPC  C310 8289   5.805   3.117   3.659  0.2864 -0.1796 -0.4990
   86SLPC  H10X 8290   5.726   3.191   3.686 -1.4001 -2.3417  0.8389
   86SLPC  H10Y 8291   5.901   3.171   3.643 -0.9403  2.5926  0.8595
   86SLPC  C311 8292   5.834   3.003   3.762  0.4051 -0.2389 -0.6278
   86SLPC  H11X 8293   5.925   2.956   3.720  1.7804  0.1283  1.7612
   86SLPC  H11Y 8294   5.744   2.938   3.761 -0.0991  0.3635  1.1686
   86SLPC  C312 8295   5.853   3.047   3.912 -0.1982  0.5848  0.7023
   86SLPC  H12X 8296   5.760   3.088   3.955 -0.5516 -0.9210  1.4319
   86SLPC  H12Y 8297   5.925   3.132   3.912 -0.7699  1.1576 -2.0178
   86SLPC  C313 8298   5.928   2.936   3.995 -0.1062 -0.5350 -0.0055
   86SLPC  H13X 8299   6.031   2.916   3.959  0.2567 -2.5197  1.9487
   86SLPC  H13Y 8300   5.861   2.850   3.977 -1.3703  0.5782 -0.7966
   86SLPC  C314 8301   5.944   2.975   4.139 -0.3689 -0.4155  0.1429
   86SLPC  H14X 8302   5.848   3.000   4.190  0.0038  0.6108  0.3547
   86SLPC  H14Y 8303   6.003   3.069   4.142  0.8736 -1.1830  0.6181
   86SLPC  C315 8304   6.033   2.871   4.209 -0.9565 -0.1309 -0.2390
   86SLPC  H15X 8305   6.126   2.850   4.153  0.3056  1.0713  1.3072
   86SLPC  H15Y 8306   5.977   2.776   4.222 -0.3103 -0.3223  1.3336
   86SLPC  C316 8307   6.085   2.908   4.353  0.1320  0.0136  0.0842
   86SLPC  H16X 8308   6.099   2.818   4.416  2.0596  0.9310  1.0515
   86SLPC  H16Y 8309   5.995   2.948   4.405  1.0840  2.3539  0.0462
   86SLPC  C317 8310   6.212   2.991   4.360 -0.5835  0.3155 -0.3034
   86SLPC  H17X 8311   6.223   3.015   4.468  1.4770  1.1536 -0.6381
   86SLPC  H17Y 8312   6.207   3.089   4.308 -1.5487  0.7906  0.6372
   86SLPC  C318 8313   6.348   2.929   4.309  0.2993 -0.0040 -0.6894
   86SLPC  H18X 8314   6.357   2.831   4.362 -0.6675  1.0354  1.5471
   86SLPC  H18Y 8315   6.435   2.991   4.340 -0.6694  0.5923  0.9718
   86SLPC  H18Z 8316   6.343   2.920   4.199 -2.3387  0.5245 -0.6884
   87SLPC     N 8317   3.890   2.907   2.072  0.4444 -0.5849  0.5668
   87SLPC   C13 8318   4.030   2.921   2.113  0.0125  0.7185 -0.9742
   87SLPC  H13A 8319   4.043   3.020   2.153 -0.4961  0.3734  0.0682
   87SLPC  H13B 8320   4.058   2.843   2.183  0.3115  0.5275 -1.2997
   87SLPC  H13C 8321   4.097   2.921   2.028 -1.8832 -1.9091 -2.6289
   87SLPC   C14 8322   3.887   2.785   1.989 -0.2044  0.0722  0.0751
   87SLPC  H14A 8323   3.788   2.759   1.953  0.1235 -1.5386  0.2425
   87SLPC  H14B 8324   3.954   2.788   1.904  0.8153  1.2778  0.8972
   87SLPC  H14C 8325   3.908   2.696   2.047 -0.8331 -0.9618 -1.2021
   87SLPC   C15 8326   3.862   3.023   1.981  0.0681  0.6007  0.3510
   87SLPC  H15A 8327   3.763   3.010   1.938 -0.1744  2.9144  0.1131
   87SLPC  H15B 8328   3.866   3.113   2.040 -0.1463  0.8509 -0.0115
   87SLPC  H15C 8329   3.939   3.025   1.905 -0.3707 -2.8171 -0.3849
   87SLPC   C12 8330   3.792   2.900   2.189 -0.3877 -0.4233  0.6988
   87SLPC  H12A 8331   3.815   2.811   2.247 -2.1773 -3.0242 -2.2723
   87SLPC  H12B 8332   3.698   2.875   2.142  0.5462  0.5443 -1.8316
   87SLPC   C11 8333   3.777   3.028   2.274 -0.4071  0.5654  0.2159
   87SLPC  H11A 8334   3.878   3.055   2.310 -0.7872  0.8446  1.0918
   87SLPC  H11B 8335   3.717   3.008   2.365 -0.3632 -1.1017 -0.0782
   87SLPC     P 8336   3.587   3.132   2.126  0.0634 -0.8339  0.0036
   87SLPC   O13 8337   3.615   3.221   2.009 -0.5840 -0.2326 -0.3112
   87SLPC   O14 8338   3.536   2.991   2.109  0.0983 -0.2887  0.2076
   87SLPC   O12 8339   3.726   3.140   2.204 -0.0816  0.0589  0.7939
   87SLPC   O11 8340   3.492   3.205   2.234 -0.1126 -0.4426  0.2447
   87SLPC    C1 8341   3.529   3.331   2.294 -0.2101  0.0425 -0.1975
   87SLPC    HA 8342   3.624   3.332   2.351  0.8131 -0.1650 -1.8749
   87SLPC    HB 8343   3.538   3.407   2.214  0.3202 -0.6457 -0.8044
   87SLPC    C2 8344   3.408   3.384   2.382  0.4776  0.9231  0.0838
   87SLPC    HS 8345   3.442   3.463   2.453  1.0778  1.0230 -0.3128
   87SLPC   O21 8346   3.349   3.277   2.453  0.0548  0.2441  0.0471
   87SLPC   C21 8347   3.422   3.231   2.554  0.1822 -0.1751 -0.3869
   87SLPC   O22 8348   3.519   3.286   2.600 -0.4995  0.2863  0.2970
   87SLPC   C22 8349   3.362   3.097   2.597  0.4455  0.4100  0.3296
   87SLPC   H2R 8350   3.302   3.123   2.687 -1.1720  3.0219 -1.3781
   87SLPC   H2S 8351   3.284   3.075   2.521  0.6970  3.8473 -1.0901
   87SLPC    C3 8352   3.298   3.449   2.288 -0.2194  0.7586 -0.3978
   87SLPC    HX 8353   3.251   3.384   2.210 -2.0603 -1.2762  2.2264
   87SLPC    HY 8354   3.338   3.539   2.237 -0.1360  1.9392  1.6665
   87SLPC   O31 8355   3.189   3.494   2.372  0.5206  0.0984  1.1102
   87SLPC   C31 8356   3.086   3.409   2.391  0.1976 -0.2836  1.0505
   87SLPC   O32 8357   3.066   3.309   2.326 -0.5025 -0.0455  0.1409
   87SLPC   C32 8358   2.998   3.463   2.503  0.3596 -0.1836 -0.5844
   87SLPC   H2X 8359   2.892   3.435   2.486  1.2216 -1.5696 -4.8953
   87SLPC   H2Y 8360   3.009   3.573   2.515 -1.1046 -0.0375 -0.4297
   87SLPC   C23 8361   3.477   2.998   2.628 -0.3832 -0.4068 -0.5857
   87SLPC   H3R 8362   3.540   3.034   2.712 -1.2954  1.3771 -0.6010
   87SLPC   H3S 8363   3.550   2.984   2.545  1.0211  0.1259  0.5189
   87SLPC   C24 8364   3.418   2.853   2.663 -1.0242 -0.0844  0.6686
   87SLPC   H4R 8365   3.501   2.781   2.678  1.4613  2.3608 -0.5026
   87SLPC   H4S 8366   3.380   2.812   2.567  1.3950 -0.9485  0.0203
   87SLPC   C25 8367   3.314   2.842   2.773 -0.6847  0.5509  0.1730
   87SLPC   H5R 8368   3.272   2.740   2.783  0.5721  0.1173  1.3711
   87SLPC   H5S 8369   3.222   2.892   2.736 -1.0798 -0.9634 -0.9664
   87SLPC   C26 8370   3.358   2.900   2.909  0.0270  0.0791 -0.6164
   87SLPC   H6R 8371   3.351   3.010   2.897 -2.4081 -0.0911 -1.2648
   87SLPC   H6S 8372   3.461   2.862   2.926 -0.1468 -1.4449 -2.6587
   87SLPC   C27 8373   3.287   2.839   3.036  0.3540  0.4275 -0.0374
   87SLPC   H7R 8374   3.281   2.728   3.032 -2.2990  0.4476  1.2623
   87SLPC   H7S 8375   3.182   2.873   3.052  0.3851 -0.5253  2.7281
   87SLPC   C28 8376   3.357   2.871   3.177  0.4483 -0.1556  0.2891
   87SLPC   H8R 8377   3.283   2.840   3.253  2.4742 -1.9772  1.6109
   87SLPC   H8S 8378   3.358   2.982   3.184  1.7312 -0.2031  1.3166
   87SLPC   C29 8379   3.491   2.807   3.206 -0.1613  0.2584  0.2285
   87SLPC   H9R 8380   3.546   2.782   3.114 -1.6040 -2.3585 -0.0456
   87SLPC  C210 8381   3.520   2.747   3.327 -0.2857 -0.3745 -0.7875
   87SLPC  H10R 8382   3.626   2.718   3.336 -0.1681 -0.0769 -1.1715
   87SLPC  C211 8383   3.439   2.777   3.450  0.2231 -0.8529  0.1903
   87SLPC  H11R 8384   3.360   2.708   3.485 -0.6929  1.5492  3.4097
   87SLPC  H11S 8385   3.389   2.875   3.440  0.1448 -0.9531 -0.4316
   87SLPC  C212 8386   3.533   2.796   3.572 -0.0543 -0.4099 -0.5895
   87SLPC  H12R 8387   3.643   2.798   3.561  0.0889 -0.5025  0.6877
   87SLPC  C213 8388   3.486   2.803   3.699  0.8849  0.1518 -0.7870
   87SLPC  H13R 8389   3.551   2.785   3.786  0.4232  0.7198 -0.3196
   87SLPC  C214 8390   3.344   2.794   3.749  0.9055 -0.3576 -0.1161
   87SLPC  H14R 8391   3.318   2.686   3.750  1.1919 -0.4721 -1.7053
   87SLPC  H14S 8392   3.267   2.857   3.699  2.2153  1.0410 -0.4405
   87SLPC  C215 8393   3.345   2.834   3.899 -1.1557  0.5464  0.1225
   87SLPC  H15R 8394   3.382   2.938   3.915  0.2626 -0.1615  1.7580
   87SLPC  H15S 8395   3.412   2.767   3.957 -1.3061 -0.0896 -0.4191
   87SLPC  C216 8396   3.204   2.825   3.966 -0.3757  0.7844 -0.1976
   87SLPC  H16R 8397   3.151   2.916   3.931 -0.4711  1.3887  1.4142
   87SLPC  H16S 8398   3.223   2.834   4.076 -0.5779 -0.3929 -0.0507
   87SLPC  C217 8399   3.127   2.692   3.953 -0.2418  0.0847  1.0710
   87SLPC  H17R 8400   3.104   2.671   3.847 -0.4411 -1.4504  1.4031
   87SLPC  H17S 8401   3.028   2.694   4.004 -0.3011  0.3715  0.9493
   87SLPC  C218 8402   3.204   2.570   4.007  0.4821 -0.0155 -0.2761
   87SLPC  H18R 8403   3.251   2.582   4.107  0.7919 -4.6281  0.3239
   87SLPC  H18S 8404   3.279   2.536   3.933 -0.4444  0.3337 -1.4190
   87SLPC  H18T 8405   3.131   2.488   4.024  0.8392 -0.4490 -0.8044
   87SLPC   C33 8406   3.049   3.397   2.633  0.0023  0.4624  0.1148
   87SLPC   H3X 8407   3.046   3.479   2.707 -1.4308  1.7286 -1.2673
   87SLPC   H3Y 8408   3.158   3.376   2.631  0.1705  1.1425  1.2604
   87SLPC   C34 8409   2.975   3.269   2.688  0.2985 -0.3957  0.7394
   87SLPC   H4X 8410   2.994   3.187   2.614 -0.6445 -1.0888  1.2513
   87SLPC   H4Y 8411   2.866   3.290   2.686 -0.2754 -2.9329 -1.4126
   87SLPC   C35 8412   3.018   3.211   2.818 -0.2880  0.6538 -0.9267
   87SLPC   H5X 8413   3.117   3.166   2.796  0.1574  1.5774 -0.8920
   87SLPC   H5Y 8414   2.948   3.127   2.834 -0.3060  0.7913 -0.2155
   87SLPC   C36 8415   3.025   3.308   2.935 -0.0919 -0.7171 -1.0249
   87SLPC   H6X 8416   2.931   3.365   2.951  0.2077 -0.9559  2.2493
   87SLPC   H6Y 8417   3.089   3.396   2.910  0.2343 -0.8257 -0.5884
   87SLPC   C37 8418   3.077   3.246   3.075 -0.5540 -0.6253  0.0887
   87SLPC   H7X 8419   3.080   3.326   3.153 -2.0833 -0.3661 -0.0821
   87SLPC   H7Y 8420   3.182   3.212   3.071  0.2413  1.7214 -3.5848
   87SLPC   C38 8421   2.995   3.132   3.120  0.2371  0.1787  0.9310
   87SLPC   H8X 8422   2.999   3.046   3.050  0.7912 -1.2641  2.6662
   87SLPC   H8Y 8423   2.892   3.175   3.123  0.0400 -0.2936  1.0499
   87SLPC   C39 8424   3.041   3.091   3.254  0.1718  0.3790 -0.7097
   87SLPC   H9X 8425   3.049   3.174   3.327 -0.9953 -2.0462  2.4257
   87SLPC   H9Y 8426   3.145   3.062   3.229  0.9297  1.0535  1.4216
   87SLPC  C310 8427   2.963   2.973   3.318 -0.1652 -0.7277  0.4998
   87SLPC  H10X 8428   2.975   2.881   3.256  2.7994 -1.4440  1.9518
   87SLPC  H10Y 8429   2.858   3.003   3.332  0.1263  0.4135  0.3416
   87SLPC  C311 8430   3.020   2.950   3.462  0.6182 -0.1862 -0.5654
   87SLPC  H11X 8431   3.039   3.041   3.521  3.6628  0.7138 -2.6641
   87SLPC  H11Y 8432   3.117   2.897   3.448  1.3558  1.2988 -1.3576
   87SLPC  C312 8433   2.927   2.865   3.556 -0.4584 -0.5376 -0.1188
   87SLPC  H12X 8434   2.979   2.820   3.643 -2.6936  0.0632  1.6385
   87SLPC  H12Y 8435   2.877   2.787   3.494  1.8171 -1.1946 -1.2474
   87SLPC  C313 8436   2.818   2.941   3.617 -0.3624 -0.1663  0.0592
   87SLPC  H13X 8437   2.738   2.950   3.540 -1.1928  2.0391  1.1057
   87SLPC  H13Y 8438   2.847   3.039   3.660  3.3924 -1.6623  1.3605
   87SLPC  C314 8439   2.759   2.867   3.735  0.3953 -0.5348 -0.0419
   87SLPC  H14X 8440   2.823   2.878   3.825  0.9110  0.4986 -0.5068
   87SLPC  H14Y 8441   2.757   2.760   3.705 -0.8251 -0.3945 -0.5213
   87SLPC  C315 8442   2.613   2.898   3.776 -0.3480 -0.2338  0.1968
   87SLPC  H15X 8443   2.613   3.006   3.803  0.5412  0.0337 -0.7675
   87SLPC  H15Y 8444   2.579   2.831   3.857 -2.7002  2.3795  1.5285
   87SLPC  C316 8445   2.503   2.899   3.664 -0.2715  0.4574 -0.1402
   87SLPC  H16X 8446   2.504   2.808   3.600 -0.0065  0.4868 -0.1782
   87SLPC  H16Y 8447   2.511   2.985   3.594  1.4603 -0.1086 -0.6810
   87SLPC  C317 8448   2.370   2.908   3.733  0.0961 -0.3321 -0.5857
   87SLPC  H17X 8449   2.370   2.998   3.798 -0.5619  0.2233 -1.3300
   87SLPC  H17Y 8450   2.358   2.827   3.808 -0.5181 -0.0702 -0.3934
   87SLPC  C318 8451   2.249   2.891   3.646 -0.2606  0.3856 -0.2758
   87SLPC  H18X 8452   2.158   2.918   3.704  0.4164 -0.2961  1.1426
   87SLPC  H18Y 8453   2.234   2.790   3.602 -0.4818  1.0647 -1.8228
   87SLPC  H18Z 8454   2.256   2.947   3.551 -0.0832  0.9277  0.0560
   88SLPC     N 8455   5.286   2.827   1.775 -0.3389  0.2200 -0.4952
   88SLPC   C13 8456   5.389   2.838   1.887 -0.3441  0.3222  0.4468
   88SLPC  H13A 8457   5.451   2.925   1.868 -0.0437 -0.1797 -1.0491
   88SLPC  H13B 8458   5.351   2.829   1.987 -2.0140  0.0389 -0.1827
   88SLPC  H13C 8459   5.454   2.753   1.876  0.4729  0.8084  1.3556
   88SLPC   C14 8460   5.356   2.852   1.646 -0.0152  0.7813 -0.4400
   88SLPC  H14A 8461   5.432   2.777   1.633  1.2489  2.0513 -0.6382
   88SLPC  H14B 8462   5.293   2.861   1.559  0.0878  1.4970 -0.4505
   88SLPC  H14C 8463   5.405   2.948   1.644  1.6486 -0.0589 -1.7144
   88SLPC   C15 8464   5.174   2.933   1.795 -0.6915 -0.8945  0.7283
   88SLPC  H15A 8465   5.100   2.932   1.717  0.6354 -2.3169 -0.5936
   88SLPC  H15B 8466   5.131   2.921   1.893 -0.1266 -1.6899  0.8894
   88SLPC  H15C 8467   5.214   3.033   1.797 -1.1721 -0.6423 -0.7122
   88SLPC   C12 8468   5.226   2.687   1.779  0.2764  0.3190  0.7246
   88SLPC  H12A 8469   5.306   2.615   1.774 -0.0099  0.0644 -0.8949
   88SLPC  H12B 8470   5.152   2.668   1.702 -0.4510 -1.7502  1.8473
   88SLPC   C11 8471   5.148   2.640   1.906 -0.1244  0.5030  0.8690
   88SLPC  H11A 8472   5.124   2.532   1.899  1.6749  0.0999  0.2594
   88SLPC  H11B 8473   5.050   2.691   1.905  0.8618  2.4932  0.0755
   88SLPC     P 8474   5.183   2.718   2.154  0.2548 -0.2155  0.0665
   88SLPC   O13 8475   5.292   2.798   2.212 -0.6443  0.0599 -0.3449
   88SLPC   O14 8476   5.057   2.790   2.138  0.1467  0.1431  0.1303
   88SLPC   O12 8477   5.231   2.649   2.018 -0.4103  0.6823 -0.7029
   88SLPC   O11 8478   5.160   2.582   2.238 -0.5421  0.2537 -0.4516
   88SLPC    C1 8479   5.076   2.601   2.350 -0.7970  0.1836  0.2472
   88SLPC    HA 8480   5.119   2.676   2.419  0.3441 -1.3058  1.2031
   88SLPC    HB 8481   4.979   2.648   2.322  0.7250  2.1346 -2.0971
   88SLPC    C2 8482   5.042   2.477   2.444 -0.3879  0.8346 -0.7767
   88SLPC    HS 8483   4.977   2.507   2.529  1.1679 -0.2643  0.8697
   88SLPC   O21 8484   5.164   2.417   2.495  0.2228 -1.0170 -0.0498
   88SLPC   C21 8485   5.216   2.479   2.607 -0.8400 -0.4287 -0.3324
   88SLPC   O22 8486   5.167   2.586   2.645  0.4380  0.7477  0.5431
   88SLPC   C22 8487   5.332   2.400   2.655 -0.0131  0.0848  0.1333
   88SLPC   H2R 8488   5.321   2.293   2.626  2.4621 -0.3573  0.6259
   88SLPC   H2S 8489   5.422   2.439   2.603 -0.1764  0.8156  0.3846
   88SLPC    C3 8490   4.977   2.372   2.361 -0.2430 -0.3298  0.0565
   88SLPC    HX 8491   5.031   2.355   2.264 -0.0420 -1.7391  0.3857
   88SLPC    HY 8492   4.880   2.409   2.324  0.8521  1.2093 -1.4202
   88SLPC   O31 8493   4.960   2.244   2.428 -0.1685  0.1048  0.3245
   88SLPC   C31 8494   4.840   2.212   2.484 -0.7766 -0.4941 -0.1768
   88SLPC   O32 8495   4.736   2.281   2.480  0.2604  0.6739 -0.2544
   88SLPC   C32 8496   4.849   2.077   2.542  0.3379 -0.6333  0.1875
   88SLPC   H2X 8497   4.930   2.009   2.506 -0.1577 -1.7791  1.1698
   88SLPC   H2Y 8498   4.751   2.035   2.511 -1.2475  2.9662 -0.0605
   88SLPC   C23 8499   5.350   2.405   2.805 -0.2984  0.1900  0.1510
   88SLPC   H3R 8500   5.378   2.507   2.840  0.7975 -0.4010  1.0550
   88SLPC   H3S 8501   5.434   2.336   2.826  0.1053  0.1109 -1.5277
   88SLPC   C24 8502   5.229   2.353   2.889  0.4308  0.3898 -0.3788
   88SLPC   H4R 8503   5.228   2.249   2.849  1.8439 -0.4672  1.6253
   88SLPC   H4S 8504   5.129   2.397   2.872  0.5607  0.5974 -0.6122
   88SLPC   C25 8505   5.273   2.350   3.040 -0.0945 -0.4469 -0.2219
   88SLPC   H5R 8506   5.300   2.450   3.079 -0.1092  0.1040 -1.5916
   88SLPC   H5S 8507   5.357   2.279   3.052  1.0209  0.8454 -0.2031
   88SLPC   C26 8508   5.161   2.291   3.124  0.2421 -0.1620 -0.3684
   88SLPC   H6R 8509   5.138   2.187   3.094 -2.7327 -0.4876  2.4602
   88SLPC   H6S 8510   5.065   2.343   3.105  0.0897  0.2444  1.3409
   88SLPC   C27 8511   5.176   2.292   3.278  0.5353  0.3521 -0.1825
   88SLPC   H7R 8512   5.273   2.248   3.308  0.8833  2.2090  1.6443
   88SLPC   H7S 8513   5.106   2.233   3.340 -0.4771  0.4405 -1.2057
   88SLPC   C28 8514   5.171   2.436   3.336 -0.1130 -0.4794  0.8904
   88SLPC   H8R 8515   5.248   2.499   3.286 -0.2588 -0.7692  0.2969
   88SLPC   H8S 8516   5.216   2.425   3.437 -0.6993 -1.7916  1.0321
   88SLPC   C29 8517   5.046   2.517   3.337 -0.3271 -0.4929  0.6825
   88SLPC   H9R 8518   5.007   2.547   3.238 -0.9484  0.2892  1.1473
   88SLPC  C210 8519   4.982   2.566   3.441  0.9433 -0.2498  0.0175
   88SLPC  H10R 8520   4.891   2.627   3.427  1.7075  0.6303 -1.3802
   88SLPC  C211 8521   5.032   2.567   3.584  0.2571  0.3471  0.3968
   88SLPC  H11R 8522   5.143   2.575   3.578  0.1304  1.3146 -1.6980
   88SLPC  H11S 8523   4.991   2.480   3.639  0.5056  0.6251  1.0258
   88SLPC  C212 8524   4.999   2.704   3.643 -0.1296  0.0194  0.1346
   88SLPC  H12R 8525   5.054   2.787   3.597 -1.9912  1.7121  0.7884
   88SLPC  C213 8526   4.908   2.726   3.735 -0.1383  0.3787 -0.3457
   88SLPC  H13R 8527   4.899   2.832   3.763  0.3049  0.2000  0.4938
   88SLPC  C214 8528   4.799   2.632   3.782  0.1462 -0.1984 -0.0339
   88SLPC  H14R 8529   4.838   2.572   3.867 -0.2654 -0.2089  0.1469
   88SLPC  H14S 8530   4.781   2.562   3.698  1.3887  0.6668 -1.0616
   88SLPC  C215 8531   4.657   2.686   3.817  0.5872 -0.3213 -0.2562
   88SLPC  H15R 8532   4.596   2.594   3.826  0.6823 -0.4603 -0.9940
   88SLPC  H15S 8533   4.629   2.762   3.741 -0.6840  0.6199  1.0778
   88SLPC  C216 8534   4.663   2.765   3.945 -0.3593  0.2605 -0.0343
   88SLPC  H16R 8535   4.572   2.829   3.947 -0.9206 -0.5287  1.9742
   88SLPC  H16S 8536   4.755   2.826   3.943 -0.3808  0.3368  0.7903
   88SLPC  C217 8537   4.656   2.681   4.068  0.2741 -0.1605 -0.4987
   88SLPC  H17R 8538   4.718   2.589   4.070 -1.4491 -1.3789 -1.2568
   88SLPC  H17S 8539   4.551   2.645   4.066 -0.1996  1.1649 -0.4730
   88SLPC  C218 8540   4.674   2.767   4.199  0.1887  0.5165 -0.2463
   88SLPC  H18R 8541   4.672   2.696   4.284 -0.2357 -0.0596 -0.7200
   88SLPC  H18S 8542   4.582   2.828   4.211 -0.5975 -0.9862  2.1560
   88SLPC  H18T 8543   4.768   2.825   4.207 -0.0355  0.6773  1.6835
   88SLPC   C33 8544   4.842   2.082   2.698  0.4065 -0.4439  0.6625
   88SLPC   H3X 8545   4.791   1.988   2.729 -1.0303 -0.0386 -0.3932
   88SLPC   H3Y 8546   4.786   2.161   2.752  1.3457 -0.8761  2.3312
   88SLPC   C34 8547   4.979   2.066   2.758 -0.0460  0.4715  0.5149
   88SLPC   H4X 8548   5.022   2.162   2.794  1.2746  0.5981 -1.2759
   88SLPC   H4Y 8549   5.049   2.023   2.684 -2.2297 -2.1977 -0.1565
   88SLPC   C35 8550   4.975   1.976   2.887 -0.8465 -0.4651 -0.2811
   88SLPC   H5X 8551   5.082   1.961   2.913 -0.5732  0.0407 -1.0727
   88SLPC   H5Y 8552   4.945   1.877   2.848 -1.3374  0.6248 -2.9159
   88SLPC   C36 8553   4.904   2.034   3.011 -0.2870  0.2717  0.1631
   88SLPC   H6X 8554   4.796   2.057   3.005 -0.0492  1.7219  0.8778
   88SLPC   H6Y 8555   4.947   2.133   3.039  1.5067 -0.4520  0.0996
   88SLPC   C37 8556   4.934   1.942   3.133 -0.8500 -0.3474 -0.1869
   88SLPC   H7X 8557   5.045   1.942   3.142 -0.6569  0.8142 -2.0340
   88SLPC   H7Y 8558   4.900   1.838   3.113  0.0044 -0.7976  0.6526
   88SLPC   C38 8559   4.862   2.000   3.252  0.8989 -0.2663  0.0616
   88SLPC   H8X 8560   4.756   2.017   3.226  0.4744 -0.8642  1.3393
   88SLPC   H8Y 8561   4.912   2.091   3.291 -0.2020  1.1701 -1.7172
   88SLPC   C39 8562   4.848   1.907   3.377 -0.0845 -0.2621 -0.0305
   88SLPC   H9X 8563   4.952   1.901   3.414 -1.0360  0.2725  2.9668
   88SLPC   H9Y 8564   4.803   1.810   3.347 -0.1072 -1.0779  2.4034
   88SLPC  C310 8565   4.766   1.952   3.502 -0.4626  0.0140  0.7307
   88SLPC  H10X 8566   4.774   1.877   3.584  2.2792  1.1756  1.6523
   88SLPC  H10Y 8567   4.662   1.955   3.465 -0.0501 -3.4473 -1.1788
   88SLPC  C311 8568   4.812   2.088   3.564 -0.0814 -0.7796  1.2505
   88SLPC  H11X 8569   4.812   2.160   3.479  4.2023 -0.7451  1.0680
   88SLPC  H11Y 8570   4.918   2.082   3.597  0.0317  1.9453  1.5975
   88SLPC  C312 8571   4.726   2.126   3.683  0.3853  0.2418  0.2468
   88SLPC  H12X 8572   4.626   2.136   3.636  0.5593  0.5137 -0.0704
   88SLPC  H12Y 8573   4.758   2.228   3.713 -1.6383  1.1703 -0.6018
   88SLPC  C313 8574   4.726   2.031   3.805 -0.6987 -0.2213  0.3298
   88SLPC  H13X 8575   4.677   1.936   3.773 -1.8721  0.4347  0.1061
   88SLPC  H13Y 8576   4.648   2.069   3.874 -1.8860 -1.5338 -0.2331
   88SLPC  C314 8577   4.856   2.025   3.874 -0.4669  1.1013  0.5188
   88SLPC  H14X 8578   4.934   2.007   3.797 -0.9007  1.0824  0.0782
   88SLPC  H14Y 8579   4.851   1.946   3.952  0.6944 -0.2367 -0.7052
   88SLPC  C315 8580   4.890   2.158   3.947  0.0251 -0.1507 -0.3160
   88SLPC  H15X 8581   4.811   2.199   4.013 -1.3673 -1.3621 -1.1559
   88SLPC  H15Y 8582   4.919   2.234   3.871 -2.2888  1.2658  0.0945
   88SLPC  C316 8583   5.010   2.128   4.040 -0.4713 -0.5482 -0.3395
   88SLPC  H16X 8584   5.079   2.053   3.996 -2.1638 -1.7378 -1.1033
   88SLPC  H16Y 8585   4.991   2.091   4.143  3.4802 -0.0850  0.6945
   88SLPC  C317 8586   5.093   2.263   4.061 -0.1478  0.5099 -0.8607
   88SLPC  H17X 8587   5.170   2.219   4.127 -1.4822 -1.9336 -0.8031
   88SLPC  H17Y 8588   5.035   2.347   4.106  0.9693  1.0416 -0.3904
   88SLPC  C318 8589   5.163   2.302   3.935 -0.4836 -0.6893 -0.2405
   88SLPC  H18X 8590   5.113   2.378   3.871 -2.3959 -3.0434 -1.7224
   88SLPC  H18Y 8591   5.209   2.213   3.887  1.0141 -0.4387  0.6661
   88SLPC  H18Z 8592   5.254   2.363   3.952 -2.1952  1.5585  1.3420
   89SAPE     N 8593   0.356   1.553   6.741  0.5189 -0.8778 -1.0111
   89SAPE   HN1 8594   0.279   1.516   6.681 -0.4610 -0.2646 -0.1819
   89SAPE   HN2 8595   0.354   1.495   6.827 -0.4844  1.6061  0.7884
   89SAPE   HN3 8596   0.322   1.647   6.773  0.1353 -1.5559  0.6962
   89SAPE   C12 8597   0.490   1.574   6.684 -0.2785  0.0785  0.1803
   89SAPE  H12A 8598   0.481   1.634   6.591 -1.4051 -0.2340  0.0815
   89SAPE  H12B 8599   0.538   1.474   6.682  1.3208  0.8135  0.3466
   89SAPE   C11 8600   0.569   1.669   6.777 -0.3506 -1.0082  0.8818
   89SAPE  H11A 8601   0.659   1.705   6.722 -0.0850 -4.3250 -1.1242
   89SAPE  H11B 8602   0.600   1.622   6.874  1.4985  2.4302  2.1506
   89SAPE     P 8603   0.536   1.889   6.907 -0.0090  0.0052 -0.4059
   89SAPE   O13 8604   0.408   1.934   6.970 -0.4223  0.4172 -0.2436
   89SAPE   O14 8605   0.639   1.836   6.993 -0.0706  0.3797 -0.0996
   89SAPE   O12 8606   0.488   1.780   6.809  0.4969  0.2033 -0.1014
   89SAPE   O11 8607   0.591   2.002   6.816 -0.0113 -0.3376 -0.7029
   89SAPE    C1 8608   0.519   2.057   6.706  0.1144 -0.1336  0.6526
   89SAPE    HA 8609   0.410   2.067   6.722 -0.1902 -0.2161 -1.1127
   89SAPE    HB 8610   0.562   2.157   6.686 -0.9271 -0.0185 -1.2979
   89SAPE    C2 8611   0.543   1.985   6.568  0.1365 -0.7330  0.5173
   89SAPE    HS 8612   0.594   1.889   6.589 -0.3083 -0.8436  1.1299
   89SAPE   O21 8613   0.623   2.064   6.480 -0.4596  0.0941 -0.3413
   89SAPE   C21 8614   0.754   2.065   6.493 -1.1643 -0.5992  0.4829
   89SAPE   O22 8615   0.818   2.023   6.587  1.0406  0.0735  0.4490
   89SAPE   C22 8616   0.814   2.142   6.378  0.5238  0.3538 -0.2920
   89SAPE   H2R 8617   0.781   2.248   6.383 -1.1961 -0.1329 -0.5590
   89SAPE   H2S 8618   0.924   2.131   6.380  0.5079 -0.4318 -2.0674
   89SAPE    C3 8619   0.414   1.951   6.496  0.2915  0.5151 -0.1250
   89SAPE    HX 8620   0.352   2.043   6.509  1.4951  1.5096 -1.1580
   89SAPE    HY 8621   0.359   1.877   6.559 -0.9818 -0.7735 -2.5994
   89SAPE   O31 8622   0.410   1.912   6.358 -0.2270 -0.4148 -0.1491
   89SAPE   C31 8623   0.471   1.804   6.313 -0.0281 -0.6244  0.7883
   89SAPE   O32 8624   0.532   1.719   6.376  0.3646 -0.1827  0.2332
   89SAPE   C32 8625   0.474   1.797   6.158 -0.1974  0.4613 -0.7647
   89SAPE   H2X 8626   0.436   1.695   6.139  1.9400 -1.2246  2.7993
   89SAPE   H2Y 8627   0.581   1.804   6.127 -0.9875  0.6596 -3.7224
   89SAPE   C23 8628   0.767   2.078   6.243 -0.3279 -0.0609  0.1421
   89SAPE   H3R 8629   0.656   2.084   6.238 -0.3502 -1.1869 -1.1465
   89SAPE   H3S 8630   0.788   1.970   6.233  1.9045  0.3639 -0.3950
   89SAPE   C24 8631   0.827   2.153   6.120  0.1258  0.5724 -0.7342
   89SAPE   H4R 8632   0.935   2.165   6.141  0.7302 -1.1271 -2.5702
   89SAPE   H4S 8633   0.792   2.259   6.123 -0.0130  0.5819 -2.0382
   89SAPE   C25 8634   0.796   2.069   5.999 -0.5244 -0.9287  0.3466
   89SAPE   H5R 8635   0.754   1.970   6.018 -1.0080 -1.1958 -1.8975
   89SAPE   C26 8636   0.804   2.117   5.875  0.0288  0.1330 -0.2895
   89SAPE   H6R 8637   0.782   2.046   5.794  0.8479 -1.3331  0.7158
   89SAPE   C27 8638   0.856   2.245   5.824  0.3839 -0.7482  0.0066
   89SAPE   H7R 8639   0.949   2.225   5.767  1.5704  3.4336  0.1396
   89SAPE   H7S 8640   0.893   2.316   5.901 -3.3000  0.1692  1.1376
   89SAPE   C28 8641   0.750   2.316   5.737 -0.3827 -0.0972 -0.0376
   89SAPE   H8R 8642   0.665   2.361   5.791 -1.5265  0.7358 -2.4113
   89SAPE   C29 8643   0.748   2.314   5.598  0.3988  0.2553 -0.0976
   89SAPE   H9R 8644   0.671   2.370   5.542  1.3583  0.5521 -1.1521
   89SAPE  C210 8645   0.837   2.241   5.504  0.2193 -0.0485 -0.1234
   89SAPE  H10R 8646   0.784   2.149   5.470 -1.8841  1.1911 -0.3443
   89SAPE  H10S 8647   0.922   2.193   5.557  0.7848 -1.6224 -2.3249
   89SAPE  C211 8648   0.861   2.314   5.374 -0.6898 -0.0906  0.1361
   89SAPE  H11R 8649   0.954   2.372   5.381 -0.6750 -0.2469  1.4290
   89SAPE  C212 8650   0.796   2.305   5.253 -0.1341  0.4549  0.4868
   89SAPE  H12R 8651   0.828   2.367   5.168 -1.6106 -0.4221 -0.7475
   89SAPE  C213 8652   0.665   2.222   5.226  0.2001  0.0043 -0.0094
   89SAPE  H13R 8653   0.607   2.281   5.153  0.6187 -2.2504 -2.3133
   89SAPE  H13S 8654   0.606   2.207   5.319  0.4977  1.2392  0.3976
   89SAPE  C214 8655   0.698   2.094   5.161  0.7815  0.0020 -0.3731
   89SAPE  H14R 8656   0.742   2.013   5.221 -0.3227 -0.7076 -0.4892
   89SAPE  C215 8657   0.656   2.062   5.034  0.3374  0.7768 -0.0992
   89SAPE  H15R 8658   0.702   1.971   4.991 -0.7693  0.0726  0.1820
   89SAPE  C216 8659   0.580   2.140   4.925 -0.4323 -0.5308  0.1594
   89SAPE  H16R 8660   0.547   2.242   4.954 -2.7038 -0.5758 -1.8808
   89SAPE  H16S 8661   0.489   2.080   4.904  0.1373 -1.3591  0.0118
   89SAPE  C217 8662   0.662   2.174   4.792  0.1721  0.4458 -0.4335
   89SAPE  H17R 8663   0.596   2.209   4.710  1.0206  0.7615 -1.0032
   89SAPE  H17S 8664   0.714   2.079   4.768  1.2697  1.0631 -0.5648
   89SAPE  C218 8665   0.771   2.277   4.813 -0.2612  0.4972 -0.5897
   89SAPE  H18R 8666   0.827   2.239   4.901  0.8579  3.7388  0.2483
   89SAPE  H18S 8667   0.732   2.379   4.834  1.6616  1.8791 -3.1857
   89SAPE  C219 8668   0.851   2.301   4.682  0.7890  0.3708 -0.5806
   89SAPE  H19R 8669   0.768   2.317   4.609  0.6859  1.1739 -0.2951
   89SAPE  H19S 8670   0.897   2.204   4.655 -0.6373  0.2443 -2.9376
   89SAPE  C220 8671   0.955   2.416   4.691  0.8725  0.0408  0.5519
   89SAPE  H20R 8672   1.007   2.434   4.595  0.4967 -0.1638  0.3082
   89SAPE  H20S 8673   1.028   2.395   4.771 -0.7495 -0.4344  1.9749
   89SAPE  H20T 8674   0.911   2.516   4.712  1.5054  0.7907 -1.5142
   89SAPE   C33 8675   0.401   1.906   6.085  0.6494  0.7225 -0.5671
   89SAPE   H3X 8676   0.415   2.001   6.141 -2.1219  0.3407  0.9440
   89SAPE   H3Y 8677   0.291   1.886   6.090  0.7607  0.2583  0.1319
   89SAPE   C34 8678   0.446   1.916   5.939  0.1261 -0.3867 -0.2526
   89SAPE   H4X 8679   0.418   1.830   5.875  0.6617 -1.2477  0.6408
   89SAPE   H4Y 8680   0.556   1.910   5.935  0.1358 -0.2443 -0.1974
   89SAPE   C35 8681   0.406   2.049   5.876 -0.7566 -0.3322 -0.4295
   89SAPE   H5X 8682   0.443   2.134   5.936 -2.4892  0.6706 -0.7146
   89SAPE   H5Y 8683   0.295   2.054   5.881 -0.8719 -0.6491 -2.0031
   89SAPE   C36 8684   0.451   2.062   5.725 -0.0446  0.1794  0.0070
   89SAPE   H6X 8685   0.560   2.061   5.703  0.2429  2.3044  1.0260
   89SAPE   H6Y 8686   0.410   2.158   5.686  0.9089  0.7443  0.3412
   89SAPE   C37 8687   0.381   1.957   5.640 -0.1495  0.7230  0.2126
   89SAPE   H7X 8688   0.274   1.962   5.671 -0.0300  2.5609  0.4587
   89SAPE   H7Y 8689   0.423   1.856   5.660 -1.6330  0.4244  2.2133
   89SAPE   C38 8690   0.378   1.980   5.481 -0.1613  0.3591 -0.0120
   89SAPE   H8X 8691   0.337   1.887   5.437  2.8874 -1.2549  0.2748
   89SAPE   H8Y 8692   0.479   2.001   5.440 -0.5224  3.0478  0.3158
   89SAPE   C39 8693   0.307   2.104   5.439 -0.2666 -0.1686  0.0971
   89SAPE   H9X 8694   0.368   2.186   5.481 -1.1835  0.1763  0.7937
   89SAPE   H9Y 8695   0.202   2.100   5.475 -0.7190 -2.7745 -1.2401
   89SAPE  C310 8696   0.298   2.123   5.283  0.0024  0.2841 -0.3365
   89SAPE  H10X 8697   0.395   2.094   5.237  0.3704  1.1607 -0.1123
   89SAPE  H10Y 8698   0.295   2.233   5.270 -0.7435  0.3838  0.6119
   89SAPE  C311 8699   0.174   2.057   5.214  0.5432  0.3360  0.0821
   89SAPE  H11X 8700   0.076   2.092   5.255  0.2337 -1.0166  0.5501
   89SAPE  H11Y 8701   0.187   1.949   5.233 -0.5770  0.2039  0.2022
   89SAPE  C312 8702   0.179   2.077   5.062  0.1424  0.2593 -0.1302
   89SAPE  H12X 8703   0.287   2.065   5.037 -0.0594 -0.6781 -0.5934
   89SAPE  H12Y 8704   0.153   2.176   5.021 -0.8126 -0.9793 -2.7214
   89SAPE  C313 8705   0.100   1.978   4.976 -0.5429  0.1806 -0.3003
   89SAPE  H13X 8706  -0.010   1.995   4.972 -1.0028 -2.1994  0.8386
   89SAPE  H13Y 8707   0.119   1.882   5.027  0.8615  0.7657  0.3264
   89SAPE  C314 8708   0.139   1.981   4.831 -0.5710  0.1150 -0.3227
   89SAPE  H14X 8709   0.247   1.962   4.814 -0.8944 -0.5260 -1.8142
   89SAPE  H14Y 8710   0.129   2.084   4.791  0.4710  0.3637  0.0223
   89SAPE  C315 8711   0.049   1.886   4.755 -0.9108 -0.0424 -0.1476
   89SAPE  H15X 8712  -0.058   1.913   4.767 -0.6537  0.5532  0.9149
   89SAPE  H15Y 8713   0.062   1.789   4.807 -1.2851 -0.1656 -0.2796
   89SAPE  C316 8714   0.065   1.882   4.600  0.5846 -1.8201  0.4348
   89SAPE  H16X 8715   0.054   1.989   4.570 -1.1222 -1.3010  2.6436
   89SAPE  H16Y 8716  -0.022   1.831   4.553  0.0633  0.4496 -1.2818
   89SAPE  C317 8717   0.196   1.820   4.560 -0.5737 -0.1859 -0.1587
   89SAPE  H17X 8718   0.185   1.717   4.598 -2.7294  0.2159  0.4474
   89SAPE  H17Y 8719   0.279   1.869   4.615 -1.1787  0.5889  0.0823
   89SAPE  C318 8720   0.229   1.831   4.412 -0.2415  0.6466  0.5052
   89SAPE  H18X 8721   0.165   1.760   4.354 -0.1311  0.2598  0.8480
   89SAPE  H18Y 8722   0.333   1.794   4.395 -0.6941  0.1871 -1.5110
   89SAPE  H18Z 8723   0.227   1.934   4.373  1.4307  1.3928  2.2257
   90SAPE     N 8724   2.957   2.406   6.570 -0.3126 -0.4302  1.0657
   90SAPE   HN1 8725   3.057   2.379   6.568 -0.7600 -2.2498  1.6097
   90SAPE   HN2 8726   2.935   2.474   6.646 -0.1103 -0.5204  1.2064
   90SAPE   HN3 8727   2.912   2.316   6.594  1.8212 -2.5008 -1.9198
   90SAPE   C12 8728   2.928   2.446   6.431  0.4361  0.4981  0.4941
   90SAPE  H12A 8729   2.985   2.536   6.399  0.9287 -0.4348 -1.3793
   90SAPE  H12B 8730   2.818   2.456   6.422  0.4750 -0.3535 -1.4275
   90SAPE   C11 8731   2.968   2.337   6.328 -0.0150  0.0949  0.3457
   90SAPE  H11A 8732   2.922   2.379   6.236 -1.9149 -2.4743  0.0257
   90SAPE  H11B 8733   2.927   2.237   6.352  3.6152 -1.0351  2.8030
   90SAPE     P 8734   3.216   2.232   6.390 -0.4013  0.0724 -0.0390
   90SAPE   O13 8735   3.185   2.247   6.534  0.0392 -0.2601  0.0617
   90SAPE   O14 8736   3.210   2.093   6.339  0.4027 -0.2235  0.1102
   90SAPE   O12 8737   3.114   2.324   6.311 -0.3823 -0.4591 -0.0888
   90SAPE   O11 8738   3.364   2.281   6.357  0.0208  0.9292 -0.0962
   90SAPE    C1 8739   3.400   2.371   6.254  0.3209 -0.4800 -0.3207
   90SAPE    HA 8740   3.321   2.443   6.223  0.6374  0.2553  0.5521
   90SAPE    HB 8741   3.476   2.428   6.311 -0.7699 -1.0623  1.8133
   90SAPE    C2 8742   3.467   2.298   6.129  1.0193 -0.0604 -0.0891
   90SAPE    HS 8743   3.479   2.370   6.044 -1.8705 -1.5178 -1.8778
   90SAPE   O21 8744   3.377   2.199   6.087  0.1254 -0.2688 -0.1365
   90SAPE   C21 8745   3.267   2.239   6.016  0.6238  0.0185  0.1115
   90SAPE   O22 8746   3.246   2.354   5.988  0.4962  0.4629  0.6187
   90SAPE   C22 8747   3.178   2.119   5.986  0.0771 -0.9804  0.4247
   90SAPE   H2R 8748   3.236   2.027   5.968 -1.2327 -2.0479  1.4230
   90SAPE   H2S 8749   3.108   2.099   6.071 -0.0825 -4.2902 -0.3575
   90SAPE    C3 8750   3.601   2.243   6.161 -0.4972 -0.0678  0.2513
   90SAPE    HX 8751   3.600   2.174   6.248  0.8164  0.1287  0.4453
   90SAPE    HY 8752   3.668   2.329   6.184 -1.3171 -0.1146  3.2698
   90SAPE   O31 8753   3.658   2.180   6.046  0.4705  0.3655 -0.2830
   90SAPE   C31 8754   3.781   2.136   6.070 -0.4351  0.1968  0.4886
   90SAPE   O32 8755   3.848   2.150   6.170  0.6485 -0.3670  0.6013
   90SAPE   C32 8756   3.832   2.079   5.944 -0.2012  0.2286  0.7776
   90SAPE   H2X 8757   3.812   2.145   5.856 -0.5185  0.4315  1.0017
   90SAPE   H2Y 8758   3.769   1.988   5.930 -1.2615  1.0117  0.2501
   90SAPE   C23 8759   3.088   2.144   5.861  0.7129  0.8776  0.3543
   90SAPE   H3R 8760   3.145   2.211   5.793 -0.2911 -1.3222 -2.8973
   90SAPE   H3S 8761   3.001   2.202   5.898  2.2505  1.2982  3.6023
   90SAPE   C24 8762   3.049   2.005   5.801  0.4497  0.1695  0.8811
   90SAPE   H4R 8763   3.017   1.930   5.875 -1.0224 -0.4917 -0.3880
   90SAPE   H4S 8764   3.146   1.965   5.765  0.8137  0.4683  1.5107
   90SAPE   C25 8765   2.945   2.014   5.685 -0.1935  0.0892 -0.4906
   90SAPE   H5R 8766   2.838   2.012   5.711 -0.2950 -0.9722 -0.9219
   90SAPE   C26 8767   2.988   2.025   5.557  0.0321  0.8591 -0.1694
   90SAPE   H6R 8768   2.917   2.023   5.473  1.8343  0.1880 -1.7385
   90SAPE   C27 8769   3.133   2.024   5.515  0.1447  0.4746 -0.2425
   90SAPE   H7R 8770   3.151   1.918   5.488  1.1274 -0.1403  2.5252
   90SAPE   H7S 8771   3.208   2.039   5.596  0.9628 -1.7087 -0.5364
   90SAPE   C28 8772   3.147   2.125   5.407 -0.0316 -0.2756 -0.1001
   90SAPE   H8R 8773   3.168   2.226   5.447  0.0161 -0.3319  0.0148
   90SAPE   C29 8774   3.140   2.110   5.274 -0.9748  0.3166 -0.6824
   90SAPE   H9R 8775   3.146   2.201   5.213  0.7752  0.1423 -0.8247
   90SAPE  C210 8776   3.120   1.985   5.198 -0.3416  0.5974  0.4234
   90SAPE  H10R 8777   3.018   1.983   5.154 -0.0949  0.8622 -0.1675
   90SAPE  H10S 8778   3.120   1.897   5.266  1.2034 -0.2828 -0.6750
   90SAPE  C211 8779   3.230   1.964   5.102 -0.5182  0.2631 -0.2196
   90SAPE  H11R 8780   3.321   1.932   5.154 -0.4174  2.1340  0.8707
   90SAPE  C212 8781   3.229   1.982   4.971 -0.2603 -0.4767 -0.1782
   90SAPE  H12R 8782   3.315   1.941   4.915 -2.4857 -4.2372 -1.2408
   90SAPE  C213 8783   3.105   2.028   4.891  0.2984 -0.2567  0.8094
   90SAPE  H13R 8784   3.038   2.100   4.943  2.2311  1.2887  1.3002
   90SAPE  H13S 8785   3.042   1.939   4.870 -2.7963  1.1010  3.4171
   90SAPE  C214 8786   3.143   2.106   4.765 -0.3668  0.2272  0.3434
   90SAPE  H14R 8787   3.161   2.214   4.776  3.3039 -0.0374 -1.3996
   90SAPE  C215 8788   3.160   2.060   4.639  0.3881  0.0143  0.2962
   90SAPE  H15R 8789   3.187   2.128   4.557 -4.6552  2.2892  0.1489
   90SAPE  C216 8790   3.140   1.909   4.600 -0.5214  0.3367 -0.3427
   90SAPE  H16R 8791   3.113   1.848   4.690  1.9241  2.3969  1.9687
   90SAPE  H16S 8792   3.229   1.860   4.554  0.4785 -0.2909  2.0567
   90SAPE  C217 8793   3.025   1.899   4.498  0.2682 -0.7917 -0.1073
   90SAPE  H17R 8794   3.018   1.794   4.465 -2.3647 -1.4805  2.2444
   90SAPE  H17S 8795   3.043   1.962   4.408 -1.1867 -0.0395  0.0924
   90SAPE  C218 8796   2.881   1.924   4.549  0.1316 -0.2887 -0.3088
   90SAPE  H18R 8797   2.891   2.015   4.614  1.4373 -0.3659 -0.3717
   90SAPE  H18S 8798   2.852   1.834   4.606 -0.7753 -0.7721 -1.4952
   90SAPE  C219 8799   2.786   1.954   4.438 -0.3536  0.2091 -0.2127
   90SAPE  H19R 8800   2.794   1.867   4.369  0.6861 -0.3693  0.6068
   90SAPE  H19S 8801   2.819   2.042   4.378 -0.9131  0.5156 -0.0867
   90SAPE  C220 8802   2.640   1.955   4.479 -0.0006 -0.2516 -0.3450
   90SAPE  H20R 8803   2.566   1.983   4.401 -1.0077 -1.2816  0.1945
   90SAPE  H20S 8804   2.624   2.025   4.564 -0.7588 -1.0313  0.1715
   90SAPE  H20T 8805   2.618   1.852   4.516  1.0097  0.0352  1.1657
   90SAPE   C33 8806   3.982   2.067   5.934 -0.0232 -1.0112 -0.5295
   90SAPE   H3X 8807   4.033   1.999   6.005 -0.8932  0.2327  1.3515
   90SAPE   H3Y 8808   4.028   2.167   5.947  0.4511 -1.1913 -0.7848
   90SAPE   C34 8809   4.032   2.025   5.796  0.9743  0.1045  0.3829
   90SAPE   H4X 8810   4.141   2.036   5.774  1.0713 -1.1458  0.1335
   90SAPE   H4Y 8811   3.981   2.091   5.723 -0.7705  0.7123  2.0495
   90SAPE   C35 8812   3.980   1.888   5.750 -0.2791  0.1681  0.4016
   90SAPE   H5X 8813   3.872   1.911   5.741 -0.4464 -0.6264  0.3189
   90SAPE   H5Y 8814   3.993   1.822   5.838 -2.1473 -1.1078 -0.2242
   90SAPE   C36 8815   4.058   1.839   5.630  0.0098 -0.1454 -0.5481
   90SAPE   H6X 8816   4.019   1.741   5.598 -1.9852  0.2581  0.4946
   90SAPE   H6Y 8817   4.164   1.818   5.657  0.5623  1.7723 -1.0502
   90SAPE   C37 8818   4.056   1.941   5.512 -1.0295  0.2947 -0.1506
   90SAPE   H7X 8819   4.115   1.889   5.434 -1.2257 -0.1665  0.0045
   90SAPE   H7Y 8820   4.108   2.033   5.546 -2.4618  0.9207  0.4424
   90SAPE   C38 8821   3.915   1.954   5.458  0.3379 -0.3234 -0.0604
   90SAPE   H8X 8822   3.843   2.006   5.525 -1.2001 -2.5107  0.0963
   90SAPE   H8Y 8823   3.874   1.852   5.447 -1.8471  0.6002 -1.0471
   90SAPE   C39 8824   3.915   2.026   5.321 -0.1563  0.6508  0.5344
   90SAPE   H9X 8825   4.012   2.008   5.270 -0.0927  0.1907  0.8156
   90SAPE   H9Y 8826   3.918   2.135   5.343  4.4580  0.4340  2.0403
   90SAPE  C310 8827   3.786   1.996   5.240  0.6047  0.1538 -0.3112
   90SAPE  H10X 8828   3.704   2.054   5.288 -0.4212 -0.6649 -1.0355
   90SAPE  H10Y 8829   3.761   1.890   5.263  1.2946  0.3858  1.7767
   90SAPE  C311 8830   3.789   2.057   5.098 -0.1578  0.6840 -0.1354
   90SAPE  H11X 8831   3.872   2.004   5.046 -0.2705  1.0910 -0.7353
   90SAPE  H11Y 8832   3.812   2.165   5.103 -0.6895  0.8962 -1.7533
   90SAPE  C312 8833   3.663   2.043   5.018  0.1510 -1.3446  0.3685
   90SAPE  H12X 8834   3.587   2.119   5.044 -0.2732 -1.0435 -1.6101
   90SAPE  H12Y 8835   3.598   1.953   5.014 -0.5779 -0.8085 -3.1996
   90SAPE  C313 8836   3.690   2.084   4.868 -0.0421 -0.3373  0.8209
   90SAPE  H13X 8837   3.783   2.031   4.838 -0.2928 -0.7366  0.7441
   90SAPE  H13Y 8838   3.706   2.194   4.869 -0.8760 -0.2120  0.8825
   90SAPE  C314 8839   3.592   2.025   4.768  0.1940 -0.1255 -0.2907
   90SAPE  H14X 8840   3.490   2.056   4.801 -0.2407 -4.0008  2.6993
   90SAPE  H14Y 8841   3.596   1.917   4.793  4.2674  0.2483  1.3654
   90SAPE  C315 8842   3.623   2.056   4.629 -0.3102  0.3561  0.0901
   90SAPE  H15X 8843   3.706   1.995   4.589 -0.2393  0.2092  0.4598
   90SAPE  H15Y 8844   3.643   2.163   4.607  0.2384  0.2882  0.2475
   90SAPE  C316 8845   3.499   2.024   4.541  0.0029  0.0275 -0.1884
   90SAPE  H16X 8846   3.420   2.102   4.540  2.8332  3.1233 -1.5495
   90SAPE  H16Y 8847   3.448   1.939   4.591 -0.2746 -1.2356 -2.4473
   90SAPE  C317 8848   3.541   1.985   4.398 -0.9299 -0.3990  0.2113
   90SAPE  H17X 8849   3.615   1.902   4.407  1.0274  1.1652 -0.6031
   90SAPE  H17Y 8850   3.585   2.068   4.339  0.3297 -2.1327 -1.4220
   90SAPE  C318 8851   3.424   1.927   4.311  0.2259  0.6454  0.3537
   90SAPE  H18X 8852   3.400   1.820   4.329  1.8023  0.2727  0.3586
   90SAPE  H18Y 8853   3.457   1.932   4.205 -1.6876 -1.6265 -0.4619
   90SAPE  H18Z 8854   3.331   1.986   4.326 -0.9641 -1.4829  1.9875
   91SAPE     N 8855   5.325   5.406   6.885 -0.0129 -0.6329 -0.7470
   91SAPE   HN1 8856   5.363   5.312   6.908  1.3018  0.0299 -0.0498
   91SAPE   HN2 8857   5.235   5.374   6.843 -0.4201 -1.2951  0.5701
   91SAPE   HN3 8858   5.383   5.457   6.816  0.4632  0.5534  0.4880
   91SAPE   C12 8859   5.285   5.483   7.006 -0.0806  0.5614  0.5278
   91SAPE  H12A 8860   5.251   5.579   6.962 -1.9179 -0.1570  0.2760
   91SAPE  H12B 8861   5.383   5.502   7.055 -0.9236  2.0163  1.7268
   91SAPE   C11 8862   5.192   5.411   7.093 -0.0095 -0.1686 -1.1314
   91SAPE  H11A 8863   5.193   5.472   7.187  2.9595  0.1309 -1.2538
   91SAPE  H11B 8864   5.231   5.312   7.123 -1.7063 -0.7177 -0.5987
   91SAPE     P 8865   4.997   5.287   6.966 -0.0025  0.5419 -0.0448
   91SAPE   O13 8866   5.092   5.249   6.854  0.6810 -0.0017  0.4317
   91SAPE   O14 8867   4.975   5.183   7.068  0.5152  0.0046  0.4544
   91SAPE   O12 8868   5.064   5.405   7.038 -0.6119 -0.7365  0.1648
   91SAPE   O11 8869   4.868   5.360   6.923 -0.0875  0.3709 -0.5446
   91SAPE    C1 8870   4.765   5.301   6.842 -0.0078  0.1878 -0.1875
   91SAPE    HA 8871   4.761   5.190   6.852  1.0238  0.0873 -0.7351
   91SAPE    HB 8872   4.672   5.343   6.885  0.4117 -0.2697  1.1984
   91SAPE    C2 8873   4.778   5.340   6.688 -0.6882  0.1837  0.7702
   91SAPE    HS 8874   4.694   5.299   6.628 -0.6395 -0.5954  1.2132
   91SAPE   O21 8875   4.900   5.287   6.631 -0.0820  0.1053 -0.2728
   91SAPE   C21 8876   4.890   5.149   6.621 -1.2090 -0.0624  0.9901
   91SAPE   O22 8877   4.793   5.083   6.644  0.0168 -0.1359 -0.0011
   91SAPE   C22 8878   5.019   5.100   6.551 -0.3730  0.0556 -0.2710
   91SAPE   H2R 8879   5.037   5.176   6.472 -2.8488 -2.1973 -3.2320
   91SAPE   H2S 8880   5.101   5.100   6.626 -1.2059  3.0557  0.7781
   91SAPE    C3 8881   4.770   5.495   6.666 -0.2498  0.5981  0.4701
   91SAPE    HX 8882   4.825   5.551   6.744  1.0728  1.6641 -1.1601
   91SAPE    HY 8883   4.659   5.508   6.673 -0.4102  0.4213 -1.3109
   91SAPE   O31 8884   4.821   5.535   6.535 -0.2177  0.2372 -0.4222
   91SAPE   C31 8885   4.742   5.521   6.425  0.3560  1.1713 -0.8648
   91SAPE   O32 8886   4.636   5.461   6.433  0.2495 -0.1314  0.4847
   91SAPE   C32 8887   4.814   5.576   6.301 -0.4082 -0.4193  0.8788
   91SAPE   H2X 8888   4.902   5.514   6.272  1.2066  2.2933 -0.3830
   91SAPE   H2Y 8889   4.835   5.682   6.326 -0.6949 -0.0535 -0.3227
   91SAPE   C23 8890   5.018   4.961   6.484  0.2936 -0.2562  0.5692
   91SAPE   H3R 8891   4.936   4.964   6.409 -1.0281 -1.0980  1.9120
   91SAPE   H3S 8892   4.992   4.886   6.562  0.3513  0.5421  1.3707
   91SAPE   C24 8893   5.145   4.902   6.417 -0.4366  0.4828  0.0730
   91SAPE   H4R 8894   5.235   4.910   6.483  0.1179 -0.3227 -0.5621
   91SAPE   H4S 8895   5.178   4.969   6.334 -0.1501 -1.1125 -1.1493
   91SAPE   C25 8896   5.132   4.758   6.367  0.4991  0.4942  0.0420
   91SAPE   H5R 8897   5.124   4.683   6.447  2.2636 -1.0098 -1.1105
   91SAPE   C26 8898   5.143   4.720   6.235  0.1162 -0.1474 -0.9791
   91SAPE   H6R 8899   5.108   4.618   6.215  0.1272 -0.7134  1.5039
   91SAPE   C27 8900   5.170   4.800   6.115  0.3642 -0.1230  0.3309
   91SAPE   H7R 8901   5.246   4.869   6.156  0.3151 -0.2431  0.6283
   91SAPE   H7S 8902   5.082   4.864   6.092 -0.0963 -0.2490  1.6140
   91SAPE   C28 8903   5.221   4.717   6.000  0.1761  0.2822 -0.5985
   91SAPE   H8R 8904   5.325   4.687   6.015  1.4970  4.5576  0.1101
   91SAPE   C29 8905   5.150   4.685   5.887  0.1815  0.0486 -0.8856
   91SAPE   H9R 8906   5.204   4.623   5.814  1.0220  0.9016 -1.0105
   91SAPE  C210 8907   5.013   4.729   5.852 -0.6118 -0.2287 -0.8859
   91SAPE  H10R 8908   4.969   4.781   5.940  2.3640 -1.4569  1.4887
   91SAPE  H10S 8909   4.948   4.641   5.836 -0.5865 -0.8609  1.9757
   91SAPE  C211 8910   5.012   4.840   5.748  0.1336 -0.4425  0.2522
   91SAPE  H11R 8911   5.029   4.946   5.770  0.1140  0.1710 -2.3180
   91SAPE  C212 8912   4.999   4.823   5.611 -0.2170 -0.3277  0.2680
   91SAPE  H12R 8913   5.003   4.903   5.536 -1.0379 -1.3855 -0.9506
   91SAPE  C213 8914   4.964   4.684   5.559 -0.4289  0.0158  0.2254
   91SAPE  H13R 8915   4.883   4.635   5.617 -1.2899  1.7718  0.5730
   91SAPE  H13S 8916   5.055   4.621   5.546 -2.3563 -2.6957 -1.2252
   91SAPE  C214 8917   4.913   4.692   5.419 -0.1085  0.3856 -0.3163
   91SAPE  H14R 8918   4.977   4.761   5.362 -0.4221  0.5033 -0.5264
   91SAPE  C215 8919   4.813   4.625   5.362 -0.4319  0.5710  0.7222
   91SAPE  H15R 8920   4.797   4.641   5.254 -4.3288  0.5275  1.1256
   91SAPE  C216 8921   4.718   4.522   5.423 -1.1741 -0.5541 -0.1503
   91SAPE  H16R 8922   4.747   4.498   5.528  1.3605 -1.9405 -1.0740
   91SAPE  H16S 8923   4.731   4.431   5.361  1.0255  0.2579 -1.0059
   91SAPE  C217 8924   4.572   4.573   5.416  0.5325 -0.1413 -0.0115
   91SAPE  H17R 8925   4.558   4.665   5.477  0.9539 -1.0474  1.4997
   91SAPE  H17S 8926   4.514   4.494   5.467  0.7686  0.5622  1.4011
   91SAPE  C218 8927   4.514   4.604   5.272  0.0399  0.7241 -0.3992
   91SAPE  H18R 8928   4.577   4.688   5.234  0.4016  0.6587  0.0396
   91SAPE  H18S 8929   4.408   4.635   5.279 -0.3256 -0.5688  0.0777
   91SAPE  C219 8930   4.506   4.483   5.181  0.4379  0.6419  0.2010
   91SAPE  H19R 8931   4.427   4.416   5.223  1.6730 -0.5961  0.6162
   91SAPE  H19S 8932   4.594   4.416   5.173  0.0482  0.1841 -0.3924
   91SAPE  C220 8933   4.475   4.535   5.038 -0.7495 -0.2748  0.0445
   91SAPE  H20R 8934   4.374   4.579   5.021 -0.1475  0.3024 -2.3115
   91SAPE  H20S 8935   4.506   4.451   4.974  0.1873  0.0028  0.1155
   91SAPE  H20T 8936   4.540   4.621   5.012 -1.8223  1.0977  1.6425
   91SAPE   C33 8937   4.719   5.556   6.179 -0.3192  0.1303  0.9435
   91SAPE   H3X 8938   4.619   5.601   6.197 -0.5333 -0.1771  0.5423
   91SAPE   H3Y 8939   4.705   5.449   6.156 -0.7499  0.0193  1.7147
   91SAPE   C34 8940   4.780   5.645   6.070  0.4787 -0.0590  0.2440
   91SAPE   H4X 8941   4.877   5.598   6.043  0.4045 -0.1465  0.1279
   91SAPE   H4Y 8942   4.821   5.740   6.109  2.6599 -0.3129 -1.2645
   91SAPE   C35 8943   4.690   5.679   5.955 -0.2903  0.5700 -0.3741
   91SAPE   H5X 8944   4.609   5.745   5.993 -1.2109 -0.1398 -1.0615
   91SAPE   H5Y 8945   4.636   5.594   5.907 -1.9266  1.3221  0.0697
   91SAPE   C36 8946   4.769   5.753   5.841  0.7966 -0.4443  0.1374
   91SAPE   H6X 8947   4.851   5.690   5.803 -0.0418 -0.1805 -2.2832
   91SAPE   H6Y 8948   4.802   5.851   5.883  0.2344 -0.0415 -0.3372
   91SAPE   C37 8949   4.695   5.782   5.707  0.1993 -0.3704  0.1175
   91SAPE   H7X 8950   4.602   5.834   5.739 -0.0732 -2.0189  2.1768
   91SAPE   H7Y 8951   4.663   5.688   5.657 -1.2943  0.2876 -0.2121
   91SAPE   C38 8952   4.779   5.873   5.623 -0.9073 -0.5091  0.8236
   91SAPE   H8X 8953   4.876   5.823   5.602  0.0336  0.8602  1.7344
   91SAPE   H8Y 8954   4.816   5.962   5.679 -0.8232  0.6462 -1.0001
   91SAPE   C39 8955   4.716   5.906   5.494  0.2855  0.4536  0.2275
   91SAPE   H9X 8956   4.641   5.988   5.509 -1.1993 -0.9771  0.9680
   91SAPE   H9Y 8957   4.665   5.822   5.442 -0.3547  0.6142  0.5729
   91SAPE  C310 8958   4.809   5.965   5.400 -0.1470 -0.2080  0.9951
   91SAPE  H10X 8959   4.892   5.898   5.372 -0.3831 -1.2275  2.5847
   91SAPE  H10Y 8960   4.850   6.046   5.465  0.6637 -0.3025  0.6104
   91SAPE  C311 8961   4.747   6.040   5.276  0.5518 -0.8865 -0.3966
   91SAPE  H11X 8962   4.840   6.075   5.224 -0.2063  0.7851 -0.7091
   91SAPE  H11Y 8963   4.696   6.135   5.302  0.4814 -1.5197  1.9277
   91SAPE  C312 8964   4.687   5.958   5.158 -0.1105  0.3370  0.2198
   91SAPE  H12X 8965   4.591   5.910   5.188 -0.5665  0.9915 -0.1392
   91SAPE  H12Y 8966   4.762   5.888   5.116  0.0066  0.7224 -0.2395
   91SAPE  C313 8967   4.649   6.048   5.048  0.8043  0.3712 -0.0494
   91SAPE  H13X 8968   4.737   6.103   5.009  1.2828 -0.3421  0.0020
   91SAPE  H13Y 8969   4.580   6.121   5.095  2.6384  2.0131  0.2256
   91SAPE  C314 8970   4.585   5.986   4.926 -0.0110  0.1782  0.2975
   91SAPE  H14X 8971   4.509   6.047   4.872 -0.1085  0.6181  0.9124
   91SAPE  H14Y 8972   4.531   5.895   4.959 -4.6502  2.6869  0.3478
   91SAPE  C315 8973   4.679   5.950   4.814  0.0772  0.2260 -0.3283
   91SAPE  H15X 8974   4.777   5.909   4.848 -0.7861 -1.6347  0.0497
   91SAPE  H15Y 8975   4.696   6.043   4.757  1.6714  0.5011  0.5348
   91SAPE  C316 8976   4.628   5.840   4.718 -0.2303  0.0209  0.0408
   91SAPE  H16X 8977   4.520   5.847   4.693 -0.6514  1.4789  1.9874
   91SAPE  H16Y 8978   4.670   5.744   4.754  1.6519  0.5107 -0.7086
   91SAPE  C317 8979   4.702   5.846   4.576  0.8199 -0.3090 -0.5496
   91SAPE  H17X 8980   4.670   5.943   4.532 -0.5048 -1.3642 -2.0227
   91SAPE  H17Y 8981   4.664   5.768   4.508  1.6894 -1.3089  0.0775
   91SAPE  C318 8982   4.857   5.835   4.574  0.2219  0.5180  0.6313
   91SAPE  H18X 8983   4.884   5.728   4.570 -2.2692 -0.1476 -2.1073
   91SAPE  H18Y 8984   4.897   5.885   4.664  0.6218  3.6891 -1.1553
   91SAPE  H18Z 8985   4.896   5.896   4.489 -0.1712 -2.0201 -1.5072
   92SAPE     N 8986   5.917   4.218   7.229  0.1625 -0.4927 -0.0796
   92SAPE   HN1 8987   5.920   4.114   7.234 -1.5823 -0.6230 -1.0679
   92SAPE   HN2 8988   5.945   4.261   7.139  0.2101 -0.7309 -0.1798
   92SAPE   HN3 8989   5.986   4.267   7.291 -0.0326  0.6696 -0.7468
   92SAPE   C12 8990   5.783   4.273   7.263  0.0814  0.4880  0.1157
   92SAPE  H12A 8991   5.790   4.384   7.262  1.8075  0.4281  1.0518
   92SAPE  H12B 8992   5.763   4.246   7.369  1.0349  0.2729  0.2510
   92SAPE   C11 8993   5.675   4.233   7.163  0.3385 -0.6369 -0.8644
   92SAPE  H11A 8994   5.693   4.272   7.061 -0.3297 -0.0293 -0.7613
   92SAPE  H11B 8995   5.576   4.277   7.190 -0.3810 -2.8392  0.3537
   92SAPE     P 8996   5.562   4.028   7.050 -0.1914  0.1765  0.4851
   92SAPE   O13 8997   5.580   3.879   7.046  0.5960 -0.2414 -0.6457
   92SAPE   O14 8998   5.431   4.087   7.081 -0.8638  0.0536 -0.5737
   92SAPE   O12 8999   5.667   4.092   7.154 -0.3892  0.3665 -0.7650
   92SAPE   O11 9000   5.615   4.088   6.914 -0.0046 -0.1331  0.3879
   92SAPE    C1 9001   5.700   4.010   6.832 -1.3437 -0.3113  0.4876
   92SAPE    HA 9002   5.786   3.967   6.888 -1.2980  0.1957  0.8112
   92SAPE    HB 9003   5.645   3.929   6.778 -0.3598 -0.7940  0.1844
   92SAPE    C2 9004   5.730   4.101   6.706 -0.0332  0.1957  0.2627
   92SAPE    HS 9005   5.744   4.204   6.746  3.6284  0.6605 -1.7567
   92SAPE   O21 9006   5.618   4.096   6.606  0.0697  0.3128  0.2394
   92SAPE   C21 9007   5.584   4.209   6.551  0.2877 -0.6298  0.9033
   92SAPE   O22 9008   5.631   4.322   6.575  0.1392  0.3435 -0.2352
   92SAPE   C22 9009   5.468   4.186   6.447  0.3171  0.2221 -0.3858
   92SAPE   H2R 9010   5.466   4.077   6.428 -0.8862  0.3578 -1.0966
   92SAPE   H2S 9011   5.376   4.229   6.491  0.4801  0.3705 -0.1860
   92SAPE    C3 9012   5.869   4.057   6.654  0.1360  0.7229  1.4033
   92SAPE    HX 9013   5.861   3.950   6.626 -0.4476 -0.2903  4.9679
   92SAPE    HY 9014   5.943   4.058   6.737  1.2406  1.0025  0.4434
   92SAPE   O31 9015   5.918   4.140   6.547  0.2668 -0.1636 -0.1722
   92SAPE   C31 9016   5.954   4.270   6.590  0.4293  0.7034  0.7185
   92SAPE   O32 9017   5.941   4.308   6.703 -0.0569  0.3196 -0.9185
   92SAPE   C32 9018   6.008   4.362   6.479 -0.0634  0.2584  0.5726
   92SAPE   H2X 9019   6.074   4.437   6.528 -0.0226 -0.3665  1.4885
   92SAPE   H2Y 9020   5.929   4.428   6.435  1.4782  0.3593 -2.2168
   92SAPE   C23 9021   5.489   4.264   6.311  0.2971 -0.4967  0.1422
   92SAPE   H3R 9022   5.580   4.233   6.256 -0.1944  2.0069 -2.3407
   92SAPE   H3S 9023   5.507   4.371   6.336 -0.2088 -0.4415  0.2892
   92SAPE   C24 9024   5.362   4.252   6.226 -0.1824 -0.1949 -0.0416
   92SAPE   H4R 9025   5.279   4.288   6.291 -1.2662 -0.2342 -1.3344
   92SAPE   H4S 9026   5.328   4.148   6.206 -1.4164  0.0626  0.5756
   92SAPE   C25 9027   5.367   4.331   6.097  0.5600 -0.6491  0.4395
   92SAPE   H5R 9028   5.365   4.440   6.112 -0.0256 -0.6130  0.0971
   92SAPE   C26 9029   5.370   4.284   5.969  0.1414  0.3734 -0.0602
   92SAPE   H6R 9030   5.388   4.357   5.889  1.6111  0.4706  0.3357
   92SAPE   C27 9031   5.372   4.141   5.935 -0.2570 -0.0890  0.5245
   92SAPE   H7R 9032   5.314   4.080   6.007 -0.7864 -0.2859 -0.0580
   92SAPE   H7S 9033   5.480   4.115   5.936 -0.1588 -0.1150 -2.3539
   92SAPE   C28 9034   5.314   4.120   5.798  0.0272 -0.7422  0.3259
   92SAPE   H8R 9035   5.214   4.076   5.797 -0.2853 -0.0495  0.4238
   92SAPE   C29 9036   5.377   4.138   5.677  0.1490  0.2913 -0.1326
   92SAPE   H9R 9037   5.316   4.117   5.588  0.5604 -3.9723  0.3662
   92SAPE  C210 9038   5.517   4.191   5.664 -0.1998 -0.4063  0.0119
   92SAPE  H10R 9039   5.565   4.179   5.763  2.0179  0.9968 -0.8331
   92SAPE  H10S 9040   5.523   4.298   5.635  1.8907 -0.9101 -1.6778
   92SAPE  C211 9041   5.590   4.093   5.575  0.8135  0.0800 -0.3935
   92SAPE  H11R 9042   5.612   4.001   5.632  3.0672 -0.0835 -1.4244
   92SAPE  C212 9043   5.651   4.117   5.462 -0.2514 -0.0039  0.1511
   92SAPE  H12R 9044   5.720   4.043   5.418  0.6003 -0.2042  1.7496
   92SAPE  C213 9045   5.642   4.253   5.397  0.0255 -0.3048 -0.1747
   92SAPE  H13R 9046   5.699   4.328   5.456 -0.2454 -0.5745  0.4376
   92SAPE  H13S 9047   5.536   4.285   5.405 -0.2128 -1.0779 -0.1228
   92SAPE  C214 9048   5.690   4.242   5.252  0.4823  0.6988 -0.3045
   92SAPE  H14R 9049   5.798   4.237   5.237  0.7268  1.6675  0.9030
   92SAPE  C215 9050   5.610   4.225   5.143  0.8006  0.5843 -0.1487
   92SAPE  H15R 9051   5.659   4.221   5.044  0.5316 -2.1204 -0.2419
   92SAPE  C216 9052   5.459   4.218   5.126  0.2273 -0.5080  0.2612
   92SAPE  H16R 9053   5.420   4.318   5.098 -2.0243 -0.9215  1.6246
   92SAPE  H16S 9054   5.405   4.203   5.222  0.0426  1.2371  0.4717
   92SAPE  C217 9055   5.401   4.109   5.029  0.5594 -0.2281  0.2339
   92SAPE  H17R 9056   5.442   4.014   5.070  0.1875 -1.1952 -1.5174
   92SAPE  H17S 9057   5.439   4.130   4.927 -0.7603 -0.5684 -0.3438
   92SAPE  C218 9058   5.248   4.097   5.026  0.3293  0.0016  0.1551
   92SAPE  H18R 9059   5.198   4.192   4.997  1.0222  0.1131 -0.7127
   92SAPE  H18S 9060   5.208   4.076   5.128  0.0536 -0.4267 -0.0373
   92SAPE  C219 9061   5.192   3.991   4.925 -0.6068 -0.3321  0.2643
   92SAPE  H19R 9062   5.272   3.914   4.929  2.5280  2.5883 -1.4133
   92SAPE  H19S 9063   5.204   4.042   4.827 -2.4771  2.3030  1.3090
   92SAPE  C220 9064   5.054   3.945   4.961  0.3448  0.0894 -0.1130
   92SAPE  H20R 9065   5.023   3.939   5.068 -0.1958  0.7945 -0.2216
   92SAPE  H20S 9066   5.032   3.842   4.926  0.1307 -0.3250  1.1798
   92SAPE  H20T 9067   4.979   4.003   4.903  1.7900 -1.9450 -4.3703
   92SAPE   C33 9068   6.078   4.294   6.352  0.6161 -0.6710  0.2431
   92SAPE   H3X 9069   6.000   4.233   6.302  0.7216 -0.5415 -0.0818
   92SAPE   H3Y 9070   6.153   4.222   6.389 -1.2007 -3.1246 -0.5734
   92SAPE   C34 9071   6.143   4.397   6.261 -0.8259 -0.0341  0.6289
   92SAPE   H4X 9072   6.226   4.452   6.311 -2.0360  3.0156 -0.4853
   92SAPE   H4Y 9073   6.068   4.478   6.252 -1.4675 -0.7436 -0.9205
   92SAPE   C35 9074   6.188   4.341   6.127 -0.0359 -0.1202  0.5069
   92SAPE   H5X 9075   6.272   4.269   6.138 -0.0908  0.1407  3.3456
   92SAPE   H5Y 9076   6.221   4.429   6.067  1.3695 -1.9403 -1.5592
   92SAPE   C36 9077   6.071   4.281   6.040  0.4357  0.4274 -0.2694
   92SAPE   H6X 9078   5.991   4.358   6.043 -0.2016 -0.1066 -2.2587
   92SAPE   H6Y 9079   6.043   4.185   6.089  0.1149 -0.5922 -2.3340
   92SAPE   C37 9080   6.118   4.247   5.896  0.1765  0.1218 -0.5207
   92SAPE   H7X 9081   6.194   4.167   5.902 -0.0566 -0.2245 -1.8655
   92SAPE   H7Y 9082   6.161   4.339   5.850  0.4741  0.6831  0.8307
   92SAPE   C38 9083   5.991   4.226   5.826  0.4804  0.2898 -0.3757
   92SAPE   H8X 9084   5.915   4.307   5.820  1.0019  0.6905 -2.1713
   92SAPE   H8Y 9085   5.942   4.136   5.868  1.1452  0.4589  0.8042
   92SAPE   C39 9086   6.014   4.187   5.674  0.4494 -0.2688 -0.7000
   92SAPE   H9X 9087   5.915   4.148   5.642  0.0597 -0.7432  0.9915
   92SAPE   H9Y 9088   6.089   4.105   5.673 -0.4827 -1.2051  1.1212
   92SAPE  C310 9089   6.048   4.303   5.581  0.0794  0.1163  0.0750
   92SAPE  H10X 9090   6.158   4.316   5.590  0.0281  0.2032  0.6341
   92SAPE  H10Y 9091   5.989   4.392   5.612 -1.6644 -0.1692 -2.1774
   92SAPE  C311 9092   6.008   4.264   5.440 -0.2298 -0.1727  0.7805
   92SAPE  H11X 9093   5.914   4.206   5.432  1.3184 -2.6516 -1.4280
   92SAPE  H11Y 9094   6.086   4.193   5.404  0.4345  1.0910 -0.3828
   92SAPE  C312 9095   6.016   4.371   5.330 -0.1992 -0.3215  0.4725
   92SAPE  H12X 9096   5.972   4.353   5.230  2.7790  0.1759 -1.0601
   92SAPE  H12Y 9097   6.125   4.390   5.318 -0.1179  0.3302  2.0389
   92SAPE  C313 9098   5.940   4.497   5.365  0.2442  0.8983  0.2838
   92SAPE  H13X 9099   6.005   4.538   5.445  1.5125  1.0372 -0.7834
   92SAPE  H13Y 9100   5.837   4.481   5.403 -0.4197  1.6417 -1.1154
   92SAPE  C314 9101   5.932   4.600   5.246 -0.4084  0.2481  0.0450
   92SAPE  H14X 9102   6.018   4.577   5.179 -0.4630 -0.7841  0.3056
   92SAPE  H14Y 9103   5.948   4.703   5.282 -1.1573  0.5697 -0.5231
   92SAPE  C315 9104   5.806   4.597   5.159  0.2821  0.1350  0.3078
   92SAPE  H15X 9105   5.716   4.615   5.222  0.4169 -0.4323  0.6685
   92SAPE  H15Y 9106   5.805   4.494   5.118 -3.3197 -0.4399  1.4531
   92SAPE  C316 9107   5.805   4.707   5.049 -0.2935  0.1059  0.1340
   92SAPE  H16X 9108   5.900   4.696   4.992 -0.6478  2.2613 -0.9608
   92SAPE  H16Y 9109   5.816   4.809   5.092 -0.1969 -0.0883  0.5795
   92SAPE  C317 9110   5.682   4.711   4.965  0.1385 -0.1786  0.4609
   92SAPE  H17X 9111   5.689   4.786   4.883 -0.2912 -0.2384  0.3628
   92SAPE  H17Y 9112   5.602   4.746   5.034  0.7087  0.4335  0.8233
   92SAPE  C318 9113   5.633   4.570   4.915 -0.8896  0.6353  0.0771
   92SAPE  H18X 9114   5.629   4.495   4.996  1.2581  0.3815 -0.0151
   92SAPE  H18Y 9115   5.712   4.533   4.847 -1.8541  2.2361 -2.0670
   92SAPE  H18Z 9116   5.540   4.575   4.853 -1.6856 -0.3095  1.1522
   93SAPE     N 9117   3.144   2.730   6.879  0.0147 -0.0819 -0.1234
   93SAPE   HN1 9118   3.192   2.726   6.971 -2.5560  0.7395  1.3876
   93SAPE   HN2 9119   3.041   2.727   6.897  0.0506  1.0593  0.4161
   93SAPE   HN3 9120   3.175   2.647   6.826 -0.9900  0.9635 -2.4824
   93SAPE   C12 9121   3.172   2.862   6.805 -0.1006  0.4979  0.1531
   93SAPE  H12A 9122   3.273   2.856   6.761 -0.1100 -0.1041  0.1989
   93SAPE  H12B 9123   3.166   2.932   6.891  0.7387 -0.1555  0.7634
   93SAPE   C11 9124   3.064   2.882   6.694  0.2409  0.6102  0.4048
   93SAPE  H11A 9125   3.085   2.807   6.615 -3.6921 -2.2917  1.7957
   93SAPE  H11B 9126   3.072   2.986   6.656  1.2948  0.3222 -0.1977
   93SAPE     P 9127   2.833   2.747   6.685  0.1682 -0.1691 -0.1447
   93SAPE   O13 9128   2.872   2.611   6.735  0.5627 -0.0277  0.7277
   93SAPE   O14 9129   2.694   2.797   6.703 -0.5260  0.5144 -0.0883
   93SAPE   O12 9130   2.933   2.851   6.746 -0.0741  0.1541 -0.9392
   93SAPE   O11 9131   2.866   2.746   6.530 -0.1058 -0.1076 -0.2977
   93SAPE    C1 9132   2.838   2.862   6.452  0.9774 -0.5726 -0.3566
   93SAPE    HA 9133   2.774   2.935   6.506  3.2529  2.6459 -1.7333
   93SAPE    HB 9134   2.935   2.912   6.429  1.1288 -0.9504 -0.5533
   93SAPE    C2 9135   2.758   2.821   6.324  0.0386 -0.0844  0.4537
   93SAPE    HS 9136   2.667   2.767   6.356 -0.5412  1.5883  1.7823
   93SAPE   O21 9137   2.841   2.738   6.239 -0.9485  0.0656 -0.0245
   93SAPE   C21 9138   2.790   2.702   6.125 -0.2064 -0.1801 -0.2579
   93SAPE   O22 9139   2.675   2.718   6.090  0.1578 -0.3193  0.1830
   93SAPE   C22 9140   2.901   2.643   6.036 -0.1638  0.7467  0.4357
   93SAPE   H2R 9141   2.952   2.736   6.003 -1.3108  0.5270 -2.2272
   93SAPE   H2S 9142   2.961   2.573   6.097 -1.1207 -0.6261 -0.1374
   93SAPE    C3 9143   2.711   2.954   6.256  0.5090  0.1624  0.5175
   93SAPE    HX 9144   2.679   3.021   6.340 -1.0183 -0.9157  0.8390
   93SAPE    HY 9145   2.620   2.931   6.196  1.6206 -0.3609 -1.0049
   93SAPE   O31 9146   2.804   3.013   6.163 -0.0343  0.0993  0.3578
   93SAPE   C31 9147   2.885   3.106   6.212 -0.4505  0.7718  0.1357
   93SAPE   O32 9148   2.882   3.147   6.326  0.5404 -0.2992 -0.4104
   93SAPE   C32 9149   2.982   3.161   6.106 -0.4637  0.1784  0.2842
   93SAPE   H2X 9150   3.084   3.157   6.150 -0.0276 -1.1863 -0.7763
   93SAPE   H2Y 9151   2.957   3.267   6.086 -1.0037 -0.0619 -0.3439
   93SAPE   C23 9152   2.846   2.566   5.912  0.2421 -0.4929  0.3060
   93SAPE   H3R 9153   2.763   2.627   5.869  1.9925  4.5597  3.2697
   93SAPE   H3S 9154   2.811   2.467   5.948  1.7570 -1.1476  0.0629
   93SAPE   C24 9155   2.957   2.544   5.809  0.3784  0.3398  0.5501
   93SAPE   H4R 9156   3.045   2.493   5.856  1.6181  1.0656 -0.8961
   93SAPE   H4S 9157   2.995   2.645   5.786  0.9428 -0.3096 -1.6082
   93SAPE   C25 9158   2.910   2.464   5.689  0.6428 -0.2584  0.1353
   93SAPE   H5R 9159   2.824   2.397   5.705  1.2789 -1.5908 -1.6860
   93SAPE   C26 9160   2.962   2.470   5.570  0.1828  0.6405 -0.0200
   93SAPE   H6R 9161   2.925   2.405   5.490 -2.7853  0.6898  1.1981
   93SAPE   C27 9162   3.091   2.537   5.538 -0.5741  0.1514  0.2489
   93SAPE   H7R 9163   3.158   2.458   5.497  0.1171  0.9488 -0.2120
   93SAPE   H7S 9164   3.151   2.574   5.624  0.5306 -0.7935 -0.0930
   93SAPE   C28 9165   3.068   2.641   5.430 -0.3847  0.2781  0.2254
   93SAPE   H8R 9166   3.082   2.746   5.459 -0.9162 -0.3124  2.7993
   93SAPE   C29 9167   3.043   2.616   5.297 -0.7787  0.5912 -0.3884
   93SAPE   H9R 9168   3.023   2.709   5.242 -1.7428  0.0052 -1.0745
   93SAPE  C210 9169   3.019   2.486   5.221 -0.9497 -0.3188  0.1090
   93SAPE  H10R 9170   2.914   2.451   5.231 -0.9793 -0.6810 -1.2479
   93SAPE  H10S 9171   3.078   2.406   5.272 -3.6870 -1.3358  1.9494
   93SAPE  C211 9172   3.074   2.510   5.082  0.0983  0.0250  0.6234
   93SAPE  H11R 9173   2.997   2.546   5.013 -0.4312 -1.4209  0.4293
   93SAPE  C212 9174   3.197   2.470   5.032 -0.7967 -0.5199  0.6147
   93SAPE  H12R 9175   3.221   2.479   4.925  0.8170  2.1185  1.0996
   93SAPE  C213 9176   3.311   2.408   5.110  0.3517 -0.5681 -0.2737
   93SAPE  H13R 9177   3.348   2.315   5.062 -0.6532 -1.6242  0.8904
   93SAPE  H13S 9178   3.276   2.372   5.209  1.5906  1.0404  0.7858
   93SAPE  C214 9179   3.424   2.500   5.146 -0.1670 -0.1384 -0.4637
   93SAPE  H14R 9180   3.415   2.601   5.104  0.3353  0.1160  0.0227
   93SAPE  C215 9181   3.531   2.462   5.215  0.2610 -0.0188  0.1767
   93SAPE  H15R 9182   3.605   2.541   5.236 -0.0363  0.7609 -1.5023
   93SAPE  C216 9183   3.551   2.334   5.285  0.0656  0.2144  0.3526
   93SAPE  H16R 9184   3.660   2.321   5.305 -0.0584 -1.7484 -0.0974
   93SAPE  H16S 9185   3.520   2.254   5.215 -1.6483  1.5230 -0.4488
   93SAPE  C217 9186   3.469   2.301   5.415 -0.4979 -0.4671  1.1143
   93SAPE  H17R 9187   3.490   2.195   5.438 -1.1987 -0.8608 -0.0123
   93SAPE  H17S 9188   3.360   2.312   5.398 -0.5442  2.1997  2.4426
   93SAPE  C218 9189   3.511   2.387   5.533 -0.8968  0.3840 -0.7845
   93SAPE  H18R 9190   3.478   2.491   5.512 -2.7024 -0.3769 -1.9618
   93SAPE  H18S 9191   3.621   2.374   5.542 -1.3860 -4.3487  1.3370
   93SAPE  C219 9192   3.459   2.347   5.673  0.0627  0.7611 -0.7164
   93SAPE  H19R 9193   3.353   2.315   5.666 -0.0112  1.0823 -1.1195
   93SAPE  H19S 9194   3.467   2.439   5.735 -0.5222 -0.6041  1.4836
   93SAPE  C220 9195   3.528   2.228   5.743 -0.6719 -0.0787 -0.0219
   93SAPE  H20R 9196   3.484   2.208   5.844  1.6271 -1.5145  0.7755
   93SAPE  H20S 9197   3.637   2.248   5.745 -0.1521 -2.4678  2.7104
   93SAPE  H20T 9198   3.502   2.140   5.681 -0.4612 -0.4526  0.4171
   93SAPE   C33 9199   2.973   3.074   5.973 -0.1493 -0.3382 -0.3821
   93SAPE   H3X 9200   2.868   3.058   5.943 -1.1526  0.9786  2.1545
   93SAPE   H3Y 9201   3.008   2.970   5.992  1.4195  0.3168  0.5754
   93SAPE   C34 9202   3.051   3.138   5.860  0.4694  0.2321 -0.4611
   93SAPE   H4X 9203   3.148   3.178   5.897  0.6631  1.2108 -1.9266
   93SAPE   H4Y 9204   2.985   3.221   5.826  0.4394  1.0906  1.5599
   93SAPE   C35 9205   3.088   3.036   5.747  1.0517 -0.0408 -0.4969
   93SAPE   H5X 9206   2.995   2.981   5.720  2.1368 -2.0407 -0.4241
   93SAPE   H5Y 9207   3.159   2.954   5.772 -0.6513 -2.3158 -2.5960
   93SAPE   C36 9208   3.146   3.105   5.622  0.4789 -0.5704  0.4072
   93SAPE   H6X 9209   3.255   3.126   5.628  0.4193 -0.4880  1.4085
   93SAPE   H6Y 9210   3.089   3.201   5.621  0.6927 -0.4400  0.6337
   93SAPE   C37 9211   3.114   3.021   5.503  0.0134 -1.1806  0.4730
   93SAPE   H7X 9212   3.005   2.999   5.503 -0.4793  0.9011 -1.7075
   93SAPE   H7Y 9213   3.174   2.928   5.519  0.2290 -0.9013  1.3409
   93SAPE   C38 9214   3.160   3.078   5.372 -0.3987 -0.3243 -0.1134
   93SAPE   H8X 9215   3.270   3.093   5.374  0.1389 -2.3643 -4.5055
   93SAPE   H8Y 9216   3.121   3.181   5.355 -0.8445 -0.1738  1.5800
   93SAPE   C39 9217   3.127   2.994   5.249 -0.0652 -0.1175 -0.9494
   93SAPE   H9X 9218   3.016   2.987   5.246 -0.2533 -0.2465  2.7003
   93SAPE   H9Y 9219   3.168   2.893   5.270 -0.6986 -0.2295 -0.2161
   93SAPE  C310 9220   3.187   3.051   5.120 -0.3703 -0.1354 -0.1756
   93SAPE  H10X 9221   3.297   3.046   5.133 -0.5568 -0.5461  1.4104
   93SAPE  H10Y 9222   3.147   3.155   5.110 -2.7559 -0.8671  1.0534
   93SAPE  C311 9223   3.137   2.971   4.997  0.1540 -0.1386  0.5029
   93SAPE  H11X 9224   3.026   2.966   5.009 -0.1339  1.4195 -1.0647
   93SAPE  H11Y 9225   3.185   2.871   5.002 -0.8167 -0.8947 -2.7956
   93SAPE  C312 9226   3.175   3.028   4.864 -1.0938  0.7493  0.0467
   93SAPE  H12X 9227   3.284   3.045   4.855 -0.6695 -2.4578 -2.5553
   93SAPE  H12Y 9228   3.119   3.124   4.855  0.8647  1.9091 -0.2772
   93SAPE  C313 9229   3.135   2.944   4.753 -0.1960  0.3776  0.5275
   93SAPE  H13X 9230   3.025   2.949   4.743 -0.3754 -1.4046  1.1969
   93SAPE  H13Y 9231   3.159   2.837   4.771  0.6974  0.3335 -0.7559
   93SAPE  C314 9232   3.203   3.004   4.628 -0.4110 -0.1960  0.2037
   93SAPE  H14X 9233   3.313   2.999   4.638 -0.4486 -1.1156  0.2488
   93SAPE  H14Y 9234   3.179   3.112   4.615 -1.2298 -0.6152 -2.4753
   93SAPE  C315 9235   3.155   2.945   4.494  0.5814  0.3375 -0.1185
   93SAPE  H15X 9236   3.182   3.019   4.415  0.5987 -0.9342 -1.3452
   93SAPE  H15Y 9237   3.046   2.928   4.487  0.9353 -1.6480 -1.8596
   93SAPE  C316 9238   3.237   2.825   4.450 -0.0224 -0.1068  0.2332
   93SAPE  H16X 9239   3.344   2.853   4.461  0.5950 -2.8449  2.2850
   93SAPE  H16Y 9240   3.208   2.810   4.344 -1.4742  0.3854  0.5333
   93SAPE  C317 9241   3.214   2.690   4.524  1.1221 -0.4525 -0.3254
   93SAPE  H17X 9242   3.244   2.706   4.629  0.7206  0.4192 -0.3377
   93SAPE  H17Y 9243   3.275   2.614   4.470 -0.5448 -0.6369 -2.0979
   93SAPE  C318 9244   3.074   2.636   4.508  0.0090 -0.7236 -0.3159
   93SAPE  H18X 9245   3.035   2.635   4.404 -0.7850 -1.0446 -0.0272
   93SAPE  H18Y 9246   2.999   2.692   4.568 -0.6811 -1.8343 -0.1084
   93SAPE  H18Z 9247   3.059   2.538   4.558 -2.2221  0.2505  1.0762
   94SAPE     N 9248   1.774   4.129   7.287 -0.7075 -0.2144 -0.3248
   94SAPE   HN1 9249   1.863   4.086   7.320 -2.3176 -2.1817  1.6974
   94SAPE   HN2 9250   1.769   4.224   7.329  0.6204 -0.9275  1.5602
   94SAPE   HN3 9251   1.701   4.077   7.339  0.0959  0.6146  1.7488
   94SAPE   C12 9252   1.762   4.119   7.139  0.0333  0.4705 -0.3159
   94SAPE  H12A 9253   1.831   4.187   7.086 -0.0535  0.8125  0.0100
   94SAPE  H12B 9254   1.658   4.151   7.117  0.0336  0.2315 -0.6819
   94SAPE   C11 9255   1.797   3.974   7.100  0.1022 -0.0814  0.5103
   94SAPE  H11A 9256   1.743   3.919   7.179  2.5031  1.2410  3.2996
   94SAPE  H11B 9257   1.905   3.956   7.122 -0.3241 -1.1234  1.8959
   94SAPE     P 9258   1.664   3.852   6.920 -0.2699 -0.3174 -0.0687
   94SAPE   O13 9259   1.723   3.716   6.939 -0.1813 -0.3710  0.2004
   94SAPE   O14 9260   1.538   3.885   6.990  0.1052 -0.0316 -0.1561
   94SAPE   O12 9261   1.766   3.957   6.960  0.5763 -0.1657 -0.4432
   94SAPE   O11 9262   1.645   3.868   6.763  0.1032  0.5768 -0.4375
   94SAPE    C1 9263   1.659   3.996   6.701  0.2759  0.6788 -0.0995
   94SAPE    HA 9264   1.753   4.043   6.737  2.5436 -1.9416 -2.1197
   94SAPE    HB 9265   1.678   3.987   6.592  1.1250 -2.6847  0.2136
   94SAPE    C2 9266   1.534   4.085   6.715  0.8129  0.0235  0.1488
   94SAPE    HS 9267   1.497   4.078   6.820  1.3404 -1.0209  0.2821
   94SAPE   O21 9268   1.434   4.030   6.623  0.6780  0.3752 -0.0550
   94SAPE   C21 9269   1.323   4.093   6.649  0.8094  0.3654 -0.1533
   94SAPE   O22 9270   1.306   4.173   6.741  0.0491  0.1309  0.0331
   94SAPE   C22 9271   1.212   4.057   6.540 -0.7114  0.5701  0.2110
   94SAPE   H2R 9272   1.264   4.029   6.447 -1.3912 -1.6216  0.4364
   94SAPE   H2S 9273   1.163   3.963   6.572 -0.1275  0.0989 -0.2770
   94SAPE    C3 9274   1.569   4.226   6.674  0.0430  1.1163  0.8052
   94SAPE    HX 9275   1.646   4.268   6.742  2.0928 -0.3548 -0.4762
   94SAPE    HY 9276   1.491   4.306   6.674 -0.0163  1.0991 -0.9926
   94SAPE   O31 9277   1.630   4.233   6.546  0.3910  0.1989  0.1223
   94SAPE   C31 9278   1.565   4.283   6.446 -0.6611  0.3566 -0.6681
   94SAPE   O32 9279   1.448   4.325   6.447 -0.5497  0.0131 -0.0864
   94SAPE   C32 9280   1.664   4.306   6.329 -0.2637 -0.2219 -0.3180
   94SAPE   H2X 9281   1.756   4.367   6.348  0.7624 -1.5849 -0.7329
   94SAPE   H2Y 9282   1.599   4.362   6.259  2.4955  1.5919 -1.6297
   94SAPE   C23 9283   1.113   4.177   6.520  0.5699 -0.4230  0.4622
   94SAPE   H3R 9284   1.162   4.274   6.544  3.6054 -1.7153 -0.0490
   94SAPE   H3S 9285   1.037   4.168   6.600 -1.0790  1.1444 -0.8508
   94SAPE   C24 9286   1.050   4.193   6.378 -0.2073  0.0331  0.7344
   94SAPE   H4R 9287   1.136   4.186   6.307  0.9243 -1.4720  2.1692
   94SAPE   H4S 9288   1.013   4.297   6.363 -0.4248 -0.4685 -3.5750
   94SAPE   C25 9289   0.931   4.100   6.352  0.1976 -0.8277  0.1670
   94SAPE   H5R 9290   0.857   4.087   6.433  1.0677  0.4191  1.2013
   94SAPE   C26 9291   0.902   4.038   6.235 -0.0274  0.2173  0.3893
   94SAPE   H6R 9292   0.812   3.975   6.235  0.1236 -0.2296 -3.5427
   94SAPE   C27 9293   0.982   4.044   6.109  0.1945 -0.1769 -0.1309
   94SAPE   H7R 9294   1.048   3.955   6.106 -1.1557 -1.1996 -1.6623
   94SAPE   H7S 9295   1.040   4.138   6.106 -1.2128  0.8141  1.7701
   94SAPE   C28 9296   0.891   4.040   5.991  0.0008  0.6846  0.3175
   94SAPE   H8R 9297   0.805   4.109   5.993  1.4293  2.6187 -0.9104
   94SAPE   C29 9298   0.906   3.979   5.874  0.1919  0.5498  0.0998
   94SAPE   H9R 9299   0.822   3.972   5.804  0.5130 -0.3242 -0.2174
   94SAPE  C210 9300   1.016   3.875   5.847 -0.4401  0.0895 -0.4153
   94SAPE  H10R 9301   0.973   3.778   5.817  1.1303 -1.1499  1.0989
   94SAPE  H10S 9302   1.073   3.836   5.935  0.9833  0.5646 -1.0810
   94SAPE  C211 9303   1.120   3.917   5.740  0.2089 -0.4376 -0.7908
   94SAPE  H11R 9304   1.219   3.914   5.787  0.1120  0.0734 -0.5543
   94SAPE  C212 9305   1.104   3.937   5.609  0.0581 -0.7622  0.6912
   94SAPE  H12R 9306   1.196   3.967   5.556  0.2349  2.6491  2.6042
   94SAPE  C213 9307   0.978   3.937   5.528  0.2098 -1.0173  0.6210
   94SAPE  H13R 9308   0.891   3.884   5.572 -0.7092 -1.5745 -1.6861
   94SAPE  H13S 9309   1.009   3.876   5.440  0.8249  0.1288  0.0174
   94SAPE  C214 9310   0.934   4.081   5.505  0.1395  0.0302 -0.0758
   94SAPE  H14R 9311   0.921   4.139   5.598 -1.6914  1.0097 -0.8833
   94SAPE  C215 9312   0.893   4.128   5.384  0.0128 -0.4560 -0.2400
   94SAPE  H15R 9313   0.880   4.237   5.377 -0.3218 -0.4541  0.3463
   94SAPE  C216 9314   0.897   4.061   5.245 -0.1048 -0.2248 -0.3769
   94SAPE  H16R 9315   0.797   4.015   5.232  0.3156 -2.2374  2.4880
   94SAPE  H16S 9316   0.954   3.966   5.240 -1.6208 -1.1650 -0.4411
   94SAPE  C217 9317   0.913   4.135   5.121 -0.0199  0.8425  0.0163
   94SAPE  H17R 9318   1.017   4.146   5.085  0.3300 -0.9355  0.4168
   94SAPE  H17S 9319   0.877   4.239   5.136 -0.6863  0.4851  0.9875
   94SAPE  C218 9320   0.837   4.067   5.008  0.0632  0.1961  0.5931
   94SAPE  H18R 9321   0.738   4.044   5.052  0.0069 -0.1893  0.2770
   94SAPE  H18S 9322   0.893   3.975   4.983  2.6291  1.5621  0.9501
   94SAPE  C219 9323   0.809   4.149   4.881 -0.3118 -0.1226  0.1577
   94SAPE  H19R 9324   0.728   4.219   4.911 -1.0711  0.0009 -2.0146
   94SAPE  H19S 9325   0.755   4.086   4.807  0.1529  1.0429 -1.2260
   94SAPE  C220 9326   0.919   4.229   4.814  0.5727 -0.4779 -0.4566
   94SAPE  H20R 9327   0.985   4.265   4.896 -0.5216 -2.0432  1.1859
   94SAPE  H20S 9328   0.872   4.314   4.759 -0.8740 -1.2233 -0.4252
   94SAPE  H20T 9329   0.977   4.164   4.746  0.5467  0.8055 -1.7566
   94SAPE   C33 9330   1.703   4.180   6.252 -0.4822 -0.2894 -0.1600
   94SAPE   H3X 9331   1.784   4.144   6.318 -2.6939  0.6407  3.3185
   94SAPE   H3Y 9332   1.755   4.187   6.154 -0.6067 -0.5563 -0.2466
   94SAPE   C34 9333   1.584   4.072   6.242 -0.6205  0.1517  1.1270
   94SAPE   H4X 9334   1.560   4.034   6.343 -2.1914 -0.1687  0.6639
   94SAPE   H4Y 9335   1.622   3.983   6.187 -0.7930 -0.6696  2.2952
   94SAPE   C35 9336   1.458   4.126   6.163 -0.2420  0.4184 -0.2051
   94SAPE   H5X 9337   1.404   4.187   6.237 -0.8891  0.0624 -0.3793
   94SAPE   H5Y 9338   1.391   4.041   6.138  0.0539  0.0642  0.1998
   94SAPE   C36 9339   1.480   4.199   6.020 -0.4129 -0.0431 -0.1356
   94SAPE   H6X 9340   1.537   4.123   5.964  0.6627  0.1545  0.6527
   94SAPE   H6Y 9341   1.547   4.288   6.022 -0.9702  0.3954 -0.6710
   94SAPE   C37 9342   1.350   4.234   5.957  0.4491 -0.6392  0.0361
   94SAPE   H7X 9343   1.307   4.315   6.020  2.0270 -1.1198  1.8437
   94SAPE   H7Y 9344   1.289   4.142   5.949  0.6698 -0.7306 -0.5910
   94SAPE   C38 9345   1.373   4.297   5.818  0.1175 -0.0773  0.1809
   94SAPE   H8X 9346   1.419   4.222   5.750 -0.6621  0.5097 -1.0280
   94SAPE   H8Y 9347   1.446   4.381   5.827 -0.7904  0.7338  0.1250
   94SAPE   C39 9348   1.249   4.355   5.750  0.1554 -0.6113 -0.7979
   94SAPE   H9X 9349   1.203   4.435   5.812 -0.6836 -0.9369 -0.9956
   94SAPE   H9Y 9350   1.163   4.285   5.744 -0.1787 -0.2078 -0.7850
   94SAPE  C310 9351   1.275   4.405   5.604  0.6772 -0.1736 -0.0342
   94SAPE  H10X 9352   1.364   4.472   5.599 -0.1288  0.8929 -0.3657
   94SAPE  H10Y 9353   1.187   4.464   5.570 -0.7653 -1.6739  0.9576
   94SAPE  C311 9354   1.286   4.290   5.516  0.1823  0.1685  0.3352
   94SAPE  H11X 9355   1.192   4.235   5.498 -0.5995  0.8506  2.1084
   94SAPE  H11Y 9356   1.368   4.221   5.547  1.3294  0.8934 -0.9363
   94SAPE  C312 9357   1.314   4.343   5.373  0.5710  0.1841  0.0807
   94SAPE  H12X 9358   1.404   4.408   5.380 -0.4466  1.8077 -1.0392
   94SAPE  H12Y 9359   1.239   4.413   5.331  1.4538  1.5893  0.7583
   94SAPE  C313 9360   1.335   4.235   5.260 -0.1449 -0.1935  0.3323
   94SAPE  H13X 9361   1.233   4.195   5.243 -1.5873  3.4684 -0.5077
   94SAPE  H13Y 9362   1.391   4.148   5.302 -1.2526 -1.0651  0.0544
   94SAPE  C314 9363   1.392   4.292   5.131 -0.5358 -0.0068 -0.5338
   94SAPE  H14X 9364   1.431   4.211   5.066 -2.4057  0.2707 -2.1310
   94SAPE  H14Y 9365   1.469   4.368   5.155 -1.7837  1.1523 -0.0227
   94SAPE  C315 9366   1.291   4.355   5.030 -0.2140  0.1242 -0.2120
   94SAPE  H15X 9367   1.254   4.454   5.065 -1.8119 -0.7054  0.5647
   94SAPE  H15Y 9368   1.209   4.280   5.032  0.3615 -0.5199 -0.1265
   94SAPE  C316 9369   1.349   4.368   4.879  0.5983  0.2994 -0.1960
   94SAPE  H16X 9370   1.451   4.409   4.887  1.1334 -1.2865  2.0272
   94SAPE  H16Y 9371   1.272   4.427   4.824  0.0956 -2.6247 -2.9496
   94SAPE  C317 9372   1.362   4.234   4.808 -0.3222  0.8929  0.0831
   94SAPE  H17X 9373   1.262   4.186   4.797  0.7886 -0.9171 -4.1576
   94SAPE  H17Y 9374   1.434   4.168   4.860 -0.3262  0.9368  0.1451
   94SAPE  C318 9375   1.414   4.256   4.660 -0.0997 -0.1995 -0.4117
   94SAPE  H18X 9376   1.369   4.179   4.593  0.3836 -1.5806  0.7737
   94SAPE  H18Y 9377   1.523   4.240   4.650 -0.2581 -0.7205 -1.5331
   94SAPE  H18Z 9378   1.385   4.358   4.628 -1.0606  0.3355  1.9660
   95SAPE     N 9379   6.020   2.514   6.365 -0.5753  0.4405 -0.2303
   95SAPE   HN1 9380   6.022   2.410   6.361 -1.5543  0.4149 -0.4816
   95SAPE   HN2 9381   6.111   2.537   6.322  0.3938  0.7080  1.8329
   95SAPE   HN3 9382   6.011   2.555   6.460  1.1369 -1.9694  1.0835
   95SAPE   C12 9383   5.912   2.573   6.279  0.1887  0.4299 -0.0921
   95SAPE  H12A 9384   5.939   2.530   6.181  1.3399 -1.6829  1.0766
   95SAPE  H12B 9385   5.918   2.683   6.292  0.6831  0.3990 -0.0258
   95SAPE   C11 9386   5.777   2.533   6.336  0.1707  0.2539  0.4716
   95SAPE  H11A 9387   5.708   2.580   6.262  1.8839  1.6441 -0.2957
   95SAPE  H11B 9388   5.755   2.585   6.431 -1.6847  0.7048 -0.1552
   95SAPE     P 9389   5.617   2.336   6.413 -0.0791 -0.2022  0.2027
   95SAPE   O13 9390   5.605   2.197   6.381 -0.0960 -0.7482  0.2405
   95SAPE   O14 9391   5.622   2.376   6.555 -0.4561 -0.2480 -1.0520
   95SAPE   O12 9392   5.754   2.395   6.355 -0.0281  0.7719 -0.0961
   95SAPE   O11 9393   5.501   2.416   6.332 -0.0034  0.0264  0.5436
   95SAPE    C1 9394   5.469   2.365   6.203  0.0459 -0.5821  0.0330
   95SAPE    HA 9395   5.483   2.255   6.196 -0.8229 -0.8067  1.4056
   95SAPE    HB 9396   5.360   2.382   6.191 -0.1832 -1.9042  0.1168
   95SAPE    C2 9397   5.552   2.434   6.092  1.2759  0.2975  0.5509
   95SAPE    HS 9398   5.661   2.429   6.114  2.1533 -0.4273 -3.3182
   95SAPE   O21 9399   5.516   2.562   6.073 -0.8637 -0.6226 -0.2490
   95SAPE   C21 9400   5.601   2.644   6.013 -0.4309  0.0792  0.7832
   95SAPE   O22 9401   5.717   2.621   5.991  0.0929  0.8904  0.1789
   95SAPE   C22 9402   5.538   2.779   5.991 -0.1222 -0.1423  0.0070
   95SAPE   H2R 9403   5.441   2.779   6.045  0.0362  0.8126  0.3260
   95SAPE   H2S 9404   5.609   2.850   6.039  1.4028 -0.5800 -1.4725
   95SAPE    C3 9405   5.521   2.357   5.960  0.7513  0.1531  0.6862
   95SAPE    HX 9406   5.416   2.385   5.937  0.8624 -1.5201 -2.4373
   95SAPE    HY 9407   5.515   2.250   5.990  2.1553  0.3595  1.8176
   95SAPE   O31 9408   5.594   2.390   5.842 -0.4261  0.1974  0.6185
   95SAPE   C31 9409   5.719   2.332   5.845  0.8994  0.0188  0.7058
   95SAPE   O32 9410   5.760   2.253   5.927  0.1900 -0.0667 -0.1554
   95SAPE   C32 9411   5.793   2.376   5.716  0.5316  0.1972 -0.3749
   95SAPE   H2X 9412   5.736   2.458   5.667 -0.6667 -0.8068 -0.7259
   95SAPE   H2Y 9413   5.796   2.287   5.650  0.1720  0.0761 -0.2270
   95SAPE   C23 9414   5.519   2.801   5.839 -0.3002  0.1514  0.7627
   95SAPE   H3R 9415   5.456   2.723   5.791 -0.4519  0.1497  0.9604
   95SAPE   H3S 9416   5.614   2.778   5.787 -0.9691 -3.3702  0.8234
   95SAPE   C24 9417   5.476   2.945   5.798 -0.1801 -0.1247 -0.3056
   95SAPE   H4R 9418   5.522   2.977   5.702  0.2615  0.4295  0.0786
   95SAPE   H4S 9419   5.518   3.016   5.873  1.0086 -2.0463  0.9131
   95SAPE   C25 9420   5.323   2.954   5.787 -0.8613  0.2026  0.8619
   95SAPE   H5R 9421   5.263   2.939   5.878 -0.7871 -0.0247  0.8755
   95SAPE   C26 9422   5.248   2.983   5.676  0.0663  0.2870  0.4738
   95SAPE   H6R 9423   5.139   2.998   5.669  0.2169  0.6768 -3.4460
   95SAPE   C27 9424   5.313   3.014   5.541  0.2464 -0.5467 -0.5643
   95SAPE   H7R 9425   5.278   2.942   5.463 -1.1569 -2.3088  1.5464
   95SAPE   H7S 9426   5.423   3.005   5.548  0.1671 -0.1043  1.9935
   95SAPE   C28 9427   5.290   3.155   5.497  0.0658 -0.6678 -0.0646
   95SAPE   H8R 9428   5.283   3.230   5.578 -0.8404  1.5972 -2.1326
   95SAPE   C29 9429   5.255   3.199   5.374  0.6416 -0.5125 -0.2999
   95SAPE   H9R 9430   5.223   3.304   5.365  0.0709 -0.6228  0.4128
   95SAPE  C210 9431   5.249   3.123   5.242 -0.9968 -0.2347 -0.4885
   95SAPE  H10R 9432   5.189   3.177   5.165  1.2594  1.5866 -1.1048
   95SAPE  H10S 9433   5.178   3.040   5.256 -0.1403 -1.0909 -1.1166
   95SAPE  C211 9434   5.385   3.071   5.197 -0.1545 -1.3683 -0.3789
   95SAPE  H11R 9435   5.450   3.034   5.277  0.2429  1.5613  0.7900
   95SAPE  C212 9436   5.432   3.075   5.069 -0.2791  0.5219  0.2741
   95SAPE  H12R 9437   5.534   3.038   5.054  1.2132  3.4356  2.1145
   95SAPE  C213 9438   5.363   3.133   4.944 -0.0924  0.1990 -0.5326
   95SAPE  H13R 9439   5.341   3.242   4.953  1.0997  0.3567  0.8951
   95SAPE  H13S 9440   5.260   3.091   4.938 -0.0303  0.0764 -0.7705
   95SAPE  C214 9441   5.436   3.102   4.816 -0.2149 -0.1497 -0.1349
   95SAPE  H14R 9442   5.510   3.180   4.794  1.2961 -1.1901  1.0167
   95SAPE  C215 9443   5.416   2.993   4.741  1.0283 -0.9881 -0.7899
   95SAPE  H15R 9444   5.481   2.972   4.654 -0.4055 -1.2652 -1.8246
   95SAPE  C216 9445   5.319   2.880   4.770  0.0906  0.3372  0.5446
   95SAPE  H16R 9446   5.249   2.898   4.854 -2.0187 -1.3924 -0.7419
   95SAPE  H16S 9447   5.370   2.786   4.799  2.2619  0.9929 -0.9303
   95SAPE  C217 9448   5.237   2.868   4.646 -0.3488  0.6165  0.3985
   95SAPE  H17R 9449   5.157   2.793   4.660  1.3499 -1.3867 -0.2364
   95SAPE  H17S 9450   5.299   2.830   4.562 -2.0527 -1.7911  0.1514
   95SAPE  C218 9451   5.149   2.987   4.599 -0.1317  0.7899  0.0152
   95SAPE  H18R 9452   5.214   3.070   4.564  1.1167  0.7433  2.0169
   95SAPE  H18S 9453   5.084   3.022   4.683 -3.3569 -3.2695 -0.4729
   95SAPE  C219 9454   5.059   2.951   4.479 -0.0202  0.3115 -0.7897
   95SAPE  H19R 9455   4.968   2.901   4.516  1.4320 -1.6735  0.3036
   95SAPE  H19S 9456   5.109   2.869   4.423  0.6511  0.1675  0.0025
   95SAPE  C220 9457   5.020   3.068   4.396  0.0290  0.5668 -0.3550
   95SAPE  H20R 9458   5.103   3.094   4.327 -0.3766  2.1085 -0.2960
   95SAPE  H20S 9459   5.003   3.164   4.450 -2.9443  0.3729 -0.7890
   95SAPE  H20T 9460   4.929   3.060   4.333  0.5858 -0.9898 -1.0167
   95SAPE   C33 9461   5.929   2.443   5.745 -0.1584  0.2914 -0.3887
   95SAPE   H3X 9462   5.958   2.404   5.846  0.4597 -0.2596 -0.7711
   95SAPE   H3Y 9463   5.926   2.552   5.768 -0.3088  0.3325 -0.6125
   95SAPE   C34 9464   6.037   2.408   5.645  0.3126 -1.1893  1.1725
   95SAPE   H4X 9465   6.025   2.300   5.620 -1.3364 -0.8233  0.2606
   95SAPE   H4Y 9466   6.135   2.414   5.698  0.5376  0.9784  0.5864
   95SAPE   C35 9467   6.023   2.491   5.516  0.7251  0.5028  0.6255
   95SAPE   H5X 9468   6.058   2.587   5.561  1.1076  0.9352 -0.5598
   95SAPE   H5Y 9469   5.916   2.491   5.489  0.3840 -2.2196  1.6767
   95SAPE   C36 9470   6.107   2.437   5.397  0.3206  0.2389 -0.1123
   95SAPE   H6X 9471   6.096   2.328   5.414 -0.3594  0.3632  0.2594
   95SAPE   H6Y 9472   6.211   2.472   5.417  0.6524 -0.2080 -1.0173
   95SAPE   C37 9473   6.053   2.478   5.268  0.2157  0.0392 -0.0379
   95SAPE   H7X 9474   6.048   2.589   5.262 -0.2921  0.0146 -0.1376
   95SAPE   H7Y 9475   5.945   2.453   5.258 -0.0098  1.6375 -2.1599
   95SAPE   C38 9476   6.120   2.431   5.146 -0.6504  0.7166 -0.1989
   95SAPE   H8X 9477   6.109   2.320   5.142  0.7350  0.5853 -0.6374
   95SAPE   H8Y 9478   6.230   2.442   5.153 -0.7148  0.4089  1.8160
   95SAPE   C39 9479   6.051   2.476   5.018 -0.4869 -0.2092 -0.4627
   95SAPE   H9X 9480   6.054   2.587   5.018  0.1131 -0.1948  1.5448
   95SAPE   H9Y 9481   5.943   2.455   5.031 -0.6839  0.5602 -0.8252
   95SAPE  C310 9482   6.090   2.404   4.896 -0.1986 -0.4251  0.0382
   95SAPE  H10X 9483   6.054   2.299   4.894 -0.5789 -0.2960 -0.9345
   95SAPE  H10Y 9484   6.200   2.400   4.885  0.2823  4.4345  0.8695
   95SAPE  C311 9485   6.029   2.463   4.762 -0.0930 -0.2729 -0.8263
   95SAPE  H11X 9486   6.051   2.396   4.676  0.8157  0.0262 -0.8413
   95SAPE  H11Y 9487   6.091   2.555   4.753  1.8139 -1.4972 -0.7057
   95SAPE  C312 9488   5.881   2.495   4.780 -0.0621 -0.0671  0.0212
   95SAPE  H12X 9489   5.866   2.568   4.863 -2.0942  0.3591 -0.6759
   95SAPE  H12Y 9490   5.829   2.398   4.796 -0.3663  0.0797 -0.0773
   95SAPE  C313 9491   5.811   2.570   4.660  0.0042  0.5071 -0.2676
   95SAPE  H13X 9492   5.851   2.537   4.562 -0.8731 -0.3929 -0.3417
   95SAPE  H13Y 9493   5.825   2.680   4.656 -0.7490  0.5916 -0.8623
   95SAPE  C314 9494   5.655   2.545   4.676  0.0344  0.0627 -0.0471
   95SAPE  H14X 9495   5.633   2.567   4.783  0.0939  0.2398 -0.0717
   95SAPE  H14Y 9496   5.627   2.438   4.671 -0.6492  0.0447  2.6205
   95SAPE  C315 9497   5.567   2.620   4.574  0.2229 -0.6977 -0.3153
   95SAPE  H15X 9498   5.608   2.723   4.583  0.1733 -0.5858 -1.2917
   95SAPE  H15Y 9499   5.462   2.624   4.609 -0.7126  2.1858 -3.0822
   95SAPE  C316 9500   5.576   2.563   4.432 -0.2796 -0.2186  0.4437
   95SAPE  H16X 9501   5.634   2.468   4.438 -2.4591 -1.7092 -0.8113
   95SAPE  H16Y 9502   5.622   2.641   4.367 -0.9855 -0.1971 -0.0352
   95SAPE  C317 9503   5.434   2.520   4.384  0.7469 -0.4671  0.5781
   95SAPE  H17X 9504   5.361   2.595   4.424 -0.7239 -1.8105  0.5165
   95SAPE  H17Y 9505   5.408   2.426   4.438  0.6337  0.3094  1.9250
   95SAPE  C318 9506   5.420   2.533   4.235  0.1302  0.3500  0.2076
   95SAPE  H18X 9507   5.481   2.613   4.189 -1.1922  0.7597 -0.8950
   95SAPE  H18Y 9508   5.311   2.539   4.214  0.2201  1.7727  0.0739
   95SAPE  H18Z 9509   5.454   2.439   4.185 -2.7283  0.4408 -2.1635
   96SAPE     N 9510   2.279   5.030   7.124 -0.0690 -0.3731  0.5177
   96SAPE   HN1 9511   2.370   4.994   7.160  0.1402  1.8117  2.3672
   96SAPE   HN2 9512   2.212   5.041   7.202  0.2887  1.2493  0.6225
   96SAPE   HN3 9513   2.242   4.960   7.056 -2.3380  0.4070  0.8677
   96SAPE   C12 9514   2.292   5.154   7.044  0.5108 -0.1646  0.3078
   96SAPE  H12A 9515   2.331   5.239   7.103  0.8600 -1.6019  2.2502
   96SAPE  H12B 9516   2.188   5.180   7.014  0.1724 -2.7803 -1.1344
   96SAPE   C11 9517   2.376   5.141   6.914  0.0122  0.3702 -0.0337
   96SAPE  H11A 9518   2.388   5.237   6.860  0.9770  0.9420  1.1368
   96SAPE  H11B 9519   2.327   5.072   6.842  3.7823  0.4003 -2.8861
   96SAPE     P 9520   2.558   4.959   6.888 -0.1705  0.0764  0.0216
   96SAPE   O13 9521   2.707   4.945   6.894 -0.1878  0.1107 -0.3987
   96SAPE   O14 9522   2.473   4.846   6.942  0.4022 -0.1350 -0.1334
   96SAPE   O12 9523   2.505   5.089   6.958 -0.4635  0.6083  0.5398
   96SAPE   O11 9524   2.514   4.974   6.734  0.0770  0.7747 -0.0210
   96SAPE    C1 9525   2.463   4.874   6.651  0.0687  0.0923  0.0862
   96SAPE    HA 9526   2.549   4.816   6.610  1.5637  1.9187  0.5019
   96SAPE    HB 9527   2.398   4.803   6.706  0.4701 -0.5682 -0.2764
   96SAPE    C2 9528   2.378   4.953   6.552 -0.1368  0.5684  0.6806
   96SAPE    HS 9529   2.446   5.039   6.533  0.1220  0.5810  1.6445
   96SAPE   O21 9530   2.254   4.998   6.613  0.7247  0.3500 -0.5864
   96SAPE   C21 9531   2.224   5.126   6.581 -0.7493  0.3659 -0.4150
   96SAPE   O22 9532   2.289   5.200   6.512  0.1727 -0.2043 -0.0122
   96SAPE   C22 9533   2.101   5.161   6.666  0.3549 -0.7138  0.1621
   96SAPE   H2R 9534   2.102   5.089   6.750 -2.0954 -1.2243 -0.1557
   96SAPE   H2S 9535   2.108   5.265   6.702  0.0834 -0.7469  0.3160
   96SAPE    C3 9536   2.345   4.879   6.415 -0.2823  0.5575 -0.2953
   96SAPE    HX 9537   2.272   4.796   6.428 -1.9283  1.9576 -0.1627
   96SAPE    HY 9538   2.436   4.832   6.372 -2.0123 -1.2400 -2.2709
   96SAPE   O31 9539   2.314   4.971   6.305  0.3137 -0.1811  0.0555
   96SAPE   C31 9540   2.181   4.982   6.284  0.2024  0.8306  0.0178
   96SAPE   O32 9541   2.091   4.957   6.367 -0.2759  0.6631 -0.3147
   96SAPE   C32 9542   2.164   5.045   6.146  0.3259 -0.7305 -0.1399
   96SAPE   H2X 9543   2.129   4.968   6.074  0.0682  0.2769 -1.1109
   96SAPE   H2Y 9544   2.265   5.080   6.118  0.2807  0.3805  0.9740
   96SAPE   C23 9545   1.965   5.142   6.592  0.0341  0.3650  0.1872
   96SAPE   H3R 9546   1.884   5.147   6.668  1.3254  2.8484  1.5272
   96SAPE   H3S 9547   1.964   5.040   6.548 -1.4983  1.2235 -1.9328
   96SAPE   C24 9548   1.924   5.251   6.483  0.2208  0.2851  0.3165
   96SAPE   H4R 9549   2.001   5.262   6.404  1.7206 -2.8375  1.1709
   96SAPE   H4S 9550   1.919   5.338   6.552 -0.6368  0.7019 -0.2530
   96SAPE   C25 9551   1.791   5.243   6.410 -0.4419 -0.2598  0.3501
   96SAPE   H5R 9552   1.751   5.340   6.378  1.4359  0.0289 -1.3314
   96SAPE   C26 9553   1.718   5.136   6.379 -0.0051 -0.6429  0.0284
   96SAPE   H6R 9554   1.624   5.162   6.328  1.7028  0.7091 -2.6859
   96SAPE   C27 9555   1.745   4.987   6.397  0.1229 -0.1429 -0.4357
   96SAPE   H7R 9556   1.738   4.969   6.506  0.7055 -0.9580 -0.5218
   96SAPE   H7S 9557   1.850   4.963   6.369  0.0631 -1.5054  0.4130
   96SAPE   C28 9558   1.647   4.888   6.330  0.0441  0.2715  0.2767
   96SAPE   H8R 9559   1.563   4.848   6.389 -0.0315  0.0616  0.0257
   96SAPE   C29 9560   1.654   4.842   6.206  0.0610 -0.5787  0.9385
   96SAPE   H9R 9561   1.596   4.757   6.167  1.6612 -1.0585 -0.5572
   96SAPE  C210 9562   1.763   4.886   6.109 -0.4471  0.0450  0.2311
   96SAPE  H10R 9563   1.778   4.805   6.034  2.9236  1.3360 -0.6825
   96SAPE  H10S 9564   1.862   4.906   6.156 -1.7357  1.8993  2.3670
   96SAPE  C211 9565   1.720   5.006   6.027  0.8905  0.9829 -0.3638
   96SAPE  H11R 9566   1.687   5.094   6.084  2.2814  2.9385 -2.3705
   96SAPE  C212 9567   1.737   5.007   5.891  0.6518 -0.6597  0.0446
   96SAPE  H12R 9568   1.694   5.097   5.845 -0.1333 -0.4852  1.0652
   96SAPE  C213 9569   1.781   4.898   5.796 -1.1112  0.2863  0.5116
   96SAPE  H13R 9570   1.756   4.936   5.694  3.0373 -0.2324 -0.8592
   96SAPE  H13S 9571   1.732   4.801   5.819 -0.1464 -0.0302  1.2624
   96SAPE  C214 9572   1.928   4.873   5.800  0.1834  0.2222  0.0522
   96SAPE  H14R 9573   1.987   4.913   5.884  1.2628  2.1040 -1.5337
   96SAPE  C215 9574   1.990   4.798   5.711 -0.0148 -0.6699  0.0804
   96SAPE  H15R 9575   2.096   4.773   5.722  0.4961  1.9704  1.8470
   96SAPE  C216 9576   1.924   4.730   5.602 -0.0510 -1.0427  0.1315
   96SAPE  H16R 9577   1.815   4.717   5.621 -0.1405  0.8390  1.1307
   96SAPE  H16S 9578   1.986   4.640   5.578  1.0633 -0.1604 -0.3838
   96SAPE  C217 9579   1.934   4.817   5.474  0.7823  0.2623  0.6378
   96SAPE  H17R 9580   2.031   4.871   5.471  1.5733 -0.8831  2.8135
   96SAPE  H17S 9581   1.854   4.893   5.469 -0.6120 -1.0389  2.0474
   96SAPE  C218 9582   1.920   4.734   5.348  0.6229  0.4540  0.2127
   96SAPE  H18R 9583   1.822   4.689   5.320 -0.2874  1.5226  1.5505
   96SAPE  H18S 9584   1.987   4.650   5.376  1.4026  1.3848  1.1731
   96SAPE  C219 9585   1.974   4.804   5.223  0.3520 -0.4188  0.0689
   96SAPE  H19R 9586   1.990   4.733   5.139  2.7456  0.8322 -0.6093
   96SAPE  H19S 9587   2.073   4.853   5.237 -0.3444  0.2798  3.6603
   96SAPE  C220 9588   1.872   4.908   5.171 -0.9057 -0.4385 -0.3220
   96SAPE  H20R 9589   1.868   4.991   5.245  0.6089  0.4378 -1.1564
   96SAPE  H20S 9590   1.776   4.861   5.140 -1.0409 -0.3826  0.0083
   96SAPE  H20T 9591   1.907   4.962   5.080 -0.7820 -1.6748 -1.0315
   96SAPE   C33 9592   2.062   5.154   6.145 -0.2723 -0.2318  0.0317
   96SAPE   H3X 9593   2.093   5.240   6.209  1.0950  1.2829 -2.5116
   96SAPE   H3Y 9594   1.961   5.126   6.183 -0.4629  2.6159  2.0309
   96SAPE   C34 9595   2.054   5.213   6.003  0.1122  0.6038 -0.1653
   96SAPE   H4X 9596   2.024   5.138   5.926 -1.9250  0.7194  0.4521
   96SAPE   H4Y 9597   2.154   5.251   5.972  1.0121 -2.0957 -0.8827
   96SAPE   C35 9598   1.948   5.330   5.999 -0.3073  0.5170  0.3119
   96SAPE   H5X 9599   1.976   5.425   6.050  0.1348  0.7903 -0.4222
   96SAPE   H5Y 9600   1.862   5.286   6.054  1.6240 -2.1819  1.3890
   96SAPE   C36 9601   1.912   5.360   5.852 -0.7382 -0.0764  0.0829
   96SAPE   H6X 9602   1.914   5.260   5.804  0.1352  0.1925 -0.4642
   96SAPE   H6Y 9603   1.990   5.419   5.799 -0.6793 -2.7855 -3.1715
   96SAPE   C37 9604   1.772   5.420   5.846 -0.7061  0.5962 -0.4606
   96SAPE   H7X 9605   1.781   5.518   5.898 -0.0472  0.5870 -0.5539
   96SAPE   H7Y 9606   1.694   5.362   5.899  0.4227 -0.7211 -0.1764
   96SAPE   C38 9607   1.725   5.442   5.698 -0.0712  0.2022 -0.2212
   96SAPE   H8X 9608   1.802   5.498   5.640 -1.8797  0.6971 -2.2574
   96SAPE   H8Y 9609   1.634   5.505   5.694 -2.2008 -2.3853  2.8234
   96SAPE   C39 9610   1.698   5.315   5.622  0.0448  0.1244  0.2022
   96SAPE   H9X 9611   1.610   5.264   5.667  0.1269  1.6036  2.2325
   96SAPE   H9Y 9612   1.781   5.243   5.637  1.9142  1.9205 -0.9718
   96SAPE  C310 9613   1.667   5.338   5.467  0.3440 -0.2077 -0.2735
   96SAPE  H10X 9614   1.691   5.446   5.451 -0.2327  0.3218  2.1045
   96SAPE  H10Y 9615   1.559   5.324   5.445  0.3970 -1.9168  0.4581
   96SAPE  C311 9616   1.725   5.247   5.364 -0.7066 -0.1459  0.3814
   96SAPE  H11X 9617   1.684   5.145   5.382 -1.8174  0.2238  0.0355
   96SAPE  H11Y 9618   1.836   5.241   5.368 -0.6285 -2.5623 -2.1123
   96SAPE  C312 9619   1.700   5.283   5.211 -0.1890  0.4103 -0.1014
   96SAPE  H12X 9620   1.590   5.286   5.197 -0.4540  2.0079  1.8329
   96SAPE  H12Y 9621   1.725   5.196   5.147 -0.6438 -0.6421  1.1118
   96SAPE  C313 9622   1.756   5.419   5.166 -0.5575 -0.0036 -0.7255
   96SAPE  H13X 9623   1.865   5.416   5.188 -0.4223 -0.7838 -1.4574
   96SAPE  H13Y 9624   1.705   5.506   5.213  0.3350  0.5437 -0.7494
   96SAPE  C314 9625   1.745   5.446   5.015 -0.4005  0.6555  0.0580
   96SAPE  H14X 9626   1.750   5.349   4.961 -1.8734  0.7723 -0.3353
   96SAPE  H14Y 9627   1.833   5.502   4.979  0.5769 -0.7230  0.2128
   96SAPE  C315 9628   1.618   5.520   4.983  0.4775 -0.1940  0.1001
   96SAPE  H15X 9629   1.618   5.623   5.025  1.6453 -0.2788  0.3342
   96SAPE  H15Y 9630   1.531   5.466   5.028  0.2868 -0.1162 -0.1716
   96SAPE  C316 9631   1.601   5.525   4.830  0.0455 -1.1054  0.1173
   96SAPE  H16X 9632   1.607   5.422   4.789  0.6805 -1.5379  1.2527
   96SAPE  H16Y 9633   1.691   5.579   4.794 -2.1718  1.7096 -1.7777
   96SAPE  C317 9634   1.477   5.594   4.772  0.0123 -0.0759  0.5159
   96SAPE  H17X 9635   1.453   5.572   4.665 -1.7959  0.8507  0.6909
   96SAPE  H17Y 9636   1.485   5.705   4.780 -1.6377  0.5006 -3.2310
   96SAPE  C318 9637   1.349   5.569   4.847 -0.2759  0.2881  0.1643
   96SAPE  H18X 9638   1.260   5.611   4.796 -0.9304 -0.7094  0.4419
   96SAPE  H18Y 9639   1.366   5.603   4.951  0.2767 -0.9734  0.5050
   96SAPE  H18Z 9640   1.346   5.458   4.842  3.4712  0.0862 -2.2240
   97SAPE     N 9641   2.930   0.630   6.990  0.1180 -0.3232  0.0125
   97SAPE   HN1 9642   3.006   0.690   6.952 -0.1141  1.0521  1.6254
   97SAPE   HN2 9643   2.971   0.540   7.023 -0.0784 -0.0227  1.1118
   97SAPE   HN3 9644   2.866   0.603   6.912  0.3942 -1.9156  0.3011
   97SAPE   C12 9645   2.864   0.705   7.102 -0.3545  0.0645  0.4348
   97SAPE  H12A 9646   2.817   0.794   7.055  1.1276 -1.1393 -3.7497
   97SAPE  H12B 9647   2.950   0.743   7.161  0.2568  0.2653 -0.5622
   97SAPE   C11 9648   2.784   0.623   7.196  0.0414  0.6734 -0.4182
   97SAPE  H11A 9649   2.754   0.678   7.288  1.2700  2.4567 -1.0063
   97SAPE  H11B 9650   2.847   0.536   7.224 -2.8260 -1.4390 -0.1733
   97SAPE     P 9651   2.539   0.625   7.115 -0.0093  0.1697  0.2450
   97SAPE   O13 9652   2.497   0.686   7.241 -0.2998 -0.5964  0.1029
   97SAPE   O14 9653   2.555   0.711   6.997  0.2396 -0.2728 -0.1758
   97SAPE   O12 9654   2.678   0.551   7.135  0.3801 -0.9887 -0.3581
   97SAPE   O11 9655   2.434   0.514   7.085 -0.6832  0.1009 -0.5029
   97SAPE    C1 9656   2.466   0.381   7.083  0.3126  0.1627  0.1294
   97SAPE    HA 9657   2.545   0.355   7.156  1.5499 -0.9597 -1.5388
   97SAPE    HB 9658   2.378   0.323   7.117  1.8502 -0.8844  2.5847
   97SAPE    C2 9659   2.520   0.320   6.945  0.0594  0.5497 -0.0253
   97SAPE    HS 9660   2.619   0.365   6.919 -0.5710  0.6340 -2.5117
   97SAPE   O21 9661   2.418   0.350   6.852 -0.1131  0.0906 -0.2004
   97SAPE   C21 9662   2.463   0.399   6.739 -0.0855  0.7183  0.4748
   97SAPE   O22 9663   2.583   0.412   6.711 -0.1705  0.1690  0.0239
   97SAPE   C22 9664   2.346   0.428   6.644 -0.1041  0.0647  0.0101
   97SAPE   H2R 9665   2.350   0.341   6.575 -0.2345  2.3241 -3.0497
   97SAPE   H2S 9666   2.259   0.454   6.708  2.6012  1.8765  3.2866
   97SAPE    C3 9667   2.542   0.169   6.965  0.1400 -0.2151 -0.0059
   97SAPE    HX 9668   2.446   0.118   6.945 -0.7431 -0.1917  3.4991
   97SAPE    HY 9669   2.571   0.154   7.072 -1.9437 -2.5562  0.3110
   97SAPE   O31 9670   2.647   0.131   6.884  0.0359 -0.0634  0.3091
   97SAPE   C31 9671   2.629   0.041   6.789 -0.3442 -0.1422  0.0090
   97SAPE   O32 9672   2.536  -0.026   6.770  0.2668  0.0893  0.1618
   97SAPE   C32 9673   2.753   0.045   6.705 -0.2859  0.7245  0.1612
   97SAPE   H2X 9674   2.827  -0.031   6.736 -0.8256  0.6537  1.3127
   97SAPE   H2Y 9675   2.801   0.145   6.691  1.2551  0.0485  0.4606
   97SAPE   C23 9676   2.385   0.546   6.550  0.2651 -0.3432 -0.3424
   97SAPE   H3R 9677   2.448   0.502   6.470  3.2791  1.4566  0.8556
   97SAPE   H3S 9678   2.444   0.627   6.599  1.6732 -1.8066  0.5065
   97SAPE   C24 9679   2.261   0.603   6.482 -0.7929  0.0489 -0.3929
   97SAPE   H4R 9680   2.288   0.704   6.446  1.7977 -0.3417  0.2298
   97SAPE   H4S 9681   2.188   0.613   6.565  2.3404 -0.9979  2.7541
   97SAPE   C25 9682   2.199   0.505   6.386 -0.4058  0.4168 -0.0450
   97SAPE   H5R 9683   2.167   0.407   6.426  0.3300  0.3684  0.4580
   97SAPE   C26 9684   2.183   0.513   6.253 -0.0263 -0.5848 -0.2843
   97SAPE   H6R 9685   2.153   0.425   6.195  2.0006 -0.8088 -1.0745
   97SAPE   C27 9686   2.198   0.636   6.165 -0.2696  0.5879  0.2969
   97SAPE   H7R 9687   2.219   0.731   6.219 -0.6379  0.3683  0.8391
   97SAPE   H7S 9688   2.102   0.649   6.111  0.3381 -1.1022 -1.2863
   97SAPE   C28 9689   2.301   0.620   6.056 -0.1653  0.4470 -0.0645
   97SAPE   H8R 9690   2.386   0.553   6.075 -0.2553  0.3187 -0.1150
   97SAPE   C29 9691   2.304   0.695   5.944 -0.1513  0.4319 -0.4803
   97SAPE   H9R 9692   2.392   0.680   5.880  0.6935 -1.1927  0.9740
   97SAPE  C210 9693   2.210   0.801   5.895 -0.0701 -0.1268 -0.5693
   97SAPE  H10R 9694   2.268   0.889   5.858 -1.1129  0.7084 -0.2744
   97SAPE  H10S 9695   2.153   0.838   5.982  0.1237  0.2557 -0.6010
   97SAPE  C211 9696   2.097   0.774   5.792  0.6748  0.4678  0.2517
   97SAPE  H11R 9697   1.997   0.741   5.821  0.3018 -1.6819 -2.9518
   97SAPE  C212 9698   2.132   0.763   5.665  0.6113 -0.2638 -0.2868
   97SAPE  H12R 9699   2.053   0.755   5.589  1.4370  0.3770 -1.2388
   97SAPE  C213 9700   2.266   0.792   5.601 -0.0800  0.5270 -0.0825
   97SAPE  H13R 9701   2.304   0.706   5.542 -2.0209  0.5953 -1.5492
   97SAPE  H13S 9702   2.337   0.802   5.686  0.5040 -1.9261 -0.2196
   97SAPE  C214 9703   2.270   0.918   5.518 -0.2573  0.5792 -0.6770
   97SAPE  H14R 9704   2.272   1.009   5.579  0.5671  0.1799 -0.0955
   97SAPE  C215 9705   2.263   0.928   5.387  0.1397  0.1380  0.2954
   97SAPE  H15R 9706   2.264   1.026   5.337  1.3082 -0.9110 -1.8519
   97SAPE  C216 9707   2.252   0.806   5.297  1.2603  0.0253  0.1066
   97SAPE  H16R 9708   2.190   0.831   5.207  0.4964 -0.9025  0.3606
   97SAPE  H16S 9709   2.200   0.720   5.344 -1.8363  0.9189 -1.3877
   97SAPE  C217 9710   2.388   0.759   5.245  0.2960 -0.7380  0.3941
   97SAPE  H17R 9711   2.446   0.722   5.333  0.3449  0.5550  0.9367
   97SAPE  H17S 9712   2.446   0.832   5.185 -1.7619  0.3101 -0.4032
   97SAPE  C218 9713   2.375   0.632   5.162  0.1669 -0.3155  0.5776
   97SAPE  H18R 9714   2.311   0.567   5.226 -0.1538  0.1572  0.7450
   97SAPE  H18S 9715   2.477   0.589   5.151  0.1779 -0.1710  0.0972
   97SAPE  C219 9716   2.309   0.640   5.024  0.4462  0.2703 -0.4577
   97SAPE  H19R 9717   2.229   0.716   5.020 -1.0920 -1.2048  0.8529
   97SAPE  H19S 9718   2.257   0.544   5.004  1.1840 -0.5440  1.3220
   97SAPE  C220 9719   2.417   0.665   4.920 -0.6379  0.7864  0.0538
   97SAPE  H20R 9720   2.492   0.583   4.929 -2.8240 -1.7480 -2.7465
   97SAPE  H20S 9721   2.472   0.762   4.921  1.3500 -0.1914 -2.2626
   97SAPE  H20T 9722   2.363   0.665   4.823  0.4998  0.5126 -0.5977
   97SAPE   C33 9723   2.718   0.021   6.554 -0.1530  0.1722  0.6780
   97SAPE   H3X 9724   2.660  -0.073   6.544  1.9702 -1.1429  0.2140
   97SAPE   H3Y 9725   2.816   0.012   6.502  0.2678 -2.6870  1.8377
   97SAPE   C34 9726   2.630   0.133   6.489 -0.4201 -0.0266 -0.1106
   97SAPE   H4X 9727   2.692   0.225   6.487 -0.5214  0.0411 -0.1615
   97SAPE   H4Y 9728   2.556   0.162   6.567 -0.3791  1.0237 -0.4528
   97SAPE   C35 9729   2.552   0.082   6.366 -0.1139 -0.1834  0.1450
   97SAPE   H5X 9730   2.479   0.005   6.399  0.8130 -1.4263 -0.6449
   97SAPE   H5Y 9731   2.614   0.020   6.298 -2.2341 -2.4616  0.1455
   97SAPE   C36 9732   2.470   0.190   6.308 -0.5874  1.1580  0.2559
   97SAPE   H6X 9733   2.538   0.269   6.267 -0.2425  2.0645  2.4551
   97SAPE   H6Y 9734   2.417   0.240   6.392  2.0011  2.2991  1.3226
   97SAPE   C37 9735   2.368   0.136   6.204 -0.3863  0.0379  0.3628
   97SAPE   H7X 9736   2.319   0.225   6.159  0.9196  1.8498  2.3571
   97SAPE   H7Y 9737   2.286   0.073   6.245  0.0835 -0.6353  0.3055
   97SAPE   C38 9738   2.438   0.043   6.109 -0.1755  0.4782 -0.3781
   97SAPE   H8X 9739   2.423  -0.063   6.141 -0.1539  0.5219 -0.2191
   97SAPE   H8Y 9740   2.547   0.061   6.098 -0.1383  0.1361 -0.5755
   97SAPE   C39 9741   2.367   0.055   5.967 -0.5351  0.2510  0.2439
   97SAPE   H9X 9742   2.392   0.160   5.940  1.0107  0.0861  0.9314
   97SAPE   H9Y 9743   2.257   0.059   5.982 -0.4671  0.3330  0.7503
   97SAPE  C310 9744   2.410  -0.046   5.859  0.6388 -0.0797 -1.3357
   97SAPE  H10X 9745   2.392  -0.148   5.900 -1.2339  0.3314 -1.0085
   97SAPE  H10Y 9746   2.520  -0.042   5.852  0.7352 -0.3862 -0.2402
   97SAPE  C311 9747   2.342  -0.015   5.730  0.0803 -0.2059 -0.5833
   97SAPE  H11X 9748   2.372   0.075   5.672  2.5198 -1.2145 -1.0170
   97SAPE  H11Y 9749   2.232  -0.009   5.746 -0.2449  0.1968 -2.7015
   97SAPE  C312 9750   2.355  -0.120   5.617 -0.1726  0.0926  0.0774
   97SAPE  H12X 9751   2.299  -0.085   5.527 -0.3582  0.5529  0.3676
   97SAPE  H12Y 9752   2.305  -0.214   5.649 -0.3857 -0.7084 -2.3333
   97SAPE  C313 9753   2.499  -0.152   5.572  0.6172  0.1037  0.5546
   97SAPE  H13X 9754   2.553  -0.191   5.662  2.6820  0.9573 -0.2457
   97SAPE  H13Y 9755   2.554  -0.058   5.551  1.0090  0.3537  2.4739
   97SAPE  C314 9756   2.513  -0.268   5.472  0.8203 -0.5737  0.1766
   97SAPE  H14X 9757   2.459  -0.348   5.528 -1.2798  1.6183  1.4903
   97SAPE  H14Y 9758   2.617  -0.297   5.448  0.7502 -1.4773  0.8799
   97SAPE  C315 9759   2.440  -0.232   5.339 -0.6029  0.2039 -0.3552
   97SAPE  H15X 9760   2.488  -0.139   5.304  0.0067 -0.9851 -2.8950
   97SAPE  H15Y 9761   2.333  -0.210   5.354 -0.5310 -0.6624  1.7884
   97SAPE  C316 9762   2.459  -0.344   5.234  0.3464  0.4680 -0.0808
   97SAPE  H16X 9763   2.421  -0.440   5.274  0.4288 -0.3902 -1.9916
   97SAPE  H16Y 9764   2.567  -0.356   5.215 -0.0711 -1.1391 -1.6545
   97SAPE  C317 9765   2.375  -0.326   5.103 -0.3127  0.3570 -0.6015
   97SAPE  H17X 9766   2.268  -0.327   5.133  0.1147 -2.7155  1.2452
   97SAPE  H17Y 9767   2.385  -0.420   5.043 -0.1614  0.1917 -0.3154
   97SAPE  C318 9768   2.414  -0.213   5.009 -0.1839 -0.0430 -0.5215
   97SAPE  H18X 9769   2.407  -0.119   5.069  0.1870 -0.5287  0.3002
   97SAPE  H18Y 9770   2.344  -0.217   4.923  1.9967 -0.6660 -2.3760
   97SAPE  H18Z 9771   2.516  -0.230   4.967 -0.0283 -1.8971  0.5260
   98SAPE     N 9772   0.963   6.462   7.175  0.4482 -0.2614  0.3678
   98SAPE   HN1 9773   1.022   6.376   7.177  2.5095  1.0719  2.1872
   98SAPE   HN2 9774   1.026   6.538   7.142  0.7556 -0.4627  0.4908
   98SAPE   HN3 9775   0.933   6.483   7.273 -2.7953  0.0427 -0.5738
   98SAPE   C12 9776   0.846   6.445   7.080 -0.2865 -0.0500 -0.2131
   98SAPE  H12A 9777   0.765   6.390   7.131 -0.9833 -0.9701 -2.2092
   98SAPE  H12B 9778   0.886   6.377   7.002  4.0881  1.4807  0.3804
   98SAPE   C11 9779   0.811   6.569   7.018 -0.4332 -0.3233  0.0505
   98SAPE  H11A 9780   0.735   6.552   6.938 -1.1887 -0.3069  0.7522
   98SAPE  H11B 9781   0.902   6.604   6.966 -0.0776  1.7759  1.9505
   98SAPE     P 9782   0.610   6.680   7.141 -0.3764 -0.2476  0.1196
   98SAPE   O13 9783   0.568   6.554   7.203 -0.2844 -0.2075 -0.0976
   98SAPE   O14 9784   0.601   6.804   7.220  0.1832 -0.5029  0.4416
   98SAPE   O12 9785   0.763   6.671   7.107  0.1097  0.8007  0.2761
   98SAPE   O11 9786   0.542   6.703   7.006  0.2949 -0.6196  0.5076
   98SAPE    C1 9787   0.426   6.616   6.982  0.2611  0.1836  0.5671
   98SAPE    HA 9788   0.470   6.522   6.944 -0.1560  0.9136 -1.9122
   98SAPE    HB 9789   0.369   6.599   7.076  0.6884  1.2910  1.0479
   98SAPE    C2 9790   0.326   6.667   6.873 -0.1979 -0.1607 -0.7247
   98SAPE    HS 9791   0.233   6.607   6.865 -0.8896  0.5120  1.4906
   98SAPE   O21 9792   0.399   6.663   6.754  0.3242  0.1719  0.5882
   98SAPE   C21 9793   0.393   6.549   6.686 -0.5877 -0.2906  0.0014
   98SAPE   O22 9794   0.380   6.440   6.735 -0.0631  0.5325 -0.0946
   98SAPE   C22 9795   0.382   6.585   6.539  0.5614  0.0731 -0.4069
   98SAPE   H2R 9796   0.284   6.636   6.528  0.1927 -0.7198 -0.9175
   98SAPE   H2S 9797   0.472   6.648   6.522 -0.6170  1.1629 -3.2285
   98SAPE    C3 9798   0.282   6.811   6.907  0.2031  0.3805  0.3698
   98SAPE    HX 9799   0.375   6.871   6.920  1.0628 -1.2834  2.5517
   98SAPE    HY 9800   0.220   6.808   6.999 -2.6229 -1.0594 -1.4687
   98SAPE   O31 9801   0.185   6.854   6.809 -0.3038 -0.2469 -0.3267
   98SAPE   C31 9802   0.210   6.967   6.744  0.4080  0.0064 -0.6794
   98SAPE   O32 9803   0.309   7.037   6.762  0.1224 -0.3364  0.2453
   98SAPE   C32 9804   0.087   7.003   6.660  0.2216  0.4263 -0.1282
   98SAPE   H2X 9805   0.038   7.084   6.717  1.0692  0.0581  1.1591
   98SAPE   H2Y 9806   0.024   6.912   6.655  2.4968 -1.2097 -0.8975
   98SAPE   C23 9807   0.401   6.461   6.443 -0.5303 -0.3259 -0.2976
   98SAPE   H3R 9808   0.313   6.395   6.459 -1.1284  0.6222  0.3635
   98SAPE   H3S 9809   0.490   6.403   6.475 -0.5928 -1.6450 -2.3017
   98SAPE   C24 9810   0.400   6.502   6.295 -0.7105 -0.1758 -0.1083
   98SAPE   H4R 9811   0.328   6.587   6.292 -0.8449 -0.3072 -0.8364
   98SAPE   H4S 9812   0.343   6.417   6.254  0.0253  0.2211 -2.0541
   98SAPE   C25 9813   0.521   6.533   6.208  0.3085 -0.2157 -0.0273
   98SAPE   H5R 9814   0.611   6.543   6.271  0.6929  2.2273 -0.8781
   98SAPE   C26 9815   0.528   6.569   6.077  0.0647 -0.5355  0.5058
   98SAPE   H6R 9816   0.627   6.600   6.042  0.2403  0.2924  1.7071
   98SAPE   C27 9817   0.415   6.569   5.974  0.4131 -0.4114  0.1330
   98SAPE   H7R 9818   0.391   6.667   5.926  1.8349 -0.7810 -1.4155
   98SAPE   H7S 9819   0.332   6.552   6.046  0.5569  1.6193  0.8489
   98SAPE   C28 9820   0.418   6.457   5.874  0.0389 -0.8031  0.5556
   98SAPE   H8R 9821   0.415   6.363   5.930 -1.4029 -2.0367 -1.4581
   98SAPE   C29 9822   0.387   6.453   5.742  0.9131 -0.0601 -0.3039
   98SAPE   H9R 9823   0.415   6.360   5.691 -2.3681 -2.0861  1.2687
   98SAPE  C210 9824   0.365   6.575   5.655 -0.0462 -0.4263 -0.0818
   98SAPE  H10R 9825   0.383   6.663   5.721 -0.0355 -0.0512 -0.5817
   98SAPE  H10S 9826   0.258   6.592   5.629  0.2760 -0.0447 -1.1969
   98SAPE  C211 9827   0.458   6.571   5.535  0.0572  0.6111  0.2821
   98SAPE  H11R 9828   0.563   6.568   5.568 -0.0122  1.9152  0.6820
   98SAPE  C212 9829   0.430   6.583   5.405  0.3550  0.0132  0.5042
   98SAPE  H12R 9830   0.506   6.551   5.332 -0.2182 -1.0262  0.3514
   98SAPE  C213 9831   0.301   6.621   5.347 -0.6462  0.2053  0.0968
   98SAPE  H13R 9832   0.282   6.726   5.381  0.7979  0.5981 -0.2507
   98SAPE  H13S 9833   0.220   6.557   5.387 -1.8356  2.0501  0.8035
   98SAPE  C214 9834   0.297   6.621   5.195  0.2071 -0.6926  0.1264
   98SAPE  H14R 9835   0.373   6.689   5.152 -0.4503  0.2871  0.4748
   98SAPE  C215 9836   0.211   6.562   5.113  0.4457  0.4068  0.1476
   98SAPE  H15R 9837   0.222   6.581   5.006  0.4612 -2.9328 -0.5522
   98SAPE  C216 9838   0.099   6.465   5.152 -0.2111 -0.2547  0.0807
   98SAPE  H16R 9839   0.003   6.519   5.142 -0.9482 -0.4073  4.4059
   98SAPE  H16S 9840   0.102   6.429   5.257 -0.6432  0.4288  0.3413
   98SAPE  C217 9841   0.096   6.353   5.052  0.4756  0.2572  0.0820
   98SAPE  H17R 9842   0.054   6.265   5.105 -0.1574  0.0468 -0.7372
   98SAPE  H17S 9843   0.195   6.325   5.010 -0.1081 -1.5550 -0.1596
   98SAPE  C218 9844   0.005   6.384   4.927  0.3559 -0.5849  0.2635
   98SAPE  H18R 9845   0.034   6.481   4.882  0.4588 -0.3130  0.9031
   98SAPE  H18S 9846  -0.095   6.382   4.976 -0.3318  1.6734 -0.8930
   98SAPE  C219 9847   0.010   6.272   4.822  0.1980 -0.4137  0.3492
   98SAPE  H19R 9848   0.004   6.171   4.869 -1.7040 -0.9567 -0.9514
   98SAPE  H19S 9849   0.104   6.279   4.762 -0.8442  0.5157 -1.2603
   98SAPE  C220 9850  -0.100   6.277   4.714 -0.2222  0.5759 -0.3083
   98SAPE  H20R 9851  -0.092   6.369   4.653  1.2031 -0.0724 -1.1703
   98SAPE  H20S 9852  -0.197   6.272   4.768 -0.0951  1.0712 -0.0304
   98SAPE  H20T 9853  -0.086   6.193   4.642 -4.4226 -0.4127 -0.2560
   98SAPE   C33 9854   0.135   7.057   6.527  0.0292 -0.0668  0.5470
   98SAPE   H3X 9855   0.234   7.109   6.523 -0.5689  1.1048  0.3576
   98SAPE   H3Y 9856   0.054   7.125   6.493  0.1544  1.3548  2.8029
   98SAPE   C34 9857   0.147   6.943   6.418 -0.0562  0.5107 -0.1570
   98SAPE   H4X 9858   0.047   6.901   6.395 -0.0373  0.5691 -0.3473
   98SAPE   H4Y 9859   0.206   6.855   6.452 -0.5412  0.1405 -0.2580
   98SAPE   C35 9860   0.208   6.998   6.288 -0.0194 -0.1726 -0.9963
   98SAPE   H5X 9861   0.310   7.038   6.307 -0.3783  0.9136 -1.3098
   98SAPE   H5Y 9862   0.152   7.090   6.262  0.3161  0.4356  0.3348
   98SAPE   C36 9863   0.214   6.899   6.171  0.0614 -0.4408  0.1712
   98SAPE   H6X 9864   0.129   6.827   6.170  0.2940 -0.7510  1.3569
   98SAPE   H6Y 9865   0.306   6.837   6.171  0.0551 -0.4502  0.0625
   98SAPE   C37 9866   0.195   6.973   6.030  0.2213 -0.1165 -0.1836
   98SAPE   H7X 9867   0.269   7.056   6.037  0.4933 -0.5026  2.0074
   98SAPE   H7Y 9868   0.094   7.019   6.034  0.2425 -0.1314  0.7214
   98SAPE   C38 9869   0.214   6.903   5.899  0.4074  0.2096 -0.3481
   98SAPE   H8X 9870   0.141   6.819   5.895 -0.3221  0.8527 -0.8988
   98SAPE   H8Y 9871   0.316   6.861   5.892  0.9927  1.4245  0.5617
   98SAPE   C39 9872   0.191   6.994   5.783  0.6454  0.3933  0.4789
   98SAPE   H9X 9873   0.263   7.078   5.793  1.4802 -0.2931  0.3690
   98SAPE   H9Y 9874   0.092   7.043   5.799  0.6546  0.7037 -0.3816
   98SAPE  C310 9875   0.179   6.926   5.646  0.1465  0.2880 -0.5701
   98SAPE  H10X 9876   0.120   6.831   5.652 -0.1951  0.4496 -1.2334
   98SAPE  H10Y 9877   0.281   6.898   5.613 -0.0518 -1.1033 -0.0701
   98SAPE  C311 9878   0.115   7.017   5.539 -0.1945  0.2992  0.6216
   98SAPE  H11X 9879   0.156   7.120   5.551 -0.5363  0.3098  1.8048
   98SAPE  H11Y 9880   0.007   7.024   5.564 -0.5817 -3.0645  0.2967
   98SAPE  C312 9881   0.154   6.981   5.393 -0.0414 -0.1785 -0.2263
   98SAPE  H12X 9882   0.109   6.883   5.368 -2.7657  0.7837  0.5468
   98SAPE  H12Y 9883   0.265   6.985   5.387 -0.0118  0.0466  0.4501
   98SAPE  C313 9884   0.103   7.083   5.292  0.4643 -1.0585  0.1376
   98SAPE  H13X 9885   0.149   7.182   5.311 -3.2316  0.7269  0.6218
   98SAPE  H13Y 9886  -0.008   7.089   5.299  0.5945 -0.5347  2.7443
   98SAPE  C314 9887   0.147   7.039   5.150  0.6799  0.7684 -1.0315
   98SAPE  H14X 9888   0.110   6.937   5.129 -0.9889  1.2617 -0.6194
   98SAPE  H14Y 9889   0.258   7.040   5.146  0.9228  2.8522  2.0997
   98SAPE  C315 9890   0.085   7.121   5.033 -0.0299  0.3159 -0.7755
   98SAPE  H15X 9891   0.110   7.227   5.052 -0.0944  0.1602  0.2703
   98SAPE  H15Y 9892  -0.025   7.135   5.034 -0.2946 -1.2553  1.6650
   98SAPE  C316 9893   0.134   7.080   4.898 -0.0031  0.3217 -0.5186
   98SAPE  H16X 9894   0.089   6.978   4.894 -0.4973  0.5452 -0.6165
   98SAPE  H16Y 9895   0.244   7.068   4.894  0.0318 -0.9616  2.0764
   98SAPE  C317 9896   0.081   7.174   4.788 -0.8889  0.1508 -0.5549
   98SAPE  H17X 9897   0.132   7.273   4.791 -0.2759 -0.1537 -0.7584
   98SAPE  H17Y 9898  -0.026   7.195   4.809 -0.1627  3.9387  0.0052
   98SAPE  C318 9899   0.092   7.124   4.640  0.4559 -0.3330  0.4553
   98SAPE  H18X 9900   0.071   7.200   4.562 -0.8216 -2.4153 -1.3604
   98SAPE  H18Y 9901   0.015   7.045   4.627  0.4184 -0.5252  1.6979
   98SAPE  H18Z 9902   0.193   7.082   4.622  0.7493  0.4491  0.2533
   99SAPE     N 9903   2.155   6.742   6.906 -0.8035 -0.2286 -0.1001
   99SAPE   HN1 9904   2.057   6.711   6.923 -0.4869 -3.2216 -2.8056
   99SAPE   HN2 9905   2.205   6.656   6.875  0.1435 -0.2365  1.3999
   99SAPE   HN3 9906   2.206   6.771   6.991 -1.7996 -1.5474  0.9813
   99SAPE   C12 9907   2.154   6.859   6.801  0.5369  0.4886 -0.2722
   99SAPE  H12A 9908   2.251   6.854   6.747  1.7587  4.0451  1.2875
   99SAPE  H12B 9909   2.136   6.956   6.852  2.3757  0.1980  1.0310
   99SAPE   C11 9910   2.027   6.851   6.703 -0.4631 -0.2305 -0.5684
   99SAPE  H11A 9911   2.028   6.745   6.668 -2.4664 -0.4015 -0.1788
   99SAPE  H11B 9912   2.052   6.935   6.635 -0.6443 -0.0845 -0.4533
   99SAPE     P 9913   1.811   6.781   6.834 -0.3678 -0.6734  0.4556
   99SAPE   O13 9914   1.892   6.699   6.924 -0.5031  0.5863 -0.1663
   99SAPE   O14 9915   1.691   6.843   6.891 -0.1600  0.1980 -0.1037
   99SAPE   O12 9916   1.906   6.890   6.764  0.3470  0.4280 -0.8327
   99SAPE   O11 9917   1.775   6.689   6.713 -0.0692 -0.1117  0.4201
   99SAPE    C1 9918   1.751   6.545   6.727 -0.1984 -1.1621  0.1241
   99SAPE    HA 9919   1.852   6.503   6.749  0.2049 -0.1946  0.1828
   99SAPE    HB 9920   1.681   6.513   6.806 -1.9540 -1.4326 -1.4697
   99SAPE    C2 9921   1.703   6.487   6.590  0.2478  0.0741  1.1025
   99SAPE    HS 9922   1.718   6.377   6.577  0.6695  0.4118 -1.8154
   99SAPE   O21 9923   1.756   6.547   6.471  0.3502  0.3557 -0.2380
   99SAPE   C21 9924   1.896   6.530   6.459 -0.3382  0.0360  0.5823
   99SAPE   O22 9925   1.959   6.452   6.522  0.0517 -0.4304 -0.4281
   99SAPE   C22 9926   1.949   6.613   6.347  0.0792 -0.3730 -0.2196
   99SAPE   H2R 9927   2.060   6.609   6.343  0.2701  1.5147  1.6312
   99SAPE   H2S 9928   1.916   6.557   6.256 -2.2051  1.2104 -0.4577
   99SAPE    C3 9929   1.546   6.482   6.581  0.6262  0.3932  0.4164
   99SAPE    HX 9930   1.505   6.585   6.584 -0.9235 -0.2202  1.4476
   99SAPE    HY 9931   1.517   6.435   6.677  0.6455 -0.6437 -0.0741
   99SAPE   O31 9932   1.499   6.411   6.464 -0.2702 -0.3328 -0.2607
   99SAPE   C31 9933   1.393   6.333   6.478  0.8728  1.0646  0.8120
   99SAPE   O32 9934   1.318   6.320   6.577 -0.0526  0.3790 -0.2910
   99SAPE   C32 9935   1.380   6.253   6.355 -0.0790  0.1628 -0.0820
   99SAPE   H2X 9936   1.304   6.175   6.377  1.1997 -1.5162 -1.3037
   99SAPE   H2Y 9937   1.472   6.208   6.312 -1.9776 -1.9326 -2.2576
   99SAPE   C23 9938   1.899   6.764   6.351  0.3401  0.4715 -0.2707
   99SAPE   H3R 9939   1.926   6.801   6.452 -0.2461  0.8990 -0.2626
   99SAPE   H3S 9940   1.788   6.767   6.342  0.3318  1.3492  0.0449
   99SAPE   C24 9941   1.975   6.857   6.255  0.1449  0.8979  0.1436
   99SAPE   H4R 9942   1.974   6.806   6.157  3.9695  0.0921  0.3599
   99SAPE   H4S 9943   2.076   6.883   6.293 -0.3123  1.1185  1.2753
   99SAPE   C25 9944   1.889   6.986   6.257 -0.3119 -0.1599 -0.3034
   99SAPE   H5R 9945   1.869   7.017   6.361  1.7397 -3.2959  1.1642
   99SAPE   C26 9946   1.854   7.067   6.155 -0.2850  1.0257  0.4449
   99SAPE   H6R 9947   1.791   7.157   6.167 -0.2440  0.9737  1.1006
   99SAPE   C27 9948   1.900   7.040   6.014  0.0630 -0.5750 -0.3100
   99SAPE   H7R 9949   1.824   6.976   5.964  0.9719 -1.3798 -0.6951
   99SAPE   H7S 9950   1.992   6.978   6.015 -0.1802 -0.9717  2.1104
   99SAPE   C28 9951   1.916   7.162   5.925  0.0875  0.3325 -0.1031
   99SAPE   H8R 9952   1.857   7.250   5.953 -0.3284 -0.1995  0.7184
   99SAPE   C29 9953   1.976   7.172   5.803  0.0160  0.8050 -0.7415
   99SAPE   H9R 9954   1.978   7.268   5.751  2.3598  1.4915  0.4863
   99SAPE  C210 9955   2.041   7.052   5.733 -0.5819  0.7836 -0.3606
   99SAPE  H10R 9956   1.963   6.988   5.688 -0.0822 -1.6502  1.9638
   99SAPE  H10S 9957   2.069   6.980   5.813 -3.0500  0.4152  0.2518
   99SAPE  C211 9958   2.164   7.097   5.657  0.1037 -0.6414 -0.0782
   99SAPE  H11R 9959   2.257   7.106   5.715  0.7307 -0.0383 -1.1525
   99SAPE  C212 9960   2.167   7.094   5.522 -0.2254 -0.1439 -0.0261
   99SAPE  H12R 9961   2.266   7.121   5.481  0.4559 -0.4666  1.3478
   99SAPE  C213 9962   2.054   7.075   5.423  0.8068 -0.4321  0.2387
   99SAPE  H13R 9963   1.979   7.157   5.423  1.5802  0.2869 -0.0607
   99SAPE  H13S 9964   1.991   6.996   5.470 -0.7840  1.5783  1.6735
   99SAPE  C214 9965   2.092   7.036   5.278 -0.1091  0.8902 -0.0125
   99SAPE  H14R 9966   2.092   7.121   5.208  0.0883  0.3915 -0.6276
   99SAPE  C215 9967   2.121   6.911   5.229  0.1808 -0.4291 -0.4151
   99SAPE  H15R 9968   2.156   6.915   5.125  2.7118  2.2114  0.3963
   99SAPE  C216 9969   2.119   6.783   5.303  0.3110 -0.2481 -0.0858
   99SAPE  H16R 9970   2.107   6.801   5.412 -1.6608  0.5052 -0.3859
   99SAPE  H16S 9971   2.213   6.724   5.297 -0.1601 -1.5220  3.0039
   99SAPE  C217 9972   2.005   6.691   5.239 -0.2954  0.3106  0.2939
   99SAPE  H17R 9973   2.042   6.675   5.136  3.6349  0.2325  1.5485
   99SAPE  H17S 9974   1.906   6.741   5.247 -0.7411  0.1012 -2.7809
   99SAPE  C218 9975   1.987   6.554   5.310  0.1899  0.1081  0.1358
   99SAPE  H18R 9976   2.085   6.502   5.315 -0.0847 -0.4519 -0.2169
   99SAPE  H18S 9977   1.917   6.494   5.248  1.0644 -0.5174 -0.2733
   99SAPE  C219 9978   1.946   6.557   5.452  0.2762  0.0932  0.1164
   99SAPE  H19R 9979   1.836   6.576   5.449  0.0302 -1.3618 -1.1257
   99SAPE  H19S 9980   1.997   6.638   5.509 -0.5054  1.0355 -0.4848
   99SAPE  C220 9981   1.968   6.430   5.526 -0.0081  0.2458  0.5597
   99SAPE  H20R 9982   1.915   6.436   5.623  1.9134 -0.9877  1.7657
   99SAPE  H20S 9983   2.074   6.406   5.548  1.0265  1.4551 -2.5429
   99SAPE  H20T 9984   1.926   6.340   5.476  0.0349 -0.4098  1.6845
   99SAPE   C33 9985   1.327   6.343   6.239 -0.1917 -0.5476 -0.4611
   99SAPE   H3X 9986   1.382   6.440   6.231  1.4049 -1.1987  1.6116
   99SAPE   H3Y 9987   1.221   6.367   6.261  1.4424  4.1805  4.3982
   99SAPE   C34 9988   1.327   6.250   6.112 -0.3306 -0.3356 -0.3435
   99SAPE   H4X 9989   1.260   6.164   6.133 -2.2878  0.6865 -1.9779
   99SAPE   H4Y 9990   1.429   6.207   6.098  0.8888  2.6098 -1.2729
   99SAPE   C35 9991   1.282   6.327   5.984  0.6163  0.4508 -0.0115
   99SAPE   H5X 9992   1.177   6.357   6.003  0.3610 -1.3053  1.6342
   99SAPE   H5Y 9993   1.287   6.253   5.901  2.0015  2.5992 -1.9380
   99SAPE   C36 9994   1.368   6.452   5.937  0.1587 -0.3088  0.1540
   99SAPE   H6X 9995   1.475   6.422   5.924  0.2929  0.3235 -0.2794
   99SAPE   H6Y 9996   1.347   6.533   6.009 -0.3183  0.4122 -0.7759
   99SAPE   C37 9997   1.325   6.489   5.793  0.1204 -0.3666 -0.1388
   99SAPE   H7X 9998   1.394   6.574   5.773 -0.4434  0.3889  0.9855
   99SAPE   H7Y 9999   1.229   6.544   5.788  0.7819  0.7542 -0.9705
   99SAPE   C3810000   1.322   6.385   5.681 -0.2294 -1.3288 -0.2978
   99SAPE   H8X10001   1.226   6.330   5.692 -0.7001 -0.5395 -0.3460
   99SAPE   H8Y10002   1.407   6.315   5.692  0.3132 -0.6711 -0.2552
   99SAPE   C3910003   1.329   6.471   5.546 -0.1455  0.0707  0.3289
   99SAPE   H9X10004   1.432   6.511   5.539  0.2662 -1.1901 -1.4659
   99SAPE   H9Y10005   1.257   6.555   5.545  1.3303  1.4139 -1.7044
   99SAPE  C31010006   1.277   6.397   5.422 -0.4165 -0.2872 -0.8491
   99SAPE  H10X10007   1.167   6.400   5.434 -0.8850 -0.1850 -4.1570
   99SAPE  H10Y10008   1.317   6.293   5.416 -0.6998 -0.3245 -2.9687
   99SAPE  C31110009   1.306   6.472   5.289  0.4980 -0.6883 -0.5287
   99SAPE  H11X10010   1.242   6.562   5.282 -0.5050 -1.3804 -0.5693
   99SAPE  H11Y10011   1.265   6.397   5.218 -0.2363 -0.5261 -0.2760
   99SAPE  C31210012   1.451   6.494   5.257  0.0816 -0.2651 -0.7299
   99SAPE  H12X10013   1.496   6.394   5.270 -2.1110 -1.0591  1.6649
   99SAPE  H12Y10014   1.495   6.571   5.325 -2.1547  0.5804 -0.1500
   99SAPE  C31310015   1.486   6.538   5.111 -0.0544 -0.4832  1.3016
   99SAPE  H13X10016   1.447   6.637   5.080  0.6068 -0.8939 -1.0351
   99SAPE  H13Y10017   1.425   6.467   5.052 -1.6456  1.7370  0.1431
   99SAPE  C31410018   1.642   6.520   5.084  1.2965  0.1481 -0.2106
   99SAPE  H14X10019   1.670   6.427   5.139 -1.8694 -0.4369  0.6002
   99SAPE  H14Y10020   1.690   6.609   5.130 -1.0399  0.5946  1.5158
   99SAPE  C31510021   1.677   6.507   4.938 -1.1122 -0.5089 -0.7745
   99SAPE  H15X10022   1.639   6.589   4.873  0.4053 -0.1442 -1.2372
   99SAPE  H15Y10023   1.638   6.408   4.907  0.7977 -1.6103  0.1850
   99SAPE  C31610024   1.833   6.513   4.919  0.0608  0.0362 -0.3116
   99SAPE  H16X10025   1.881   6.591   4.983 -1.4094  1.2013 -0.5728
   99SAPE  H16Y10026   1.858   6.526   4.811 -1.3649 -0.8212 -0.7640
   99SAPE  C31710027   1.916   6.382   4.954 -0.6268 -0.2953  0.3633
   99SAPE  H17X10028   1.858   6.296   4.912  1.0107 -1.9083  1.2512
   99SAPE  H17Y10029   1.911   6.362   5.063  0.5714 -1.2939  0.2606
   99SAPE  C31810030   2.066   6.377   4.912  0.3714 -0.3061  0.5267
   99SAPE  H18X10031   2.123   6.430   4.991  2.0620 -0.8659 -0.2787
   99SAPE  H18Y10032   2.094   6.429   4.818  0.1359  0.3973  0.8462
   99SAPE  H18Z10033   2.090   6.268   4.918  2.1042 -0.0548 -0.9774
  100SAPE     N10034   3.878   3.865   6.721 -0.4301  0.1756  0.2649
  100SAPE   HN110035   3.807   3.812   6.775  1.1828 -1.3554  0.9532
  100SAPE   HN210036   3.960   3.879   6.783 -2.8737 -0.6856  4.0215
  100SAPE   HN310037   3.835   3.957   6.697 -0.6411  0.0519  0.1620
  100SAPE   C1210038   3.926   3.777   6.602  0.3806 -0.1273 -0.2230
  100SAPE  H12A10039   3.843   3.755   6.532 -0.4314  2.2039 -0.0799
  100SAPE  H12B10040   3.965   3.683   6.647 -0.9859 -1.4636 -1.7044
  100SAPE   C1110041   4.025   3.852   6.515  0.2217  0.8186 -0.0414
  100SAPE  H11A10042   4.074   3.920   6.588  0.3283 -0.2556  0.9186
  100SAPE  H11B10043   3.986   3.898   6.422 -0.7937  0.0853  0.0056
  100SAPE     P10044   4.098   3.656   6.349  0.1480  0.4658 -0.3744
  100SAPE   O1310045   4.156   3.529   6.392 -0.1045  0.5135  0.2449
  100SAPE   O1410046   3.953   3.649   6.314 -0.2928 -0.9044  0.2417
  100SAPE   O1210047   4.120   3.755   6.469 -0.3246  0.1430  0.5183
  100SAPE   O1110048   4.181   3.713   6.232  0.1418  0.1248 -0.3733
  100SAPE    C110049   4.130   3.710   6.098  0.3716  0.4460  0.6172
  100SAPE    HA10050   4.041   3.775   6.080 -0.0264 -0.4989 -1.0152
  100SAPE    HB10051   4.203   3.750   6.025 -0.9682 -0.2026 -1.1535
  100SAPE    C210052   4.113   3.564   6.037  0.1623  0.4784  0.2641
  100SAPE    HS10053   4.026   3.519   6.090 -1.7295  3.8465  0.3564
  100SAPE   O2110054   4.235   3.498   6.061 -0.0555 -0.6156 -0.0306
  100SAPE   C2110055   4.237   3.364   6.093  1.1652 -1.2403 -0.0966
  100SAPE   O2210056   4.137   3.291   6.081 -0.4402 -0.3356 -0.4690
  100SAPE   C2210057   4.372   3.335   6.154 -0.2426  0.0527 -0.1087
  100SAPE   H2R10058   4.453   3.404   6.126  1.0669 -1.3723  0.0517
  100SAPE   H2S10059   4.364   3.350   6.264  2.3649  0.2078  0.1053
  100SAPE    C310060   4.084   3.568   5.885 -0.0075 -0.5986 -0.0929
  100SAPE    HX10061   4.076   3.463   5.849 -0.8389  0.1966 -2.4089
  100SAPE    HY10062   4.170   3.620   5.838  0.5269  1.1985  2.5982
  100SAPE   O3110063   3.956   3.632   5.858 -0.1523  0.5614  0.4916
  100SAPE   C3110064   3.932   3.636   5.726  0.5061  0.1244  0.5718
  100SAPE   O3210065   4.007   3.588   5.639  0.0008  0.1811  0.3974
  100SAPE   C3210066   3.798   3.703   5.689  0.1883  0.5789 -0.3643
  100SAPE   H2X10067   3.770   3.762   5.778  2.2290  0.6226  0.2979
  100SAPE   H2Y10068   3.738   3.609   5.679  2.3065 -1.0715  1.4079
  100SAPE   C2310069   4.415   3.189   6.124 -0.0730  0.2665  0.0837
  100SAPE   H3R10070   4.349   3.118   6.179  0.8398 -0.2452  0.5360
  100SAPE   H3S10071   4.513   3.163   6.169 -0.4308  0.2153  0.8538
  100SAPE   C2410072   4.408   3.166   5.972 -0.3737  0.0487 -0.1295
  100SAPE   H4R10073   4.301   3.180   5.947 -0.2283 -0.4429 -1.0378
  100SAPE   H4S10074   4.436   3.061   5.949  1.3183  0.7547 -1.5565
  100SAPE   C2510075   4.506   3.247   5.891  0.0186  0.1124 -0.2453
  100SAPE   H5R10076   4.610   3.242   5.927 -0.7151  0.0375  2.0221
  100SAPE   C2610077   4.477   3.298   5.767  0.4241  0.5038 -0.9181
  100SAPE   H6R10078   4.561   3.349   5.717  1.2494 -1.0036 -1.1201
  100SAPE   C2710079   4.344   3.304   5.706  0.4147  0.7156 -0.1078
  100SAPE   H7R10080   4.347   3.374   5.619 -1.5269  0.7839 -0.1813
  100SAPE   H7S10081   4.273   3.338   5.784 -0.0552 -1.8478  0.6817
  100SAPE   C2810082   4.296   3.175   5.655 -0.5224 -0.2215  0.0672
  100SAPE   H8R10083   4.209   3.144   5.716 -1.0424  2.1297  0.6393
  100SAPE   C2910084   4.333   3.104   5.547  0.5581  0.1728 -0.4000
  100SAPE   H9R10085   4.280   3.010   5.527 -1.2510  1.1192 -0.2629
  100SAPE  C21010086   4.436   3.131   5.446 -0.4232  0.2749  0.3337
  100SAPE  H10R10087   4.446   3.040   5.382  1.3442  0.9175 -0.3759
  100SAPE  H10S10088   4.531   3.121   5.502 -1.1453  2.1194  1.9677
  100SAPE  C21110089   4.443   3.256   5.359  0.6033  0.3808 -0.2453
  100SAPE  H11R10090   4.463   3.353   5.407 -2.4589  0.5966  0.8095
  100SAPE  C21210091   4.380   3.264   5.241 -0.3384  1.2786 -0.4091
  100SAPE  H12R10092   4.383   3.365   5.197  1.1484  1.5675  0.2922
  100SAPE  C21310093   4.308   3.152   5.162 -0.8271 -0.3651 -0.5333
  100SAPE  H13R10094   4.239   3.201   5.090 -0.3444  1.6135  0.2675
  100SAPE  H13S10095   4.240   3.093   5.226  0.8573 -0.8966  0.8381
  100SAPE  C21410096   4.410   3.069   5.096  0.1287  0.6272  0.9311
  100SAPE  H14R10097   4.504   3.055   5.151 -0.6360 -0.8859  1.9100
  100SAPE  C21510098   4.376   2.990   4.985 -0.0662 -0.5754 -0.7152
  100SAPE  H15R10099   4.457   2.932   4.939 -0.8966 -2.2654 -0.1200
  100SAPE  C21610100   4.242   2.987   4.919  0.5023 -0.0482 -0.0577
  100SAPE  H16R10101   4.165   3.050   4.969  0.6050  0.7232 -0.8591
  100SAPE  H16S10102   4.205   2.883   4.901  0.8574  0.2950 -3.3187
  100SAPE  C21710103   4.266   3.036   4.775  0.5804  0.0784 -0.0948
  100SAPE  H17R10104   4.345   2.976   4.725  2.1639  3.6314 -2.2626
  100SAPE  H17S10105   4.299   3.142   4.774 -0.5044  0.4246 -0.3201
  100SAPE  C21810106   4.134   3.027   4.689  0.6020 -0.1062 -0.0014
  100SAPE  H18R10107   4.062   3.104   4.724 -0.2806 -1.9853  2.6223
  100SAPE  H18S10108   4.083   2.932   4.715  1.9381 -0.9854 -0.4778
  100SAPE  C21910109   4.163   3.042   4.543 -0.1443 -0.4630 -0.4139
  100SAPE  H19R10110   4.216   2.952   4.505  1.5514  0.4605 -0.3339
  100SAPE  H19S10111   4.235   3.122   4.517 -0.5166 -0.0001 -0.0160
  100SAPE  C22010112   4.038   3.058   4.452  0.8109 -0.8828 -0.3587
  100SAPE  H20R10113   3.966   2.981   4.487  0.1297  0.0352  0.2831
  100SAPE  H20S10114   4.060   3.048   4.343 -1.3926  1.8538 -1.1607
  100SAPE  H20T10115   3.986   3.155   4.463  2.6053 -0.0976  1.9895
  100SAPE   C3310116   3.802   3.784   5.552  0.1631  0.2776 -0.2483
  100SAPE   H3X10117   3.868   3.731   5.480 -0.7456  1.1101 -1.7464
  100SAPE   H3Y10118   3.837   3.887   5.569  0.3545  0.5498 -2.0318
  100SAPE   C3410119   3.666   3.790   5.487  0.7117 -0.9145  0.2029
  100SAPE   H4X10120   3.591   3.815   5.565  0.4463 -1.7404  0.2135
  100SAPE   H4Y10121   3.649   3.687   5.449 -1.2516 -0.2768 -0.7718
  100SAPE   C3510122   3.655   3.890   5.373  0.3114 -0.4002 -0.6869
  100SAPE   H5X10123   3.643   3.996   5.405  1.6859 -0.7231  1.0410
  100SAPE   H5Y10124   3.567   3.868   5.309 -0.8807 -0.9092  1.0410
  100SAPE   C3610125   3.774   3.890   5.280  0.1521  0.0818 -0.2300
  100SAPE   H6X10126   3.822   3.789   5.276  0.4960  0.2771 -1.4423
  100SAPE   H6Y10127   3.855   3.952   5.326  1.3751 -0.8093 -1.1002
  100SAPE   C3710128   3.750   3.942   5.146 -0.1839  0.5638 -0.1280
  100SAPE   H7X10129   3.698   4.040   5.144 -2.6087 -0.6617 -0.1850
  100SAPE   H7Y10130   3.692   3.860   5.098  2.1537 -1.3205  0.0250
  100SAPE   C3810131   3.886   3.963   5.073  0.9169  0.3561  0.1947
  100SAPE   H8X10132   3.928   3.863   5.050  2.1543  0.9668 -0.2652
  100SAPE   H8Y10133   3.961   4.025   5.125  4.1590  2.1092 -5.6454
  100SAPE   C3910134   3.857   4.035   4.937  0.2890 -0.2074 -0.1276
  100SAPE   H9X10135   3.889   4.140   4.953  0.3047 -0.3176  0.6042
  100SAPE   H9Y10136   3.751   4.048   4.904  0.7067  1.4360 -0.9125
  100SAPE  C31010137   3.938   3.963   4.829  0.1298 -0.3460 -0.3335
  100SAPE  H10X10138   4.039   3.938   4.867  0.2084  0.6829  0.1666
  100SAPE  H10Y10139   3.946   4.050   4.760 -1.7334  1.3909  1.4913
  100SAPE  C31110140   3.880   3.841   4.760 -1.0450  0.2392 -0.2178
  100SAPE  H11X10141   3.856   3.774   4.845  0.4251 -1.1628 -0.8636
  100SAPE  H11Y10142   3.956   3.790   4.697 -0.6224 -1.1858  1.3785
  100SAPE  C31210143   3.762   3.864   4.662 -0.0479 -0.7146  0.1578
  100SAPE  H12X10144   3.680   3.917   4.716  0.6904  0.1302  0.4942
  100SAPE  H12Y10145   3.734   3.759   4.640  3.2921 -2.4075  2.9303
  100SAPE  C31310146   3.795   3.940   4.536 -0.0155 -0.1574  0.0640
  100SAPE  H13X10147   3.894   3.900   4.503 -1.1705 -2.3336 -0.9920
  100SAPE  H13Y10148   3.790   4.049   4.558 -1.3867 -0.4055  1.1176
  100SAPE  C31410149   3.704   3.921   4.423  0.8266  0.6140 -0.3031
  100SAPE  H14X10150   3.610   3.975   4.446  0.0882 -0.8723  0.3326
  100SAPE  H14Y10151   3.674   3.814   4.418  1.9444  0.1250  2.0714
  100SAPE  C31510152   3.770   3.952   4.291 -0.6745 -0.8010 -0.6979
  100SAPE  H15X10153   3.859   3.888   4.275 -1.4046 -1.9362 -0.3714
  100SAPE  H15Y10154   3.805   4.057   4.300 -0.1438 -0.8807 -1.7568
  100SAPE  C31610155   3.683   3.923   4.168 -0.2962 -0.4658  0.1378
  100SAPE  H16X10156   3.617   3.839   4.197 -0.9093 -0.3183 -0.7940
  100SAPE  H16Y10157   3.740   3.878   4.084 -1.6018 -1.7784 -0.0861
  100SAPE  C31710158   3.602   4.043   4.135  0.0265 -0.1031  0.7588
  100SAPE  H17X10159   3.664   4.130   4.104 -0.3315  0.0214  0.3901
  100SAPE  H17Y10160   3.551   4.078   4.227  1.3197 -0.0489  1.4715
  100SAPE  C31810161   3.493   4.012   4.029 -0.4764  0.0916 -0.2149
  100SAPE  H18X10162   3.529   4.004   3.924 -0.4903  0.6788 -0.2664
  100SAPE  H18Y10163   3.412   4.086   4.045  0.5669  1.1195  0.4882
  100SAPE  H18Z10164   3.442   3.917   4.055  1.5751 -0.3163  2.8366
  101SAPE     N10165   5.582   1.420   6.538  0.0664  0.3812 -0.5114
  101SAPE   HN110166   5.530   1.510   6.530 -0.6397  0.1010  0.6112
  101SAPE   HN210167   5.567   1.378   6.632  1.4031  1.0850  0.0548
  101SAPE   HN310168   5.685   1.432   6.528 -0.0280  1.7444 -0.1670
  101SAPE   C1210169   5.527   1.343   6.422 -0.4377 -0.1785  0.4265
  101SAPE  H12A10170   5.556   1.236   6.431 -3.7628 -1.0727  1.9949
  101SAPE  H12B10171   5.569   1.388   6.329 -1.2856 -2.5161 -1.1956
  101SAPE   C1110172   5.377   1.359   6.412  0.3389  0.3082  0.1158
  101SAPE  H11A10173   5.332   1.295   6.334 -0.2320 -1.2983  1.6929
  101SAPE  H11B10174   5.366   1.464   6.377  1.7230  1.0853  1.8401
  101SAPE     P10175   5.200   1.413   6.599 -0.3580 -0.4642  0.2043
  101SAPE   O1310176   5.117   1.325   6.683 -0.3173 -0.3517 -0.9272
  101SAPE   O1410177   5.242   1.536   6.666  0.3649  0.0722  0.3997
  101SAPE   O1210178   5.327   1.337   6.542  0.0341 -0.7027  0.6017
  101SAPE   O1110179   5.123   1.452   6.461  0.3376  1.1200 -1.0025
  101SAPE    C110180   4.997   1.388   6.434 -0.3366  0.8423 -0.0854
  101SAPE    HA10181   4.934   1.369   6.523 -0.5786 -0.4857 -0.5210
  101SAPE    HB10182   4.934   1.455   6.372  0.2699  1.1836 -0.3410
  101SAPE    C210183   5.005   1.256   6.358 -0.6295 -0.2171 -0.5397
  101SAPE    HS10184   5.079   1.199   6.419  0.4920  2.1090  0.3855
  101SAPE   O2110185   5.044   1.276   6.215  0.2605 -0.6361 -0.4164
  101SAPE   C2110186   5.109   1.171   6.159  0.7176 -0.0419 -0.2870
  101SAPE   O2210187   5.147   1.074   6.218  0.1599 -0.1123 -0.3189
  101SAPE   C2210188   5.141   1.205   6.012 -0.3131 -0.3311 -0.1882
  101SAPE   H2R10189   5.205   1.296   6.015 -1.6592  0.6515  2.5573
  101SAPE   H2S10190   5.199   1.122   5.968  0.6163  0.2888 -0.1668
  101SAPE    C310191   4.864   1.185   6.369 -0.0169 -0.3960  0.6776
  101SAPE    HX10192   4.784   1.243   6.319 -0.9493 -1.3648  1.0112
  101SAPE    HY10193   4.842   1.176   6.478 -0.5021  3.9253  1.0987
  101SAPE   O3110194   4.877   1.060   6.298  0.3909 -0.2332  0.2430
  101SAPE   C3110195   4.789   0.970   6.329  0.2609 -0.3282 -0.1559
  101SAPE   O3210196   4.706   0.967   6.418 -0.5341  0.0817 -0.2084
  101SAPE   C3210197   4.800   0.858   6.232  0.1537 -0.0255  0.2810
  101SAPE   H2X10198   4.715   0.855   6.161  0.3995 -2.5107 -0.0037
  101SAPE   H2Y10199   4.811   0.757   6.276 -1.8924  0.5257  2.2075
  101SAPE   C2310200   5.022   1.242   5.924 -0.1603 -0.1972 -0.3852
  101SAPE   H3R10201   4.994   1.350   5.932  0.0813 -0.1688  0.1245
  101SAPE   H3S10202   4.941   1.178   5.965 -0.2636 -0.3691 -0.8585
  101SAPE   C2410203   5.026   1.207   5.775 -0.5954  0.1655 -0.1394
  101SAPE   H4R10204   4.924   1.233   5.741 -1.7438 -0.9513  2.2247
  101SAPE   H4S10205   5.019   1.096   5.770  1.1939 -0.0720  1.3000
  101SAPE   C2510206   5.132   1.269   5.685 -0.1514 -0.2522  1.0637
  101SAPE   H5R10207   5.211   1.312   5.748 -0.5232 -1.2658  2.2602
  101SAPE   C2610208   5.121   1.292   5.553 -0.7247 -0.2783  1.1426
  101SAPE   H6R10209   5.211   1.329   5.502 -0.1624 -2.9642  0.0347
  101SAPE   C2710210   5.005   1.246   5.467  0.2981 -0.0360  0.4274
  101SAPE   H7R10211   4.914   1.298   5.505 -0.6481  0.2170 -2.0013
  101SAPE   H7S10212   5.013   1.137   5.486  4.2205  0.0246 -0.1731
  101SAPE   C2810213   5.028   1.279   5.321  0.7908  0.1253 -0.2164
  101SAPE   H8R10214   5.035   1.387   5.301  1.4958  0.0572 -0.3864
  101SAPE   C2910215   5.055   1.199   5.220 -0.3627  0.2206 -0.1628
  101SAPE   H9R10216   5.088   1.238   5.123  2.3064  1.2577  1.0503
  101SAPE  C21010217   5.072   1.054   5.232 -0.0528  0.3674 -0.6627
  101SAPE  H10R10218   4.994   1.015   5.302 -0.3343  1.2894 -0.4491
  101SAPE  H10S10219   5.174   1.029   5.267 -0.6963 -0.7007  0.5608
  101SAPE  C21110220   5.023   0.984   5.107 -0.1045  0.1404  0.0366
  101SAPE  H11R10221   4.914   0.972   5.102 -0.0355 -0.0993 -1.1233
  101SAPE  C21210222   5.102   0.913   5.024 -0.3482 -0.3942 -0.1125
  101SAPE  H12R10223   5.060   0.866   4.934 -1.5322 -0.7038  0.5732
  101SAPE  C21310224   5.251   0.895   5.025  0.2885 -0.3516 -0.4429
  101SAPE  H13R10225   5.297   0.987   5.068 -1.2591  0.2322  0.0416
  101SAPE  H13S10226   5.294   0.884   4.923  0.0968  0.5404 -0.6355
  101SAPE  C21410227   5.281   0.780   5.112  1.3768  0.2727  0.2519
  101SAPE  H14R10228   5.265   0.804   5.218 -0.9595 -1.5767  0.4171
  101SAPE  C21510229   5.343   0.667   5.075 -0.3038 -0.5232 -0.6764
  101SAPE  H15R10230   5.353   0.585   5.147 -2.2848  0.4228  0.7793
  101SAPE  C21610231   5.369   0.624   4.934  0.2243 -0.3035  0.6208
  101SAPE  H16R10232   5.462   0.563   4.934 -0.0570 -0.9024 -2.7714
  101SAPE  H16S10233   5.388   0.701   4.856  0.4031 -0.5130  0.4559
  101SAPE  C21710234   5.252   0.526   4.897 -0.1740 -0.0165 -0.4635
  101SAPE  H17R10235   5.151   0.570   4.906  0.2216  0.7479  0.3724
  101SAPE  H17S10236   5.254   0.437   4.964 -3.5054 -1.6326 -2.2591
  101SAPE  C21810237   5.267   0.478   4.749  0.3398 -0.1217  0.1202
  101SAPE  H18R10238   5.370   0.439   4.734  0.6115  0.0053  1.4973
  101SAPE  H18S10239   5.246   0.560   4.677  0.5167 -0.7093 -0.6150
  101SAPE  C21910240   5.176   0.355   4.729  0.2137  0.2655  0.2497
  101SAPE  H19R10241   5.077   0.394   4.761 -0.2307  1.6717 -2.4630
  101SAPE  H19S10242   5.215   0.276   4.796  0.4816  0.4264  0.2849
  101SAPE  C22010243   5.169   0.315   4.580 -0.2212 -1.0971 -0.2246
  101SAPE  H20R10244   5.119   0.405   4.537  1.2545  0.7389  1.7246
  101SAPE  H20S10245   5.108   0.223   4.569  1.1589 -2.0390 -0.2247
  101SAPE  H20T10246   5.268   0.299   4.530  0.1641  1.4745 -0.4179
  101SAPE   C3310247   4.929   0.860   6.135  0.2175 -0.1308 -0.1279
  101SAPE   H3X10248   5.030   0.860   6.183  0.2902  0.4597 -0.2689
  101SAPE   H3Y10249   4.939   0.955   6.078 -0.0314  0.3061  0.5502
  101SAPE   C3410250   4.917   0.752   6.026 -0.1009  0.0768 -0.1000
  101SAPE   H4X10251   4.869   0.791   5.934  0.2068 -0.4406 -0.4839
  101SAPE   H4Y10252   4.859   0.667   6.067  0.2887  0.3771  1.1007
  101SAPE   C3510253   5.059   0.708   5.979 -0.5057 -0.3068 -0.0205
  101SAPE   H5X10254   5.100   0.652   6.066 -2.3557  2.3126  2.7178
  101SAPE   H5Y10255   5.114   0.802   5.958  0.1955 -0.4008  1.2685
  101SAPE   C3610256   5.048   0.619   5.851  0.1764  0.6322 -0.0900
  101SAPE   H6X10257   4.972   0.543   5.880  0.3730  0.1299 -0.8441
  101SAPE   H6Y10258   5.145   0.567   5.836  0.6589  1.1346  1.1213
  101SAPE   C3710259   5.019   0.701   5.725  0.1034  0.4153 -0.9840
  101SAPE   H7X10260   5.101   0.776   5.712 -0.4314  0.7568 -2.5914
  101SAPE   H7Y10261   4.923   0.752   5.748 -1.4431 -3.5472  2.7447
  101SAPE   C3810262   5.020   0.618   5.602 -0.2425 -0.1548 -0.1575
  101SAPE   H8X10263   4.942   0.540   5.609 -0.5852  0.1561 -0.4352
  101SAPE   H8Y10264   5.121   0.572   5.601 -0.8042 -1.6696  2.6910
  101SAPE   C3910265   5.005   0.691   5.468 -0.3046 -0.1914 -0.2998
  101SAPE   H9X10266   5.104   0.736   5.443  0.1196 -0.7322  0.3543
  101SAPE   H9Y10267   4.922   0.765   5.477 -0.2389 -0.3383  3.1901
  101SAPE  C31010268   4.967   0.588   5.358 -0.1440 -0.6154  0.5681
  101SAPE  H10X10269   4.880   0.530   5.393 -1.0978  1.7684  2.4685
  101SAPE  H10Y10270   5.043   0.509   5.338  0.7136 -0.0838  1.5792
  101SAPE  C31110271   4.931   0.654   5.226  0.3714 -0.1374  0.5519
  101SAPE  H11X10272   5.018   0.719   5.199 -0.5798  0.7123 -0.5867
  101SAPE  H11Y10273   4.854   0.732   5.244 -0.1662 -0.5707  0.1660
  101SAPE  C31210274   4.907   0.568   5.108  0.1686 -0.7948 -0.1862
  101SAPE  H12X10275   4.842   0.483   5.136  0.8366 -1.1147  0.4194
  101SAPE  H12Y10276   5.005   0.520   5.087 -0.1695 -0.5859 -2.5696
  101SAPE  C31310277   4.842   0.644   4.990 -0.2342 -0.0938 -0.3389
  101SAPE  H13X10278   4.925   0.715   4.969  2.9003 -2.9005  1.6372
  101SAPE  H13Y10279   4.756   0.708   5.020  0.2788  0.1770  0.6036
  101SAPE  C31410280   4.805   0.550   4.877  0.4061 -0.1884  0.0088
  101SAPE  H14X10281   4.725   0.480   4.909  1.1263 -1.0740 -0.0968
  101SAPE  H14Y10282   4.895   0.494   4.844 -0.2594 -0.3998 -1.5259
  101SAPE  C31510283   4.758   0.631   4.753 -0.0574 -0.6808 -0.0043
  101SAPE  H15X10284   4.848   0.688   4.721 -1.6480  2.9370  1.4083
  101SAPE  H15Y10285   4.670   0.694   4.778  0.1581 -0.5450  0.4155
  101SAPE  C31610286   4.702   0.547   4.637  0.3374 -0.5454  0.0623
  101SAPE  H16X10287   4.681   0.618   4.554 -2.1368 -1.1094  0.1477
  101SAPE  H16Y10288   4.612   0.488   4.661 -1.2648  0.6212 -2.6784
  101SAPE  C31710289   4.796   0.435   4.596  0.1148 -0.3546 -0.6952
  101SAPE  H17X10290   4.812   0.361   4.677 -0.7313 -1.3842 -1.4459
  101SAPE  H17Y10291   4.889   0.490   4.571 -0.6545 -0.1169 -3.3330
  101SAPE  C31810292   4.744   0.355   4.481 -0.6213  0.5695 -0.1099
  101SAPE  H18X10293   4.660   0.292   4.518 -0.2260 -0.0814 -0.3109
  101SAPE  H18Y10294   4.823   0.292   4.436  0.9610  1.2809  1.5531
  101SAPE  H18Z10295   4.708   0.427   4.404  2.0247  1.8309 -0.2698
  102SAPE     N10296   4.256   5.866   6.787  0.4063  0.1902 -0.3964
  102SAPE   HN110297   4.299   5.888   6.879 -0.5705  0.7188 -0.0455
  102SAPE   HN210298   4.168   5.814   6.804 -0.5092  2.0519  0.8603
  102SAPE   HN310299   4.322   5.808   6.732  0.7031  0.5551 -0.4336
  102SAPE   C1210300   4.236   5.996   6.721  0.0856 -0.1435 -0.3031
  102SAPE  H12A10301   4.127   6.016   6.718  0.2001  1.2107  2.1595
  102SAPE  H12B10302   4.275   5.992   6.617  0.0727 -0.5516 -0.2963
  102SAPE   C1110303   4.314   6.110   6.799  0.1708  0.2471 -0.3036
  102SAPE  H11A10304   4.267   6.121   6.900 -1.8392  0.7280 -1.2342
  102SAPE  H11B10305   4.288   6.201   6.741  0.5332  0.4506 -0.1501
  102SAPE     P10306   4.548   6.168   6.891 -0.4728 -0.1776  0.2431
  102SAPE   O1310307   4.518   6.177   7.035  0.4842  0.1166  0.8135
  102SAPE   O1410308   4.684   6.131   6.850  0.5235 -0.2911 -0.0308
  102SAPE   O1210309   4.447   6.067   6.817  0.1731  0.1777 -0.3357
  102SAPE   O1110310   4.505   6.303   6.822 -0.4365  0.2102 -0.4230
  102SAPE    C110311   4.558   6.354   6.706 -0.2619  0.0606 -0.0838
  102SAPE    HA10312   4.648   6.415   6.730  0.0424  0.1429 -1.3646
  102SAPE    HB10313   4.581   6.268   6.639 -1.6264 -3.1473  3.1745
  102SAPE    C210314   4.453   6.447   6.632  0.1143  0.1597 -0.3079
  102SAPE    HS10315   4.421   6.510   6.718  1.6181 -0.4031  0.7127
  102SAPE   O2110316   4.336   6.369   6.593 -0.3368 -0.2172  0.3263
  102SAPE   C2110317   4.247   6.442   6.536  0.4202  0.2155 -0.3130
  102SAPE   O2210318   4.228   6.562   6.543 -0.4326 -0.2849 -0.6325
  102SAPE   C2210319   4.143   6.364   6.450  0.7432  0.1488  0.1716
  102SAPE   H2R10320   4.100   6.427   6.369 -0.2562 -1.8262 -0.8823
  102SAPE   H2S10321   4.199   6.277   6.410  0.6801 -0.1997  0.8312
  102SAPE    C310322   4.513   6.531   6.521  0.2895 -0.2048 -0.3728
  102SAPE    HX10323   4.606   6.577   6.561  0.9975 -3.0360  1.4834
  102SAPE    HY10324   4.447   6.619   6.502  0.2094 -0.0848  0.4194
  102SAPE   O3110325   4.533   6.463   6.399  0.1287  0.3297  0.0865
  102SAPE   C3110326   4.654   6.447   6.347  0.6136  0.6101  0.2044
  102SAPE   O3210327   4.759   6.449   6.408 -0.5443  0.3084  0.3100
  102SAPE   C3210328   4.646   6.458   6.198  0.1820  0.2149  0.0060
  102SAPE   H2X10329   4.542   6.487   6.174  0.0901 -0.9022 -1.0514
  102SAPE   H2Y10330   4.664   6.369   6.134 -2.0031  1.2264 -2.1783
  102SAPE   C2310331   4.030   6.291   6.531  0.0157 -0.7136 -1.1354
  102SAPE   H3R10332   3.974   6.377   6.573  1.2369 -0.5373  0.2377
  102SAPE   H3S10333   4.058   6.223   6.615  1.0217  0.4836 -0.4755
  102SAPE   C2410334   3.930   6.210   6.433 -0.0386 -0.0740  0.4118
  102SAPE   H4R10335   3.881   6.286   6.368 -1.7005 -0.2102  1.4376
  102SAPE   H4S10336   3.848   6.163   6.492  0.5154 -0.9564  0.4966
  102SAPE   C2510337   3.982   6.097   6.354  0.4373 -0.2927 -0.5634
  102SAPE   H5R10338   4.045   6.026   6.409  1.0101  0.9308  0.3977
  102SAPE   C2610339   3.978   6.085   6.220  0.3199 -0.6458  0.9817
  102SAPE   H6R10340   4.010   5.990   6.174  0.7238  0.2480 -0.6502
  102SAPE   C2710341   3.909   6.187   6.121 -0.5999 -0.3281  0.4383
  102SAPE   H7R10342   3.938   6.290   6.151  0.3464  0.2785 -2.2887
  102SAPE   H7S10343   3.800   6.168   6.130 -0.5939 -0.8485 -0.5491
  102SAPE   C2810344   3.967   6.160   5.981  0.1614  0.4355  0.2026
  102SAPE   H8R10345   4.076   6.148   5.982  0.3629  2.0431 -0.6428
  102SAPE   C2910346   3.902   6.151   5.867 -0.0341 -0.0156  0.4390
  102SAPE   H9R10347   3.960   6.138   5.775 -1.2140  2.3583 -0.7371
  102SAPE  C21010348   3.753   6.160   5.849 -0.1863  0.4382  0.1002
  102SAPE  H10R10349   3.698   6.106   5.928 -2.1810  0.9732 -0.8596
  102SAPE  H10S10350   3.728   6.113   5.752  1.2625  0.3218 -0.2397
  102SAPE  C21110351   3.698   6.302   5.854 -0.2024 -0.2684 -0.1431
  102SAPE  H11R10352   3.739   6.372   5.928 -1.0717  0.9393 -0.7632
  102SAPE  C21210353   3.603   6.350   5.771 -0.1099 -0.2962  0.2070
  102SAPE  H12R10354   3.582   6.458   5.768 -2.1934 -0.6766 -0.2940
  102SAPE  C21310355   3.522   6.269   5.676  0.4013 -0.5309  0.3457
  102SAPE  H13R10356   3.496   6.169   5.717 -0.9111 -0.5529 -0.5109
  102SAPE  H13S10357   3.574   6.257   5.578 -1.1747  0.0674 -0.5937
  102SAPE  C21410358   3.395   6.357   5.645  0.4857 -0.1681 -0.6938
  102SAPE  H14R10359   3.346   6.394   5.736  0.5681  1.1407 -1.1742
  102SAPE  C21510360   3.339   6.371   5.527  0.6513 -0.1726  0.9260
  102SAPE  H15R10361   3.259   6.443   5.504  0.8719  0.4864  2.1662
  102SAPE  C21610362   3.401   6.321   5.398 -0.5976 -0.0418 -0.0399
  102SAPE  H16R10363   3.427   6.213   5.403  1.4681  0.3472 -1.0250
  102SAPE  H16S10364   3.497   6.377   5.387  1.7255 -3.3600  1.4969
  102SAPE  C21710365   3.302   6.346   5.282  0.1505 -0.4853 -0.3299
  102SAPE  H17R10366   3.263   6.447   5.306 -0.0307 -0.4172 -0.8994
  102SAPE  H17S10367   3.211   6.283   5.275 -1.2824  1.5071 -0.6189
  102SAPE  C21810368   3.378   6.355   5.149  0.2457  0.4987 -0.4206
  102SAPE  H18R10369   3.469   6.419   5.154  0.9517 -0.4505 -0.7239
  102SAPE  H18S10370   3.308   6.393   5.072  0.7380  0.1004 -1.0825
  102SAPE  C21910371   3.434   6.223   5.089 -0.5283 -0.0185  0.1262
  102SAPE  H19R10372   3.489   6.181   5.175  0.2596  1.9807  0.6523
  102SAPE  H19S10373   3.510   6.247   5.011 -2.7584 -0.2651 -2.2617
  102SAPE  C22010374   3.323   6.132   5.026 -0.3619  0.0388  0.6494
  102SAPE  H20R10375   3.360   6.036   4.984  1.6912  0.6197  0.9873
  102SAPE  H20S10376   3.273   6.185   4.942 -1.0052  0.0267  1.0173
  102SAPE  H20T10377   3.255   6.105   5.109 -0.8216  0.0636  0.2822
  102SAPE   C3310378   4.756   6.564   6.151 -0.0781 -0.0526  0.1613
  102SAPE   H3X10379   4.858   6.540   6.188  0.9037  0.7338 -1.8745
  102SAPE   H3Y10380   4.731   6.665   6.191  1.7542  0.0358  1.1917
  102SAPE   C3410381   4.750   6.568   6.002 -0.0095 -0.2135  0.8291
  102SAPE   H4X10382   4.778   6.466   5.970 -0.1978  0.3990 -1.4659
  102SAPE   H4Y10383   4.828   6.642   5.974  0.0040 -0.2533  0.7602
  102SAPE   C3510384   4.620   6.596   5.930  0.0777 -0.7274  0.6964
  102SAPE   H5X10385   4.587   6.700   5.954  2.7060  1.2896 -3.3159
  102SAPE   H5Y10386   4.534   6.529   5.952 -0.6608  1.0091  3.7528
  102SAPE   C3610387   4.636   6.589   5.781 -1.1116 -0.4383 -0.5090
  102SAPE   H6X10388   4.678   6.488   5.764 -2.5859 -0.7770 -2.5449
  102SAPE   H6Y10389   4.714   6.658   5.741  0.0532 -0.4098  1.6754
  102SAPE   C3710390   4.507   6.608   5.694 -0.2120 -0.3639 -0.9820
  102SAPE   H7X10391   4.463   6.709   5.707  0.3481 -0.3338  0.9327
  102SAPE   H7Y10392   4.439   6.528   5.730 -0.2351  0.1450  0.1525
  102SAPE   C3810393   4.529   6.595   5.545 -0.7011  0.7852 -0.0009
  102SAPE   H8X10394   4.627   6.635   5.515 -0.8904  1.3660  0.1474
  102SAPE   H8Y10395   4.453   6.657   5.492 -1.1282  0.9848  0.8294
  102SAPE   C3910396   4.500   6.457   5.482  0.0520 -0.2635 -0.2040
  102SAPE   H9X10397   4.405   6.412   5.518  0.3419 -0.6414  0.0826
  102SAPE   H9Y10398   4.581   6.395   5.524  1.7081  0.6735 -1.8676
  102SAPE  C31010399   4.499   6.454   5.327  0.6561 -0.2217  0.2574
  102SAPE  H10X10400   4.536   6.357   5.286 -0.7527  0.3801 -2.6763
  102SAPE  H10Y10401   4.578   6.524   5.292  1.8886 -1.6749 -0.0182
  102SAPE  C31110402   4.362   6.484   5.261  0.2043  0.6224 -0.5233
  102SAPE  H11X10403   4.321   6.578   5.305 -0.2689 -0.5413  1.6641
  102SAPE  H11Y10404   4.285   6.408   5.286  1.3986 -1.0571 -1.7951
  102SAPE  C31210405   4.370   6.486   5.111  0.5549 -0.4557 -0.0342
  102SAPE  H12X10406   4.404   6.393   5.061 -0.6160  0.2608 -2.3354
  102SAPE  H12Y10407   4.434   6.568   5.070 -2.6542  0.1063 -4.6716
  102SAPE  C31310408   4.235   6.503   5.037  0.3992  0.2283  0.8917
  102SAPE  H13X10409   4.175   6.592   5.068 -1.4679 -1.2770  1.8155
  102SAPE  H13Y10410   4.166   6.420   5.064 -1.5178  2.0616  1.9756
  102SAPE  C31410411   4.252   6.523   4.884 -0.7010  0.2351 -0.4646
  102SAPE  H14X10412   4.159   6.485   4.835 -1.6789  3.1450 -1.0328
  102SAPE  H14Y10413   4.332   6.449   4.862 -2.0314 -2.3982  2.6320
  102SAPE  C31510414   4.274   6.667   4.831 -0.1781 -0.4143 -0.5903
  102SAPE  H15X10415   4.350   6.717   4.895 -0.3032 -0.3582 -0.4855
  102SAPE  H15Y10416   4.180   6.722   4.846 -0.0945 -0.6235  0.8602
  102SAPE  C31610417   4.310   6.668   4.682  0.1186 -1.0422  0.0410
  102SAPE  H16X10418   4.228   6.634   4.615 -0.8198  0.2198  0.5023
  102SAPE  H16Y10419   4.399   6.604   4.663  2.0681  1.1048  1.4050
  102SAPE  C31710420   4.370   6.805   4.648 -0.1409 -0.3503 -0.4036
  102SAPE  H17X10421   4.476   6.815   4.679  0.0879  1.0614 -1.5385
  102SAPE  H17Y10422   4.311   6.890   4.691  0.6619 -0.2322  0.5079
  102SAPE  C31810423   4.372   6.838   4.497  0.1172 -0.1800 -0.5602
  102SAPE  H18X10424   4.429   6.762   4.441 -0.8638 -2.7542  1.6826
  102SAPE  H18Y10425   4.417   6.938   4.481 -0.6379  0.6395  1.9253
  102SAPE  H18Z10426   4.269   6.830   4.456  0.6649 -0.5817 -1.8773
  103SAPE     N10427   5.143   5.881   2.164  0.0474 -0.4667  0.1159
  103SAPE   HN110428   5.184   5.853   2.072  0.5438 -0.0179  0.1914
  103SAPE   HN210429   5.178   5.814   2.235 -1.5612 -0.5298  0.8703
  103SAPE   HN310430   5.040   5.877   2.156  0.2181 -2.5955 -2.5818
  103SAPE   C1210431   5.215   6.008   2.207  0.1141  0.0899  0.3549
  103SAPE  H12A10432   5.177   6.033   2.308 -0.0876  1.3985 -0.0261
  103SAPE  H12B10433   5.172   6.083   2.137 -0.7613  0.1565  0.9465
  103SAPE   C1110434   5.363   5.995   2.199  0.4069 -0.5291 -0.3788
  103SAPE  H11A10435   5.389   6.088   2.253 -0.7909 -0.8553  0.7974
  103SAPE  H11B10436   5.402   5.991   2.094 -1.1895 -1.0933 -0.9795
  103SAPE     P10437   5.534   5.870   2.360 -0.0867 -0.2220 -0.0903
  103SAPE   O1310438   5.591   5.740   2.330  0.3468 -0.3264 -0.1537
  103SAPE   O1410439   5.624   5.982   2.318  0.8304 -0.1955  0.0181
  103SAPE   O1210440   5.403   5.874   2.270 -1.0102  0.6482 -0.4871
  103SAPE   O1110441   5.492   5.882   2.510 -0.2014  0.5442 -0.3535
  103SAPE    C110442   5.361   5.891   2.572 -0.3267  0.4436  0.2737
  103SAPE    HA10443   5.307   5.984   2.542 -0.2269 -0.1410 -1.8875
  103SAPE    HB10444   5.291   5.814   2.532  0.5986  0.3909 -1.3424
  103SAPE    C210445   5.380   5.876   2.724 -0.5598  0.4407 -0.7352
  103SAPE    HS10446   5.287   5.917   2.768 -1.1218 -1.0259 -0.5164
  103SAPE   O2110447   5.495   5.946   2.776 -0.8460  0.6681  0.3469
  103SAPE   C2110448   5.498   6.078   2.758  0.4178 -0.1215  0.2096
  103SAPE   O2210449   5.405   6.146   2.708 -0.7096  0.8258  0.2203
  103SAPE   C2210450   5.626   6.142   2.814  0.0295 -0.3944  0.2481
  103SAPE   H2R10451   5.674   6.057   2.867  1.7318 -0.7393 -1.7220
  103SAPE   H2S10452   5.681   6.166   2.720 -0.3576 -2.3684 -0.5345
  103SAPE    C310453   5.401   5.727   2.771 -0.0045  0.4141  0.8658
  103SAPE    HX10454   5.499   5.693   2.730  0.1708  0.7757  0.9803
  103SAPE    HY10455   5.339   5.657   2.710  0.7012 -1.1963  1.9413
  103SAPE   O3110456   5.386   5.705   2.914  0.0406  0.1731 -0.1871
  103SAPE   C3110457   5.497   5.705   2.985  0.1600  0.7709  0.7575
  103SAPE   O3210458   5.611   5.722   2.945 -0.1112  0.3476  0.5912
  103SAPE   C3210459   5.460   5.680   3.134 -1.2072 -0.3011 -0.8427
  103SAPE   H2X10460   5.460   5.572   3.161 -2.3675 -0.4245 -1.2531
  103SAPE   H2Y10461   5.361   5.725   3.157 -1.0332 -1.0215  1.5687
  103SAPE   C2310462   5.602   6.265   2.907 -0.0541  0.1226 -0.7837
  103SAPE   H3R10463   5.523   6.332   2.866  1.5605  2.4065 -0.3681
  103SAPE   H3S10464   5.691   6.331   2.916 -0.8869  1.0878  0.7929
  103SAPE   C2410465   5.552   6.217   3.045  0.3898  0.3197 -0.0041
  103SAPE   H4R10466   5.463   6.153   3.028  1.5081 -0.9908 -1.1948
  103SAPE   H4S10467   5.513   6.307   3.098 -1.0241 -0.1894 -0.1432
  103SAPE   C2510468   5.658   6.148   3.119 -0.2404 -0.2481  0.3441
  103SAPE   H5R10469   5.710   6.066   3.067 -0.5117  1.0838 -2.1718
  103SAPE   C2610470   5.701   6.201   3.239 -0.8824 -0.0458  0.8228
  103SAPE   H6R10471   5.781   6.145   3.288  0.6526  0.4015 -1.0203
  103SAPE   C2710472   5.674   6.339   3.305  0.4756  0.3152 -0.0492
  103SAPE   H7R10473   5.649   6.420   3.234 -1.5345  0.0707  0.3228
  103SAPE   H7S10474   5.773   6.376   3.340  1.4451  0.8329 -3.0850
  103SAPE   C2810475   5.571   6.318   3.416  0.5436  0.0189  0.8304
  103SAPE   H8R10476   5.479   6.279   3.369  0.8992  1.8359 -1.5834
  103SAPE   C2910477   5.577   6.338   3.549 -1.1836  0.0890 -0.1354
  103SAPE   H9R10478   5.491   6.319   3.615 -0.3126 -1.9820  0.4757
  103SAPE  C21010479   5.697   6.395   3.620  0.7452  0.7374  0.4325
  103SAPE  H10R10480   5.783   6.392   3.551  0.2588 -0.1276 -0.1544
  103SAPE  H10S10481   5.725   6.327   3.703  0.7305 -2.6430 -2.1438
  103SAPE  C21110482   5.670   6.537   3.661 -0.0163 -0.2460  0.1219
  103SAPE  H11R10483   5.635   6.605   3.583 -0.2760 -0.0470  0.4117
  103SAPE  C21210484   5.705   6.584   3.781  0.7873 -0.2131 -0.5744
  103SAPE  H12R10485   5.668   6.685   3.805  0.5543 -0.1486 -1.1836
  103SAPE  C21310486   5.755   6.511   3.901  0.2504  0.5347 -0.5255
  103SAPE  H13R10487   5.714   6.407   3.896  0.8425  0.2529  0.2742
  103SAPE  H13S10488   5.720   6.541   4.002 -0.5508  1.2686 -1.0142
  103SAPE  C21410489   5.904   6.507   3.902 -0.3534  0.1397  0.0665
  103SAPE  H14R10490   5.947   6.505   3.801 -1.4034 -0.5683 -0.3870
  103SAPE  C21510491   5.981   6.510   4.010  0.1138  0.2814  0.7109
  103SAPE  H15R10492   6.091   6.509   4.003  0.0004  0.4299 -1.5648
  103SAPE  C21610493   5.925   6.503   4.151 -0.4635  0.6972 -0.1783
  103SAPE  H16R10494   5.830   6.447   4.156 -0.5544  0.8118 -0.5763
  103SAPE  H16S10495   5.899   6.604   4.189 -1.4052  0.1035  0.8211
  103SAPE  C21710496   6.014   6.433   4.254 -0.4577 -0.5897 -1.0349
  103SAPE  H17R10497   6.102   6.375   4.221 -1.3087 -1.4241 -1.8591
  103SAPE  H17S10498   5.949   6.365   4.313 -0.5406 -1.2107 -1.8242
  103SAPE  C21810499   6.081   6.541   4.351 -0.5345 -0.0193 -0.4338
  103SAPE  H18R10500   6.017   6.628   4.376  1.6528  1.3217  0.7800
  103SAPE  H18S10501   6.171   6.581   4.300  0.6323  0.8655  2.1727
  103SAPE  C21910502   6.128   6.496   4.492  0.5212  0.6093 -1.0171
  103SAPE  H19R10503   6.181   6.578   4.545  2.0750 -0.7852 -0.2928
  103SAPE  H19S10504   6.200   6.416   4.464 -0.0964 -0.6282  0.7691
  103SAPE  C22010505   6.018   6.445   4.590  0.1679  0.0222  0.6899
  103SAPE  H20R10506   5.976   6.347   4.560  1.2857 -0.4486  0.5936
  103SAPE  H20S10507   5.940   6.520   4.616 -0.8464 -1.1807  1.2195
  103SAPE  H20T10508   6.055   6.416   4.691  1.2263 -0.0273  0.2977
  103SAPE   C3310509   5.565   5.762   3.226 -0.8812  0.5269  0.6701
  103SAPE   H3X10510   5.573   5.869   3.198  0.2853  0.4745  0.7673
  103SAPE   H3Y10511   5.667   5.728   3.198 -1.0051  1.3906 -0.9165
  103SAPE   C3410512   5.533   5.743   3.371 -0.0349  0.1317 -0.2637
  103SAPE   H4X10513   5.562   5.641   3.403  0.7004  0.5537  0.4779
  103SAPE   H4Y10514   5.427   5.771   3.387  0.6271  1.6166  2.1174
  103SAPE   C3510515   5.604   5.846   3.463  0.3734 -0.6205  0.3110
  103SAPE   H5X10516   5.565   5.948   3.443 -2.5441 -1.9124 -1.2412
  103SAPE   H5Y10517   5.711   5.826   3.441  0.0928 -2.3207  0.3985
  103SAPE   C3610518   5.587   5.813   3.612 -0.5641  0.7082 -0.3108
  103SAPE   H6X10519   5.642   5.721   3.642 -1.2470  0.8686  1.6077
  103SAPE   H6Y10520   5.480   5.801   3.642 -0.4457  0.6563  0.0996
  103SAPE   C3710521   5.668   5.915   3.696  0.1851  0.0284 -0.5905
  103SAPE   H7X10522   5.628   6.018   3.687 -2.2895 -0.8527 -0.3945
  103SAPE   H7Y10523   5.774   5.924   3.663  0.8427  1.7664  1.7339
  103SAPE   C3810524   5.666   5.864   3.845  0.1308 -0.4535  0.6332
  103SAPE   H8X10525   5.709   5.954   3.894 -0.4461  0.1606  0.0372
  103SAPE   H8Y10526   5.722   5.769   3.856 -0.6658 -0.8695  1.1405
  103SAPE   C3910527   5.527   5.839   3.898  0.1273 -0.2370 -0.8698
  103SAPE   H9X10528   5.493   5.745   3.848 -1.2726 -0.3240  0.1829
  103SAPE   H9Y10529   5.451   5.915   3.871 -0.1059 -0.6561 -1.4096
  103SAPE  C31010530   5.516   5.798   4.041 -0.9244  0.0330  0.2445
  103SAPE  H10X10531   5.602   5.735   4.070 -2.0983 -2.3536 -1.1675
  103SAPE  H10Y10532   5.432   5.729   4.062  1.0871 -2.6442 -0.0162
  103SAPE  C31110533   5.502   5.924   4.136 -0.1927  0.5947  0.0806
  103SAPE  H11X10534   5.405   5.977   4.124 -0.3186  0.6907  1.3356
  103SAPE  H11Y10535   5.585   5.997   4.122  0.2631 -0.0278 -0.5225
  103SAPE  C31210536   5.502   5.890   4.286  0.5772  0.0859 -0.4617
  103SAPE  H12X10537   5.607   5.861   4.310  2.4523  2.3783 -4.7394
  103SAPE  H12Y10538   5.425   5.811   4.301 -1.1931  1.5507 -1.3345
  103SAPE  C31310539   5.465   6.010   4.383  0.4119 -0.4018 -0.1241
  103SAPE  H13X10540   5.355   6.027   4.379  0.0965 -2.4796 -3.0574
  103SAPE  H13Y10541   5.510   6.102   4.342  0.2160  0.3517  1.2656
  103SAPE  C31410542   5.501   5.971   4.527 -0.2023 -0.2347  0.2665
  103SAPE  H14X10543   5.611   5.952   4.523 -0.4929 -2.2889  0.8683
  103SAPE  H14Y10544   5.443   5.881   4.555 -1.5732  1.0240  1.7208
  103SAPE  C31510545   5.463   6.078   4.628  0.3193 -0.0276 -0.2361
  103SAPE  H15X10546   5.554   6.141   4.633  0.3589 -0.1174  0.1576
  103SAPE  H15Y10547   5.465   6.019   4.722  1.1029  0.2823 -0.0573
  103SAPE  C31610548   5.338   6.167   4.616 -0.6615 -0.7066  0.0778
  103SAPE  H16X10549   5.355   6.225   4.523  3.6552  1.3990  1.9093
  103SAPE  H16Y10550   5.352   6.236   4.701 -0.5857 -1.5157  0.7328
  103SAPE  C31710551   5.204   6.099   4.615  0.2432 -0.2815  0.9124
  103SAPE  H17X10552   5.184   6.049   4.713  1.4342  0.9598  1.8249
  103SAPE  H17Y10553   5.202   6.019   4.538  0.3489 -1.5701  2.2041
  103SAPE  C31810554   5.091   6.191   4.575  0.6589  0.1405 -0.4539
  103SAPE  H18X10555   5.083   6.212   4.466 -0.1049 -1.5887 -0.7467
  103SAPE  H18Y10556   5.084   6.288   4.629 -0.4286 -1.2764  2.1277
  103SAPE  H18Z10557   4.997   6.138   4.600  0.4001  1.3048  1.2507
  104SAPE     N10558   6.434   3.971   2.431 -0.1676 -0.3008  0.0520
  104SAPE   HN110559   6.531   4.007   2.429 -0.5389  0.7664 -2.0643
  104SAPE   HN210560   6.381   4.017   2.507  1.1047 -0.6063  1.1593
  104SAPE   HN310561   6.445   3.871   2.458 -0.1955 -0.8244 -1.7237
  104SAPE   C1210562   6.378   3.962   2.291  1.2680 -0.6794  0.3676
  104SAPE  H12A10563   6.344   4.065   2.269 -0.9992 -1.4892 -0.1939
  104SAPE  H12B10564   6.286   3.900   2.299 -0.1511  1.4276  1.1224
  104SAPE   C1110565   6.479   3.911   2.190 -0.1994  0.2809 -0.0376
  104SAPE  H11A10566   6.542   3.996   2.158  0.9616 -0.9245 -1.0325
  104SAPE  H11B10567   6.420   3.869   2.106 -2.0896  1.4754  0.6082
  104SAPE     P10568   6.494   3.653   2.262  0.3895  0.0614 -0.0491
  104SAPE   O1310569   6.457   3.596   2.134  0.0761  0.2943  0.1788
  104SAPE   O1410570   6.594   3.576   2.340 -0.7186  0.0827  0.0073
  104SAPE   O1210571   6.551   3.799   2.247  0.1760 -0.2226  0.7364
  104SAPE   O1110572   6.364   3.677   2.339  0.4038  0.3924 -0.0296
  104SAPE    C110573   6.274   3.574   2.377  0.6677  0.0543  0.3720
  104SAPE    HA10574   6.178   3.575   2.320  1.2052  2.2217 -0.6001
  104SAPE    HB10575   6.315   3.475   2.347 -1.7997 -0.2944 -2.3049
  104SAPE    C210576   6.239   3.564   2.532  1.1156  0.0672  0.7348
  104SAPE    HS10577   6.188   3.660   2.553  0.8604 -0.1656  1.1909
  104SAPE   O2110578   6.362   3.548   2.603  0.4120  1.1031  0.3170
  104SAPE   C2110579   6.447   3.656   2.630  0.3210 -0.0191  0.8794
  104SAPE   O2210580   6.413   3.769   2.611 -0.1594 -0.2242  0.1299
  104SAPE   C2210581   6.579   3.621   2.686  0.0419  0.3491 -0.3783
  104SAPE   H2R10582   6.600   3.515   2.662  0.5392 -0.0287  1.5019
  104SAPE   H2S10583   6.652   3.693   2.643 -0.8978  0.9589 -0.9885
  104SAPE    C310584   6.144   3.442   2.566 -0.2316 -0.0174 -0.1154
  104SAPE    HX10585   6.061   3.452   2.492  0.4855 -0.3665 -0.9881
  104SAPE    HY10586   6.098   3.450   2.667  0.0123 -0.9942  0.0868
  104SAPE   O3110587   6.205   3.309   2.546 -0.3534  0.1418 -0.2882
  104SAPE   C3110588   6.260   3.258   2.661  0.0437 -0.3580 -0.0167
  104SAPE   O3210589   6.259   3.305   2.772  0.4815  0.1403 -0.1024
  104SAPE   C3210590   6.311   3.119   2.628  0.4260  0.8901 -0.1050
  104SAPE   H2X10591   6.410   3.124   2.577  0.7708 -1.5956  0.1494
  104SAPE   H2Y10592   6.241   3.074   2.555  0.7843  1.2402 -0.6672
  104SAPE   C2310593   6.564   3.621   2.842  0.0976 -0.2368 -0.1484
  104SAPE   H3R10594   6.495   3.700   2.877  1.0290  1.8059 -2.6456
  104SAPE   H3S10595   6.664   3.624   2.890  0.6223 -2.3543 -1.0041
  104SAPE   C2410596   6.498   3.486   2.894  0.2053  0.1778  0.4522
  104SAPE   H4R10597   6.520   3.412   2.815  3.0859 -0.7457  1.9632
  104SAPE   H4S10598   6.388   3.496   2.900  0.1079 -1.1922  1.1810
  104SAPE   C2510599   6.539   3.423   3.029  0.8499 -0.1707 -0.2340
  104SAPE   H5R10600   6.562   3.316   3.024  1.5934 -0.0692  0.9002
  104SAPE   C2610601   6.566   3.473   3.149  0.3875  0.5267  0.3599
  104SAPE   H6R10602   6.577   3.397   3.228 -2.6423 -0.4635 -0.0455
  104SAPE   C2710603   6.559   3.620   3.190 -0.1218 -0.6846  0.0104
  104SAPE   H7R10604   6.534   3.686   3.104  0.8376 -0.5385 -0.1732
  104SAPE   H7S10605   6.662   3.659   3.202 -1.0654  1.9677  0.2044
  104SAPE   C2810606   6.469   3.641   3.309 -0.5540  0.3419  0.5103
  104SAPE   H8R10607   6.380   3.577   3.312 -0.6364  0.4112 -0.2236
  104SAPE   C2910608   6.494   3.727   3.409  0.6372  0.2038 -0.5925
  104SAPE   H9R10609   6.413   3.751   3.479  2.6357  1.3329  1.4433
  104SAPE  C21010610   6.613   3.822   3.426  0.8357 -0.1024 -0.1988
  104SAPE  H10R10611   6.589   3.909   3.491  0.9134 -0.8449  0.8467
  104SAPE  H10S10612   6.639   3.858   3.325 -0.9247 -0.8910 -0.9749
  104SAPE  C21110613   6.722   3.749   3.497 -0.2964 -0.4503  0.2901
  104SAPE  H11R10614   6.797   3.719   3.423  1.8799 -1.5696  2.7584
  104SAPE  C21210615   6.754   3.746   3.628 -0.3144 -0.2604  0.7604
  104SAPE  H12R10616   6.849   3.698   3.654 -0.1642 -0.4462 -0.0858
  104SAPE  C21310617   6.675   3.793   3.747  0.2013 -0.3570 -0.1820
  104SAPE  H13R10618   6.704   3.723   3.829  0.6600  0.6750  0.5585
  104SAPE  H13S10619   6.565   3.785   3.732  0.4305 -2.7044 -1.0201
  104SAPE  C21410620   6.698   3.944   3.775 -0.4381  0.0644 -0.3132
  104SAPE  H14R10621   6.675   4.013   3.693  0.2362 -0.2725 -0.7981
  104SAPE  C21510622   6.761   3.996   3.884 -0.3180 -0.5627  0.0490
  104SAPE  H15R10623   6.775   4.105   3.896 -0.3939 -0.0712 -3.2190
  104SAPE  C21610624   6.818   3.916   3.996 -0.2170 -0.6751  0.3750
  104SAPE  H16R10625   6.927   3.935   3.992 -0.3491  0.5160  1.6191
  104SAPE  H16S10626   6.820   3.805   3.988 -2.1896 -0.6061 -2.5844
  104SAPE  C21710627   6.753   3.954   4.135  0.5659  0.4536 -0.2532
  104SAPE  H17R10628   6.644   3.934   4.132  0.6782 -0.0876 -2.0301
  104SAPE  H17S10629   6.767   4.061   4.160 -0.4852  0.7748 -0.9873
  104SAPE  C21810630   6.809   3.874   4.256 -0.1350 -0.1767 -0.1047
  104SAPE  H18R10631   6.919   3.865   4.240 -0.1764 -1.3757  0.1641
  104SAPE  H18S10632   6.765   3.773   4.243  1.5778 -0.8202 -1.3394
  104SAPE  C21910633   6.760   3.921   4.400 -0.7115 -0.2841  0.4576
  104SAPE  H19R10634   6.808   3.848   4.468 -0.1264 -1.6538 -1.3583
  104SAPE  H19S10635   6.649   3.912   4.403 -0.9528  1.8911 -0.2425
  104SAPE  C22010636   6.795   4.064   4.446  0.4598  0.0537 -0.2894
  104SAPE  H20R10637   6.761   4.140   4.372  1.6008  0.8845 -0.0005
  104SAPE  H20S10638   6.905   4.080   4.451  0.3305  1.4422 -1.2694
  104SAPE  H20T10639   6.756   4.090   4.547  0.1214  0.6141 -0.5581
  104SAPE   C3310640   6.317   3.024   2.750 -0.8466  0.2493 -0.1204
  104SAPE   H3X10641   6.302   2.920   2.714 -3.1214  0.5423 -0.2107
  104SAPE   H3Y10642   6.230   3.046   2.816  0.2360 -2.4497  2.3934
  104SAPE   C3410643   6.450   3.030   2.830  0.1088 -0.3033  0.2695
  104SAPE   H4X10644   6.477   3.138   2.839  1.0381 -0.4728 -0.3020
  104SAPE   H4Y10645   6.531   2.990   2.765  2.8667  1.9570  2.0364
  104SAPE   C3510646   6.453   2.959   2.966 -0.0676  0.5147  0.8426
  104SAPE   H5X10647   6.552   2.990   3.007 -0.2625  1.1993  0.7988
  104SAPE   H5Y10648   6.457   2.848   2.965 -2.3724  0.3868  0.3374
  104SAPE   C3610649   6.339   2.999   3.063  0.1833  0.0711 -0.7262
  104SAPE   H6X10650   6.243   2.988   3.007 -0.8685  1.6651  0.6446
  104SAPE   H6Y10651   6.345   3.106   3.093  0.2459  0.2331 -1.3124
  104SAPE   C3710652   6.329   2.928   3.203 -0.5589 -0.7711  0.6408
  104SAPE   H7X10653   6.307   2.820   3.192 -2.7681 -0.2825 -0.3356
  104SAPE   H7Y10654   6.247   2.966   3.268 -0.8335 -1.3220  0.6288
  104SAPE   C3810655   6.460   2.944   3.282  0.0972 -0.1008 -0.5557
  104SAPE   H8X10656   6.483   3.050   3.306  1.2606 -0.5364  0.3702
  104SAPE   H8Y10657   6.542   2.902   3.220  1.1972  2.1802 -0.7350
  104SAPE   C3910658   6.446   2.861   3.410  0.4813  0.3194  0.5763
  104SAPE   H9X10659   6.550   2.858   3.447  1.0414  0.2379 -0.9394
  104SAPE   H9Y10660   6.421   2.754   3.390  2.1693 -0.1178  0.6997
  104SAPE  C31010661   6.345   2.919   3.512  0.2670  0.0931  0.1426
  104SAPE  H10X10662   6.241   2.925   3.475 -0.0092  1.8716  1.0607
  104SAPE  H10Y10663   6.376   3.023   3.538  4.4418 -0.6532 -1.1624
  104SAPE  C31110664   6.346   2.833   3.641 -0.1143  0.4298  0.0117
  104SAPE  H11X10665   6.452   2.832   3.676  0.4796 -0.9903 -1.6631
  104SAPE  H11Y10666   6.344   2.727   3.607  2.1297  0.3130  0.0944
  104SAPE  C31210667   6.249   2.871   3.745  0.4059  0.0273 -0.4340
  104SAPE  H12X10668   6.144   2.852   3.712  0.9143 -1.7779 -1.1647
  104SAPE  H12Y10669   6.271   2.978   3.767  0.3835 -0.1554  0.5109
  104SAPE  C31310670   6.272   2.792   3.876  0.2345 -0.4152  0.6496
  104SAPE  H13X10671   6.249   2.864   3.957  1.2141  0.1030  0.4871
  104SAPE  H13Y10672   6.380   2.770   3.893  0.2123 -0.7656  0.3607
  104SAPE  C31410673   6.203   2.661   3.879 -0.3305 -0.1888  0.2584
  104SAPE  H14X10674   6.219   2.603   3.786 -4.0735 -1.2329  0.1255
  104SAPE  H14Y10675   6.095   2.685   3.886 -0.3108 -0.5882  3.2810
  104SAPE  C31510676   6.247   2.573   3.995 -0.0190 -0.6180 -0.1109
  104SAPE  H15X10677   6.217   2.624   4.090  0.6341 -3.4419  1.7464
  104SAPE  H15Y10678   6.357   2.556   3.994 -0.0977 -1.7956  2.4854
  104SAPE  C31610679   6.187   2.433   4.006 -0.1405  0.2876 -0.3089
  104SAPE  H16X10680   6.078   2.420   3.990 -0.2281  0.9248 -0.2409
  104SAPE  H16Y10681   6.225   2.391   4.102  2.0276 -1.2650 -1.7390
  104SAPE  C31710682   6.246   2.339   3.892  0.1850 -0.4109 -0.5321
  104SAPE  H17X10683   6.353   2.363   3.878  0.0035  0.7778 -0.0288
  104SAPE  H17Y10684   6.188   2.379   3.806 -0.2342  1.2996  0.4814
  104SAPE  C31810685   6.215   2.199   3.933 -0.2224  0.3732 -0.2597
  104SAPE  H18X10686   6.281   2.176   4.019 -0.2283 -0.9518 -0.5769
  104SAPE  H18Y10687   6.241   2.138   3.843 -2.4066  2.7529 -2.6769
  104SAPE  H18Z10688   6.109   2.172   3.951  0.2428 -1.0983  0.4591
  105SAPE     N10689   3.061   2.351   1.558  0.3010  0.3884  0.0532
  105SAPE   HN110690   3.148   2.305   1.524 -0.8906 -0.4380 -2.0106
  105SAPE   HN210691   3.005   2.277   1.606  1.8003 -0.3753  0.7003
  105SAPE   HN310692   3.007   2.372   1.472  0.7861  1.1656 -0.0675
  105SAPE   C1210693   3.073   2.463   1.656 -0.2652 -0.2788  0.1142
  105SAPE  H12A10694   2.969   2.501   1.664 -0.2602 -0.2827  0.1956
  105SAPE  H12B10695   3.141   2.544   1.621  1.9911 -1.5528  1.2947
  105SAPE   C1110696   3.120   2.427   1.796  0.6411 -0.2015  0.3563
  105SAPE  H11A10697   3.055   2.347   1.836 -0.4333  1.2461  1.6223
  105SAPE  H11B10698   3.092   2.517   1.855  0.0638 -0.1627  0.0250
  105SAPE     P10699   3.375   2.495   1.818 -0.1269 -0.0760 -0.2666
  105SAPE   O1310700   3.510   2.430   1.810  0.2720  0.2456 -0.0260
  105SAPE   O1410701   3.350   2.608   1.728 -0.1716 -0.7361 -0.5380
  105SAPE   O1210702   3.258   2.393   1.791 -0.2669  0.5886  0.1409
  105SAPE   O1110703   3.354   2.539   1.967  0.1307 -0.4751 -0.1732
  105SAPE    C110704   3.377   2.453   2.077 -0.4676  0.1075  0.0706
  105SAPE    HA10705   3.472   2.396   2.067 -0.8294 -1.2881  3.2981
  105SAPE    HB10706   3.401   2.515   2.166 -1.6872 -1.6841  1.7340
  105SAPE    C210707   3.274   2.344   2.107  0.2977  0.0979  0.1618
  105SAPE    HS10708   3.245   2.302   2.008  0.6670 -1.1617  0.5638
  105SAPE   O2110709   3.168   2.418   2.167  0.1639 -0.6862  0.0408
  105SAPE   C2110710   3.047   2.356   2.164  0.1559 -0.4986 -0.1489
  105SAPE   O2210711   3.019   2.261   2.092 -0.5424  0.1231  0.0169
  105SAPE   C2210712   2.949   2.419   2.267 -0.0999 -0.2666  0.5474
  105SAPE   H2R10713   2.945   2.361   2.361 -0.2865 -0.1628  0.6066
  105SAPE   H2S10714   2.984   2.523   2.285  0.1396  0.1284 -1.7912
  105SAPE    C310715   3.328   2.232   2.193  0.6811  0.1885  0.5952
  105SAPE    HX10716   3.401   2.176   2.131 -0.0971  1.0361 -1.1637
  105SAPE    HY10717   3.243   2.164   2.212 -0.2481  1.2218  0.2139
  105SAPE   O3110718   3.390   2.278   2.317  0.3543  0.2580 -0.1047
  105SAPE   C3110719   3.302   2.307   2.414 -0.4062  0.5243  0.4392
  105SAPE   O3210720   3.189   2.264   2.414  0.3332 -0.0968 -0.2501
  105SAPE   C3210721   3.363   2.409   2.496  0.9544  0.0697  0.4923
  105SAPE   H2X10722   3.337   2.509   2.456  0.3374 -1.1148 -2.3333
  105SAPE   H2Y10723   3.474   2.407   2.491  0.9107 -1.5462 -2.2864
  105SAPE   C2310724   2.801   2.426   2.211  0.0207  0.1354  0.1448
  105SAPE   H3R10725   2.777   2.320   2.186 -0.3633  0.7406 -2.3346
  105SAPE   H3S10726   2.801   2.476   2.112  0.5483 -0.8472 -0.3703
  105SAPE   C2410727   2.687   2.474   2.313  0.1124 -0.3406  0.9536
  105SAPE   H4R10728   2.680   2.405   2.400  1.9669 -0.3697  1.1104
  105SAPE   H4S10729   2.590   2.460   2.261  0.3379  1.3658  0.0099
  105SAPE   C2510730   2.706   2.611   2.361 -0.2779  0.4292 -0.1235
  105SAPE   H5R10731   2.649   2.689   2.309 -2.8141 -2.0976 -1.4599
  105SAPE   C2610732   2.766   2.639   2.480  0.3784  0.0108  1.0343
  105SAPE   H6R10733   2.756   2.743   2.516 -0.9944  0.2397  0.0750
  105SAPE   C2710734   2.831   2.540   2.579 -0.5470 -0.1505 -0.4430
  105SAPE   H7R10735   2.858   2.444   2.529 -0.4234 -0.5601  0.3790
  105SAPE   H7S10736   2.754   2.510   2.654  0.1634  1.0979  0.8175
  105SAPE   C2810737   2.941   2.610   2.653  0.2337  0.5052 -0.1739
  105SAPE   H8R10738   3.042   2.623   2.611  0.1503  0.9415 -0.2508
  105SAPE   C2910739   2.928   2.656   2.776 -0.1830 -0.2587 -0.4050
  105SAPE   H9R10740   3.015   2.702   2.825 -0.8335 -0.9152  1.4393
  105SAPE  C21010741   2.803   2.640   2.860  0.6788  1.3122 -0.2358
  105SAPE  H10R10742   2.801   2.534   2.892  3.2159  0.6974 -1.8306
  105SAPE  H10S10743   2.713   2.641   2.795  2.7788 -1.2037 -3.5435
  105SAPE  C21110744   2.799   2.745   2.962 -0.0609  0.6126  0.4546
  105SAPE  H11R10745   2.818   2.845   2.920  1.4467  0.1763  0.0219
  105SAPE  C21210746   2.765   2.730   3.091  0.0469 -0.2098 -0.3334
  105SAPE  H12R10747   2.789   2.817   3.154 -0.4170  0.1494 -0.6396
  105SAPE  C21310748   2.765   2.595   3.165  0.1157 -0.4391  0.3770
  105SAPE  H13R10749   2.860   2.547   3.133 -0.1650  0.1596 -1.4791
  105SAPE  H13S10750   2.691   2.527   3.119  0.4295  0.7372 -2.0486
  105SAPE  C21410751   2.739   2.589   3.314  0.1561  0.3695 -0.1169
  105SAPE  H14R10752   2.816   2.539   3.374 -0.1294 -1.5534 -1.2695
  105SAPE  C21510753   2.631   2.628   3.379  0.5117  0.2337 -0.2270
  105SAPE  H15R10754   2.638   2.626   3.489 -0.3145 -4.1048 -0.0691
  105SAPE  C21610755   2.516   2.694   3.318  1.1744  0.0593  0.5857
  105SAPE  H16R10756   2.514   2.702   3.207 -0.3174  2.8737  0.7230
  105SAPE  H16S10757   2.511   2.800   3.353  1.4016  0.2292  0.1117
  105SAPE  C21710758   2.387   2.627   3.362  0.3025  0.1208 -0.1033
  105SAPE  H17R10759   2.377   2.626   3.473  0.7477 -0.3799 -0.0609
  105SAPE  H17S10760   2.392   2.517   3.343 -1.0259  0.3949 -2.3050
  105SAPE  C21810761   2.255   2.676   3.310  0.0655 -0.5003  0.2616
  105SAPE  H18R10762   2.233   2.780   3.342 -2.0168 -0.4696 -1.1058
  105SAPE  H18S10763   2.176   2.605   3.341  1.8713 -2.7959 -0.0922
  105SAPE  C21910764   2.234   2.682   3.157  0.0346  0.1488 -0.5971
  105SAPE  H19R10765   2.299   2.763   3.115 -2.3218  1.3985 -2.0662
  105SAPE  H19S10766   2.129   2.713   3.138 -0.0604  0.9066  0.9967
  105SAPE  C22010767   2.275   2.550   3.083 -0.1610 -0.3626 -0.5948
  105SAPE  H20R10768   2.201   2.471   3.110 -0.1372  0.0595  0.8024
  105SAPE  H20S10769   2.373   2.512   3.119  0.8280 -1.1377 -3.7737
  105SAPE  H20T10770   2.274   2.567   2.973  0.5104 -0.5978 -0.6420
  105SAPE   C3310771   3.313   2.411   2.643 -0.1558 -0.1368 -0.1200
  105SAPE   H3X10772   3.209   2.447   2.657  0.6007  1.1592  2.7176
  105SAPE   H3Y10773   3.375   2.481   2.703  0.4942 -1.2255  0.5195
  105SAPE   C3410774   3.329   2.271   2.698  0.4161  0.9609 -0.8017
  105SAPE   H4X10775   3.432   2.229   2.701  1.2072  2.5483 -3.1410
  105SAPE   H4Y10776   3.266   2.206   2.634  0.9981  0.7103 -1.1254
  105SAPE   C3510777   3.266   2.260   2.837  0.0237 -0.3292  0.0427
  105SAPE   H5X10778   3.273   2.156   2.875 -1.6248 -1.9495 -3.5581
  105SAPE   H5Y10779   3.156   2.272   2.826 -0.0817 -2.1494 -1.5182
  105SAPE   C3610780   3.316   2.352   2.944 -0.0345  0.0055 -0.2421
  105SAPE   H6X10781   3.318   2.460   2.916 -2.3595  0.4040  0.8336
  105SAPE   H6Y10782   3.419   2.315   2.960  0.1761  0.4300 -0.5945
  105SAPE   C3710783   3.235   2.348   3.072  0.1484  0.9639 -1.1786
  105SAPE   H7X10784   3.210   2.241   3.089  0.7245  0.7157 -1.8938
  105SAPE   H7Y10785   3.144   2.409   3.055 -0.6479  0.2419  0.3060
  105SAPE   C3810786   3.311   2.413   3.190  0.6224 -0.7079  0.0408
  105SAPE   H8X10787   3.354   2.498   3.132 -1.1174  0.9721  1.1033
  105SAPE   H8Y10788   3.386   2.341   3.229 -0.8426 -1.3593  1.7923
  105SAPE   C3910789   3.230   2.490   3.297  0.1912  0.5885 -0.5587
  105SAPE   H9X10790   3.164   2.572   3.262 -0.3169  1.1194  1.4666
  105SAPE   H9Y10791   3.302   2.539   3.366  1.0917 -0.9453 -0.3463
  105SAPE  C31010792   3.167   2.383   3.399  0.5909  0.5502  0.1804
  105SAPE  H10X10793   3.241   2.314   3.446 -1.4845 -1.2420  0.9760
  105SAPE  H10Y10794   3.093   2.322   3.343  2.1551  0.2309 -1.6390
  105SAPE  C31110795   3.089   2.446   3.522  0.1747 -0.2868 -0.4633
  105SAPE  H11X10796   3.007   2.512   3.487  0.9199  1.7898  1.4889
  105SAPE  H11Y10797   3.163   2.516   3.565 -0.7658  1.0565 -0.9676
  105SAPE  C31210798   3.040   2.347   3.628  0.1594 -0.5264  0.2403
  105SAPE  H12X10799   3.130   2.320   3.688  1.1633  0.6229 -0.6828
  105SAPE  H12Y10800   2.997   2.253   3.588 -2.0470 -0.0032  1.2333
  105SAPE  C31310801   2.946   2.415   3.725  0.4621  0.2401 -0.2989
  105SAPE  H13X10802   2.841   2.433   3.693  0.7580  1.8026 -0.4579
  105SAPE  H13Y10803   2.986   2.515   3.750  0.8996  0.0896 -0.3736
  105SAPE  C31410804   2.927   2.322   3.854  0.3179 -0.6906 -0.0096
  105SAPE  H14X10805   3.026   2.323   3.904  0.5647  1.6717 -0.4168
  105SAPE  H14Y10806   2.875   2.225   3.840 -2.2602  0.6954 -0.9091
  105SAPE  C31510807   2.827   2.399   3.942 -0.2247  0.0109  0.5370
  105SAPE  H15X10808   2.722   2.390   3.906 -0.4714  0.5297  1.0960
  105SAPE  H15Y10809   2.845   2.508   3.927 -0.0398 -0.3077 -1.9293
  105SAPE  C31610810   2.844   2.370   4.097 -0.0723 -1.1426  0.3410
  105SAPE  H16X10811   2.783   2.449   4.145 -0.0114 -0.1292 -1.1739
  105SAPE  H16Y10812   2.949   2.396   4.120 -0.9417  1.5357  1.7497
  105SAPE  C31710813   2.796   2.234   4.149  0.5121 -0.6037 -0.5160
  105SAPE  H17X10814   2.819   2.227   4.257 -2.1952 -0.2061  0.1578
  105SAPE  H17Y10815   2.845   2.153   4.090  2.3273  0.9338 -1.2138
  105SAPE  C31810816   2.648   2.226   4.151 -0.1457 -0.0530  0.6357
  105SAPE  H18X10817   2.620   2.296   4.232  2.9874  1.4549  0.5494
  105SAPE  H18Y10818   2.611   2.123   4.170 -0.9052  0.3321  1.3126
  105SAPE  H18Z10819   2.606   2.256   4.053  2.2782  0.5485 -0.2958
  106SAPE     N10820   3.179   5.155   2.146 -0.3033  0.1750 -0.0619
  106SAPE   HN110821   3.098   5.142   2.082 -1.3081 -0.0781  1.2167
  106SAPE   HN210822   3.247   5.204   2.085 -0.9898 -0.7522 -1.6332
  106SAPE   HN310823   3.207   5.062   2.184 -0.9214 -0.0900 -0.2310
  106SAPE   C1210824   3.127   5.250   2.247 -0.9673 -0.1822 -0.1338
  106SAPE  H12A10825   3.081   5.333   2.189 -1.8686 -0.0738  0.7071
  106SAPE  H12B10826   3.218   5.289   2.297 -1.5445 -0.4962  1.2016
  106SAPE   C1110827   3.027   5.175   2.336  0.3196  0.3263 -0.1097
  106SAPE  H11A10828   2.983   5.245   2.411  1.2079 -0.3696  1.0997
  106SAPE  H11B10829   3.075   5.104   2.406  0.1087  2.1643  2.0012
  106SAPE     P10830   2.797   5.185   2.211  0.1654  0.0263 -0.4968
  106SAPE   O1310831   2.828   5.319   2.174 -0.0783  0.0886 -0.5167
  106SAPE   O1410832   2.730   5.101   2.111 -0.0544  0.6453 -0.1810
  106SAPE   O1210833   2.924   5.102   2.266 -0.5045  0.1646  0.4738
  106SAPE   O1110834   2.701   5.191   2.330 -0.3136 -0.6266 -0.1363
  106SAPE    C110835   2.672   5.079   2.406  0.2069  0.1466 -0.0325
  106SAPE    HA10836   2.564   5.073   2.432  0.1945  1.0660  0.1424
  106SAPE    HB10837   2.708   4.984   2.361  2.5971  1.5858 -1.3723
  106SAPE    C210838   2.739   5.095   2.542  0.4673  0.1070 -0.1466
  106SAPE    HS10839   2.850   5.105   2.535  0.5101 -0.0203  0.3165
  106SAPE   O2110840   2.706   4.976   2.625  0.1268 -0.2985  0.2006
  106SAPE   C2110841   2.801   4.919   2.695 -0.4904 -0.2849 -0.2095
  106SAPE   O2210842   2.912   4.973   2.711 -0.5226 -0.0238 -0.0040
  106SAPE   C2210843   2.744   4.799   2.765  0.3749 -0.0084  0.0124
  106SAPE   H2R10844   2.649   4.831   2.813 -0.2592 -0.5412 -0.8505
  106SAPE   H2S10845   2.723   4.717   2.692 -1.8706  0.3045  0.2517
  106SAPE    C310846   2.694   5.228   2.613 -0.4776  0.2009 -0.2748
  106SAPE    HX10847   2.585   5.214   2.623 -0.4892 -0.6752 -1.3739
  106SAPE    HY10848   2.715   5.325   2.561 -3.9516  0.4389 -1.4624
  106SAPE   O3110849   2.750   5.230   2.751 -0.4533 -0.1245  0.0324
  106SAPE   C3110850   2.874   5.281   2.759  0.1439  0.2376 -0.3241
  106SAPE   O3210851   2.934   5.323   2.659 -0.0198  0.3897 -0.1373
  106SAPE   C3210852   2.939   5.265   2.893  0.0313 -0.2979  0.0493
  106SAPE   H2X10853   2.980   5.365   2.919 -1.9463  0.0394  2.2733
  106SAPE   H2Y10854   3.025   5.196   2.893  1.4340  1.3664  1.1429
  106SAPE   C2310855   2.842   4.749   2.877  0.1474 -0.1764 -0.1990
  106SAPE   H3R10856   2.934   4.707   2.832  0.8332  1.6883 -0.6348
  106SAPE   H3S10857   2.789   4.663   2.924  0.5831 -1.1837 -1.4809
  106SAPE   C2410858   2.878   4.845   2.992 -0.0538 -0.7731  0.6419
  106SAPE   H4R10859   2.780   4.889   3.021 -0.3948 -1.2697  0.2624
  106SAPE   H4S10860   2.936   4.925   2.941 -0.3400 -2.2599 -2.2015
  106SAPE   C2510861   2.952   4.775   3.100  0.7323  0.0655  0.4059
  106SAPE   H5R10862   3.051   4.731   3.081  0.2110 -0.4572 -1.2176
  106SAPE   C2610863   2.892   4.748   3.217  0.0794 -0.0321 -0.9378
  106SAPE   H6R10864   2.942   4.694   3.298  0.3565  1.1537 -0.2950
  106SAPE   C2710865   2.758   4.797   3.263 -0.3783 -0.6569  0.1929
  106SAPE   H7R10866   2.715   4.870   3.191  1.5594 -1.2422 -1.6540
  106SAPE   H7S10867   2.762   4.841   3.365  0.8812  0.3782 -0.2848
  106SAPE   C2810868   2.668   4.674   3.272 -0.7658  0.1105 -0.3583
  106SAPE   H8R10869   2.637   4.640   3.172 -0.4820  1.4964 -0.9493
  106SAPE   C2910870   2.646   4.594   3.378  0.6557 -0.7374  0.1886
  106SAPE   H9R10871   2.579   4.507   3.368 -0.6558  0.3264 -0.5938
  106SAPE  C21010872   2.681   4.617   3.519 -0.4653 -0.4756  0.3120
  106SAPE  H10R10873   2.593   4.648   3.580 -0.8673  0.9937 -0.9525
  106SAPE  H10S10874   2.747   4.705   3.532 -0.0634 -0.4022 -1.8777
  106SAPE  C21110875   2.761   4.502   3.577 -0.5151  0.0946 -0.2957
  106SAPE  H11R10876   2.838   4.470   3.505  1.5447  2.3501  0.7640
  106SAPE  C21210877   2.743   4.452   3.702  0.8721  0.1165 -1.8691
  106SAPE  H12R10878   2.804   4.369   3.740 -2.5149 -0.7869  2.3625
  106SAPE  C21310879   2.648   4.514   3.804  0.4507  0.2363  0.4484
  106SAPE  H13R10880   2.604   4.423   3.852 -1.5565  1.3162  0.7732
  106SAPE  H13S10881   2.561   4.571   3.765 -0.6950 -0.6108  1.6653
  106SAPE  C21410882   2.742   4.595   3.892  0.6234 -0.0405 -0.1799
  106SAPE  H14R10883   2.812   4.659   3.837 -0.8249  1.3592 -0.4744
  106SAPE  C21510884   2.753   4.578   4.029  0.1669 -0.2853  0.5176
  106SAPE  H15R10885   2.823   4.639   4.087 -0.9884 -0.9761  2.7631
  106SAPE  C21610886   2.656   4.489   4.098  0.7984  0.0239 -0.8488
  106SAPE  H16R10887   2.625   4.405   4.032  2.6291  0.0539 -1.8005
  106SAPE  H16S10888   2.559   4.538   4.124  0.2461  0.0100 -2.7078
  106SAPE  C21710889   2.720   4.445   4.229  0.1386 -0.0363  0.2964
  106SAPE  H17R10890   2.634   4.398   4.281  0.3126 -0.0907  0.5331
  106SAPE  H17S10891   2.735   4.529   4.300 -1.1731  2.1549 -1.8627
  106SAPE  C21810892   2.836   4.344   4.226 -0.2869  0.8546  0.1446
  106SAPE  H18R10893   2.850   4.289   4.130  2.3392  0.4876  0.6759
  106SAPE  H18S10894   2.810   4.263   4.299 -0.4612  1.3256  0.6133
  106SAPE  C21910895   2.965   4.406   4.266 -0.5341  0.0121 -0.2721
  106SAPE  H19R10896   2.948   4.472   4.354 -2.1421 -0.4572 -0.2107
  106SAPE  H19S10897   3.021   4.459   4.186 -1.5691 -1.5144 -2.0581
  106SAPE  C22010898   3.065   4.291   4.305  0.1352 -0.0165 -0.7272
  106SAPE  H20R10899   3.087   4.240   4.209 -1.3940  1.6100 -2.0103
  106SAPE  H20S10900   3.008   4.227   4.375 -0.5880  1.8098  0.4155
  106SAPE  H20T10901   3.166   4.317   4.343 -0.4502 -2.5473  3.0474
  106SAPE   C3310902   2.832   5.222   3.006 -1.4409 -0.2715 -0.5821
  106SAPE   H3X10903   2.816   5.113   2.996  1.4643 -0.9542  1.0366
  106SAPE   H3Y10904   2.732   5.269   3.008 -2.1798 -1.8261  0.5363
  106SAPE   C3410905   2.893   5.238   3.149 -0.2456 -0.1422 -0.1244
  106SAPE   H4X10906   2.921   5.345   3.160  0.8826 -0.2310 -1.7800
  106SAPE   H4Y10907   2.984   5.175   3.146 -1.4243 -1.8868 -1.5587
  106SAPE   C3510908   2.793   5.182   3.257 -0.3013  0.1392 -0.2806
  106SAPE   H5X10909   2.745   5.087   3.224 -1.6632  1.0966 -1.1606
  106SAPE   H5Y10910   2.712   5.255   3.275 -1.6366 -0.7371 -2.2946
  106SAPE   C3610911   2.858   5.158   3.397 -0.8417 -0.4764  0.5009
  106SAPE   H6X10912   2.921   5.248   3.411 -2.4829  0.9223 -0.6088
  106SAPE   H6Y10913   2.933   5.080   3.375  0.3092  0.7938 -0.3044
  106SAPE   C3710914   2.767   5.135   3.518 -0.3777 -0.7615  0.0480
  106SAPE   H7X10915   2.725   5.034   3.500  1.8087 -1.5974 -0.7754
  106SAPE   H7Y10916   2.690   5.215   3.511 -0.7250 -1.1143 -0.1422
  106SAPE   C3810917   2.830   5.162   3.655 -0.2649 -0.2859 -0.1039
  106SAPE   H8X10918   2.866   5.267   3.648  0.2936 -0.3653  1.2159
  106SAPE   H8Y10919   2.923   5.102   3.668 -0.2092  0.0406  1.0635
  106SAPE   C3910920   2.750   5.147   3.788  0.3433  0.0935 -0.7524
  106SAPE   H9X10921   2.659   5.211   3.780  0.3435 -0.0621 -2.6245
  106SAPE   H9Y10922   2.800   5.177   3.883  1.3778 -1.1250 -0.8772
  106SAPE  C31010923   2.711   5.004   3.801  0.5729 -0.5432  0.0767
  106SAPE  H10X10924   2.789   4.927   3.783  1.6097 -0.6828  4.0971
  106SAPE  H10Y10925   2.635   4.986   3.722 -0.7337  2.0392  0.6238
  106SAPE  C31110926   2.653   4.972   3.934  0.5242  0.1708 -0.2563
  106SAPE  H11X10927   2.618   4.866   3.930  3.5704 -0.9768  0.4997
  106SAPE  H11Y10928   2.567   5.040   3.951  0.9003  0.5461  0.1660
  106SAPE  C31210929   2.745   4.966   4.060  0.0921 -0.1867 -0.9883
  106SAPE  H12X10930   2.781   5.070   4.078 -0.1767  0.1732 -2.3871
  106SAPE  H12Y10931   2.839   4.911   4.039 -0.0822 -0.2705 -1.5707
  106SAPE  C31310932   2.664   4.907   4.177 -0.3366 -0.0703  0.0627
  106SAPE  H13X10933   2.649   4.798   4.156  2.0471 -0.2007 -1.3613
  106SAPE  H13Y10934   2.570   4.964   4.190 -0.2952 -0.2145  1.0719
  106SAPE  C31410935   2.731   4.912   4.306  0.3215 -0.2131 -0.9065
  106SAPE  H14X10936   2.791   5.005   4.317 -1.5425  1.0354 -0.9717
  106SAPE  H14Y10937   2.818   4.843   4.309  0.9921  0.6552  1.0097
  106SAPE  C31510938   2.625   4.877   4.423  0.4153 -0.2170  0.0977
  106SAPE  H15X10939   2.621   4.766   4.433 -0.0574 -0.1215  0.9827
  106SAPE  H15Y10940   2.529   4.926   4.396  1.3476  1.8981  0.4481
  106SAPE  C31610941   2.687   4.925   4.550 -0.3200 -0.3138  0.0676
  106SAPE  H16X10942   2.730   5.025   4.533  0.8379 -0.5113  1.6409
  106SAPE  H16Y10943   2.775   4.860   4.569  0.8221  1.1152 -0.1520
  106SAPE  C31710944   2.588   4.924   4.666 -0.7028 -0.5262  0.0065
  106SAPE  H17X10945   2.640   4.949   4.761  2.2466 -2.1082 -1.0600
  106SAPE  H17Y10946   2.540   4.823   4.669 -3.7211  0.5907 -3.5538
  106SAPE  C31810947   2.485   5.035   4.650  0.1801 -0.1018  0.6573
  106SAPE  H18X10948   2.426   5.025   4.557 -0.7583 -2.1797  1.4247
  106SAPE  H18Y10949   2.531   5.136   4.638 -0.1806  0.0151  0.2718
  106SAPE  H18Z10950   2.416   5.030   4.737  0.8607 -2.2583  1.1307
  107SAPE     N10951   0.591   3.332   2.128  0.6255  0.0979 -0.6232
  107SAPE   HN110952   0.529   3.410   2.101  1.6774  0.7985 -1.0749
  107SAPE   HN210953   0.554   3.295   2.218 -2.0640 -1.7755 -2.3438
  107SAPE   HN310954   0.683   3.379   2.141 -0.5755  2.3156  0.4469
  107SAPE   C1210955   0.595   3.229   2.018 -0.4519 -1.0604 -0.8702
  107SAPE  H12A10956   0.684   3.245   1.953 -0.1547 -1.5652 -0.5963
  107SAPE  H12B10957   0.502   3.253   1.962  0.2337  3.3325 -0.4543
  107SAPE   C1110958   0.606   3.090   2.071 -0.3611 -0.0169  0.3961
  107SAPE  H11A10959   0.585   3.022   1.985  2.8684 -0.0771 -0.4809
  107SAPE  H11B10960   0.529   3.064   2.147 -1.7962  0.0936 -0.9738
  107SAPE     P10961   0.850   2.976   2.077  0.7302 -0.0744  0.3538
  107SAPE   O1310962   0.811   2.834   2.074 -0.3004 -0.2787 -0.2881
  107SAPE   O1410963   0.910   3.031   1.951 -0.4438  0.6054  0.0121
  107SAPE   O1210964   0.733   3.062   2.130  0.1170 -0.0020 -0.2688
  107SAPE   O1110965   0.948   3.004   2.198  0.5343  0.2059  0.1996
  107SAPE    C110966   0.937   2.931   2.318  0.9671  0.8084  0.1932
  107SAPE    HA10967   0.845   2.868   2.322  1.5911 -0.0476  1.9039
  107SAPE    HB10968   1.025   2.866   2.338  2.6600  2.7525 -0.5995
  107SAPE    C210969   0.922   3.021   2.440 -0.1881 -0.3865 -0.2041
  107SAPE    HS10970   1.005   3.093   2.424  0.3003 -0.8232  0.3308
  107SAPE   O2110971   0.922   2.946   2.562  0.1680  0.0051 -0.0343
  107SAPE   C2110972   1.039   2.906   2.607 -0.7110 -0.3813 -0.9257
  107SAPE   O2210973   1.147   2.935   2.555  0.1157  0.0196 -0.0592
  107SAPE   C2210974   1.031   2.837   2.742 -0.2016 -0.5336 -0.1907
  107SAPE   H2R10975   0.974   2.900   2.814  0.3645 -1.6629  1.3074
  107SAPE   H2S10976   0.964   2.750   2.723 -1.2494  0.4485 -1.1512
  107SAPE    C310977   0.789   3.108   2.425  0.3018  0.2722  0.3660
  107SAPE    HX10978   0.720   3.022   2.422  0.8791 -0.1820 -0.3685
  107SAPE    HY10979   0.791   3.166   2.330  0.6105 -0.2569  0.0403
  107SAPE   O3110980   0.771   3.197   2.537 -0.0554  0.7554  0.2366
  107SAPE   C3110981   0.655   3.253   2.538  0.1067  0.3730  0.4995
  107SAPE   O3210982   0.572   3.238   2.452 -0.3739  0.1597  0.5203
  107SAPE   C3210983   0.646   3.356   2.649 -0.1949 -0.4738 -0.1035
  107SAPE   H2X10984   0.616   3.456   2.609  0.7632 -0.4895 -0.9014
  107SAPE   H2Y10985   0.750   3.370   2.685  0.5128 -1.4219 -1.6655
  107SAPE   C2310986   1.161   2.782   2.806 -0.0908  0.3856  0.8386
  107SAPE   H3R10987   1.219   2.727   2.729 -0.1499  0.4673  0.7360
  107SAPE   H3S10988   1.139   2.711   2.889  0.9067 -0.1067  0.7050
  107SAPE   C2410989   1.248   2.898   2.865 -0.0183 -0.3035  0.1121
  107SAPE   H4R10990   1.188   2.954   2.940 -0.0996  0.3373 -0.4252
  107SAPE   H4S10991   1.283   2.963   2.782  0.7801 -0.6981  0.1292
  107SAPE   C2510992   1.375   2.828   2.917  0.8462  0.3049 -0.4766
  107SAPE   H5R10993   1.426   2.757   2.850  2.6481  0.1783  0.9480
  107SAPE   C2610994   1.429   2.831   3.034 -0.4622  0.6291 -0.4438
  107SAPE   H6R10995   1.516   2.766   3.053 -1.5523 -0.9510 -0.6846
  107SAPE   C2710996   1.382   2.907   3.158 -0.4074 -0.2250  0.6031
  107SAPE   H7R10997   1.399   2.856   3.256 -2.3584 -0.5531  0.8242
  107SAPE   H7S10998   1.271   2.911   3.150 -0.3884 -0.3647  0.2888
  107SAPE   C2810999   1.451   3.044   3.168 -0.2249 -0.0123 -0.3970
  107SAPE   H8R11000   1.441   3.099   3.073 -1.5103 -1.8338 -1.3777
  107SAPE   C2911001   1.556   3.077   3.247  0.3308  0.4452 -0.2662
  107SAPE   H9R11002   1.608   3.173   3.236  2.3648 -0.5317  0.2779
  107SAPE  C21011003   1.600   3.008   3.375 -0.2276  0.6477 -0.0835
  107SAPE  H10R11004   1.703   2.977   3.348 -0.2598  1.9036 -1.8153
  107SAPE  H10S11005   1.533   2.924   3.405 -0.7225  1.1898  0.3652
  107SAPE  C21111006   1.624   3.105   3.488 -0.6663 -0.2120 -0.4750
  107SAPE  H11R11007   1.647   3.211   3.471  0.7612 -0.2859  0.7944
  107SAPE  C21211008   1.629   3.067   3.616 -0.0939  0.2027 -0.0203
  107SAPE  H12R11009   1.655   3.143   3.691 -0.0129 -0.5183  0.6899
  107SAPE  C21311010   1.599   2.930   3.680 -0.1277 -0.2186  0.1790
  107SAPE  H13R11011   1.677   2.869   3.630 -1.1733 -0.3081 -1.4175
  107SAPE  H13S11012   1.496   2.898   3.651 -0.4092  0.1435  0.7649
  107SAPE  C21411013   1.592   2.935   3.826  0.5460 -0.3153 -0.4963
  107SAPE  H14R11014   1.514   2.999   3.868 -0.5291 -2.5496  1.1309
  107SAPE  C21511015   1.677   2.874   3.917  0.4775 -0.2792  0.9501
  107SAPE  H15R11016   1.682   2.909   4.022  0.5241  0.1283  0.8120
  107SAPE  C21611017   1.787   2.782   3.884  0.3678 -0.1823  0.4304
  107SAPE  H16R11018   1.802   2.777   3.774  0.3270  2.3765  0.2271
  107SAPE  H16S11019   1.761   2.682   3.925 -1.6297 -0.9124 -2.3136
  107SAPE  C21711020   1.922   2.830   3.928  0.3526  0.7609 -0.2996
  107SAPE  H17R11021   1.923   2.938   3.902  0.2124  1.0893  0.9628
  107SAPE  H17S11022   2.000   2.782   3.865  1.2555 -0.5240  1.6711
  107SAPE  C21811023   1.949   2.788   4.072 -0.5521 -0.2113  0.4264
  107SAPE  H18R11024   1.954   2.677   4.080  1.1681 -0.2152 -0.2546
  107SAPE  H18S11025   1.860   2.821   4.131 -0.3122 -0.4081  0.9080
  107SAPE  C21911026   2.082   2.849   4.125  0.2821 -0.4088 -0.9135
  107SAPE  H19R11027   2.079   2.959   4.111  0.3074 -0.5089 -1.7894
  107SAPE  H19S11028   2.156   2.808   4.054  0.4393  0.8452 -1.5034
  107SAPE  C22011029   2.109   2.809   4.275  0.4874  0.2509 -0.0296
  107SAPE  H20R11030   2.201   2.747   4.273  1.2596  1.3751 -1.2464
  107SAPE  H20S11031   2.021   2.753   4.313  0.1530  2.2647  2.3957
  107SAPE  H20T11032   2.123   2.893   4.347  1.2251 -1.6523  2.1549
  107SAPE   C3311033   0.550   3.309   2.758 -0.1429 -0.1867  0.3965
  107SAPE   H3X11034   0.460   3.262   2.711 -1.4964  0.3644  2.3032
  107SAPE   H3Y11035   0.513   3.402   2.806  1.2015  0.8147 -0.4415
  107SAPE   C3411036   0.621   3.235   2.868  0.1016  0.3553 -0.1737
  107SAPE   H4X11037   0.710   3.298   2.889 -0.0765  0.8468 -0.8489
  107SAPE   H4Y11038   0.666   3.141   2.829  0.5195  0.7540 -0.6807
  107SAPE   C3511039   0.532   3.212   2.988  0.1257  0.4907  0.1895
  107SAPE   H5X11040   0.463   3.127   2.967 -2.1282  2.0145  1.1940
  107SAPE   H5Y11041   0.491   3.311   3.015 -0.5919  0.4138 -0.5896
  107SAPE   C3611042   0.605   3.166   3.112  0.0640 -0.2618 -0.7034
  107SAPE   H6X11043   0.680   3.239   3.149 -0.3339 -0.0180 -0.3604
  107SAPE   H6Y11044   0.664   3.075   3.089 -3.5822 -2.2581 -3.3006
  107SAPE   C3711045   0.509   3.138   3.229  0.3599 -0.4037  0.3044
  107SAPE   H7X11046   0.458   3.045   3.196  0.8151 -0.5630  0.0416
  107SAPE   H7Y11047   0.433   3.219   3.232 -0.0731 -0.6571 -1.9826
  107SAPE   C3811048   0.584   3.119   3.360 -0.2459 -0.3730  0.2859
  107SAPE   H8X11049   0.631   3.217   3.382  1.1173 -0.3363 -2.4004
  107SAPE   H8Y11050   0.667   3.046   3.354  1.0051  0.8914  1.5204
  107SAPE   C3911051   0.480   3.080   3.469  0.3207  0.8053  0.0222
  107SAPE   H9X11052   0.469   2.969   3.465  1.7042  0.6147  0.7058
  107SAPE   H9Y11053   0.390   3.142   3.451 -0.1484 -0.2017 -1.2580
  107SAPE  C31011054   0.538   3.091   3.617 -0.2510  0.3675  0.4974
  107SAPE  H10X11055   0.558   3.198   3.640 -1.0745  0.7389 -0.4239
  107SAPE  H10Y11056   0.634   3.035   3.611  1.3535  3.0208 -0.5617
  107SAPE  C31111057   0.460   3.022   3.724 -0.4497 -0.5753 -0.1783
  107SAPE  H11X11058   0.481   2.913   3.720  0.9462 -0.2815 -2.3194
  107SAPE  H11Y11059   0.352   3.030   3.699 -0.5177 -1.5499 -0.2124
  107SAPE  C31211060   0.475   3.085   3.873 -0.0643  0.3101  0.1311
  107SAPE  H12X11061   0.494   3.194   3.867  0.7009  0.1247 -1.1754
  107SAPE  H12Y11062   0.566   3.024   3.891 -0.8415 -1.1957 -0.8328
  107SAPE  C31311063   0.358   3.041   3.963 -0.3634 -0.2268  0.2777
  107SAPE  H13X11064   0.342   2.931   3.954  0.2936 -0.2311 -0.9344
  107SAPE  H13Y11065   0.263   3.087   3.927  0.4108  1.8605  0.7552
  107SAPE  C31411066   0.374   3.096   4.110  0.0783 -0.2688  0.1176
  107SAPE  H14X11067   0.279   3.076   4.165 -0.0207 -0.2441 -0.0444
  107SAPE  H14Y11068   0.392   3.206   4.112 -1.0952 -0.0630  0.8925
  107SAPE  C31511069   0.481   3.022   4.194  0.0893  0.2004  0.7044
  107SAPE  H15X11070   0.575   3.022   4.134 -0.7013 -0.0679 -0.5612
  107SAPE  H15Y11071   0.456   2.916   4.214  1.6999 -0.3825 -0.1454
  107SAPE  C31611072   0.520   3.094   4.325 -0.5020 -0.3445  0.4819
  107SAPE  H16X11073   0.566   3.190   4.295  0.5233 -1.3115 -1.1881
  107SAPE  H16Y11074   0.590   3.022   4.373  1.4217  1.5875  0.7682
  107SAPE  C31711075   0.400   3.124   4.405 -0.3418  0.4465  0.0400
  107SAPE  H17X11076   0.345   3.213   4.367  1.4909  1.6575  0.1415
  107SAPE  H17Y11077   0.444   3.169   4.496  1.5798 -0.0380 -0.5981
  107SAPE  C31811078   0.308   3.010   4.441  0.5133  0.0031  0.0889
  107SAPE  H18X11079   0.245   3.044   4.527  2.2834  0.7439  1.1472
  107SAPE  H18Y11080   0.358   2.915   4.467  0.7806  0.9153  3.3092
  107SAPE  H18Z11081   0.237   2.987   4.358 -0.7760  1.6413  0.6696
  108SAPE     N11082   4.992   4.815   2.437  0.0921  0.3384 -0.2107
  108SAPE   HN111083   4.949   4.909   2.426  0.3210  1.2671  4.5596
  108SAPE   HN211084   5.014   4.805   2.538  2.2580  0.3833 -0.6476
  108SAPE   HN311085   5.084   4.803   2.390 -0.0229 -2.0446  0.0323
  108SAPE   C1211086   4.912   4.695   2.398 -0.2624  0.4799  0.2894
  108SAPE  H12A11087   4.988   4.614   2.393 -0.8561 -0.1277  0.8186
  108SAPE  H12B11088   4.874   4.720   2.296  1.7593  1.3171 -0.2954
  108SAPE   C1111089   4.808   4.665   2.500  0.3187  0.0993  0.3592
  108SAPE  H11A11090   4.853   4.688   2.599  2.6281  1.5259 -0.9252
  108SAPE  H11B11091   4.793   4.555   2.497  0.3614  0.1082 -0.4585
  108SAPE     P11092   4.567   4.715   2.394  0.3603  0.3662  0.5774
  108SAPE   O1311093   4.487   4.838   2.375 -0.0701  0.1289  0.3246
  108SAPE   O1411094   4.607   4.644   2.269  0.1729 -0.2262 -0.1147
  108SAPE   O1211095   4.699   4.752   2.476 -0.9607 -0.6614  0.2982
  108SAPE   O1111096   4.487   4.615   2.488 -0.0335 -0.4761 -0.0920
  108SAPE    C111097   4.450   4.653   2.621  0.2198 -0.0023  0.6766
  108SAPE    HA11098   4.536   4.706   2.667  0.5111  0.9931 -0.9436
  108SAPE    HB11099   4.353   4.706   2.629 -0.0582 -0.7721  2.9842
  108SAPE    C211100   4.438   4.527   2.699  0.2276  0.7423  0.4081
  108SAPE    HS11101   4.355   4.477   2.644  2.1323  1.7344 -3.7297
  108SAPE   O2111102   4.395   4.563   2.833  0.5186  0.4766  0.2899
  108SAPE   C2111103   4.324   4.466   2.889 -0.2436 -1.3405 -0.0421
  108SAPE   O2211104   4.302   4.356   2.844 -0.5819  0.2151 -0.4313
  108SAPE   C2211105   4.259   4.514   3.019 -0.0776 -0.5420 -0.0060
  108SAPE   H2R11106   4.184   4.439   3.052 -0.3409 -0.5726 -0.6488
  108SAPE   H2S11107   4.337   4.527   3.097  1.0112 -2.0351 -0.7891
  108SAPE    C311108   4.568   4.437   2.694 -0.0976  0.2389 -0.3715
  108SAPE    HX11109   4.572   4.402   2.589 -3.3727 -1.8528  0.0357
  108SAPE    HY11110   4.553   4.348   2.759  0.2545  0.7938  0.4826
  108SAPE   O3111111   4.685   4.511   2.723  0.7575 -0.1993 -0.1731
  108SAPE   C3111112   4.729   4.497   2.848 -0.0461 -0.5162 -0.1634
  108SAPE   O3211113   4.662   4.458   2.941 -0.3969 -0.0688 -0.0967
  108SAPE   C3211114   4.882   4.521   2.848  0.9072  0.3748  0.0382
  108SAPE   H2X11115   4.886   4.632   2.852 -3.3883  0.6916  0.8113
  108SAPE   H2Y11116   4.930   4.473   2.760 -1.3265 -0.7882 -0.6458
  108SAPE   C2311117   4.178   4.648   3.017 -0.3184  0.1442 -0.4743
  108SAPE   H3R11118   4.086   4.641   2.954 -0.4223  2.9538 -0.7848
  108SAPE   H3S11119   4.243   4.720   2.963 -1.8920  1.7123 -0.3726
  108SAPE   C2411120   4.130   4.708   3.157  0.2576 -0.1272  0.3166
  108SAPE   H4R11121   4.096   4.812   3.138  1.7479  0.5254  1.0816
  108SAPE   H4S11122   4.231   4.732   3.196  0.2433 -0.3903  0.5154
  108SAPE   C2511123   4.033   4.618   3.222 -0.5096  0.6550  0.9225
  108SAPE   H5R11124   3.943   4.596   3.163  0.1718 -0.8965  0.3867
  108SAPE   C2611125   4.055   4.558   3.340  0.0736  0.5821  0.2151
  108SAPE   H6R11126   3.964   4.509   3.379 -1.1147  1.4024 -1.4130
  108SAPE   C2711127   4.170   4.584   3.430 -0.1425 -0.5336 -0.7446
  108SAPE   H7R11128   4.136   4.668   3.495 -1.0842 -1.6878  0.3181
  108SAPE   H7S11129   4.262   4.615   3.378  1.0084 -1.3139  0.7363
  108SAPE   C2811130   4.206   4.472   3.524 -0.1075 -1.1962 -0.1381
  108SAPE   H8R11131   4.281   4.402   3.486  1.7764  1.0396 -0.7468
  108SAPE   C2911132   4.199   4.475   3.662 -0.6596  0.2832  0.3400
  108SAPE   H9R11133   4.230   4.381   3.710 -2.9435 -0.8782 -0.3195
  108SAPE  C21011134   4.128   4.581   3.745 -0.2341  0.4303 -0.5446
  108SAPE  H10R11135   4.082   4.524   3.829  2.4369  0.2959  0.9304
  108SAPE  H10S11136   4.046   4.633   3.690  2.2092  0.6955 -4.2565
  108SAPE  C21111137   4.224   4.692   3.783 -0.4994  0.6103  0.0410
  108SAPE  H11R11138   4.313   4.689   3.719  0.3066  1.3135  1.1042
  108SAPE  C21211139   4.212   4.786   3.880 -0.4849  0.1382 -0.6017
  108SAPE  H12R11140   4.291   4.854   3.914 -1.9348  1.0786  1.0766
  108SAPE  C21311141   4.086   4.810   3.955 -0.3374  0.2321 -0.3858
  108SAPE  H13R11142   4.113   4.812   4.063 -0.3801  3.7049 -0.3250
  108SAPE  H13S11143   4.023   4.719   3.948  2.8432 -2.3624  1.8598
  108SAPE  C21411144   4.005   4.929   3.905 -0.6602 -0.2193  0.2092
  108SAPE  H14R11145   4.027   4.958   3.801 -1.1478  0.0814  0.1837
  108SAPE  C21511146   3.919   4.992   3.983  0.1799 -0.3590 -0.4951
  108SAPE  H15R11147   3.859   5.073   3.940 -1.1500  0.3907  2.5453
  108SAPE  C21611148   3.888   4.946   4.123  0.5449 -0.0795 -0.0691
  108SAPE  H16R11149   3.905   4.837   4.131  0.8502 -0.0162  0.1476
  108SAPE  H16S11150   3.779   4.959   4.141  0.4977  1.6577 -1.3359
  108SAPE  C21711151   3.968   5.039   4.216  0.2655  0.0783 -0.2094
  108SAPE  H17R11152   3.953   5.147   4.194 -0.5059  0.6141  2.4911
  108SAPE  H17S11153   4.078   5.022   4.213  0.5847  1.4438  1.7405
  108SAPE  C21811154   3.917   5.021   4.365  0.5496  0.1781 -0.3637
  108SAPE  H18R11155   3.807   5.032   4.361  0.4190 -1.1592 -2.0772
  108SAPE  H18S11156   3.965   5.096   4.431 -0.2005 -0.2543  0.6884
  108SAPE  C21911157   3.943   4.881   4.424 -0.0333  0.0439  0.2865
  108SAPE  H19R11158   4.051   4.860   4.408  0.0214  1.1304 -1.0030
  108SAPE  H19S11159   3.886   4.812   4.357 -1.1841  0.6285  0.6289
  108SAPE  C22011160   3.899   4.856   4.570 -0.2598  0.4975 -0.0545
  108SAPE  H20R11161   3.925   4.754   4.604 -0.7521  0.3732 -0.0436
  108SAPE  H20S11162   3.789   4.872   4.576 -0.2612  0.3804  0.2367
  108SAPE  H20T11163   3.944   4.929   4.640  1.1295 -2.0031  1.8118
  108SAPE   C3311164   4.952   4.486   2.978 -0.5355  0.6874  0.1006
  108SAPE   H3X11165   4.899   4.511   3.073 -0.7586  1.6240 -0.2681
  108SAPE   H3Y11166   5.054   4.528   2.991  0.2701 -1.2237  0.3528
  108SAPE   C3411167   4.972   4.331   2.994 -0.0222 -0.0816 -0.6763
  108SAPE   H4X11168   5.029   4.284   2.911 -2.0650 -0.0801 -2.1546
  108SAPE   H4Y11169   4.877   4.274   2.992  0.6625 -1.5575  2.7404
  108SAPE   C3511170   5.034   4.294   3.129  0.6218  0.3264 -0.1152
  108SAPE   H5X11171   5.135   4.339   3.144  0.2006  2.2079 -2.3772
  108SAPE   H5Y11172   4.964   4.331   3.206  0.5910 -0.6497  0.3436
  108SAPE   C3611173   5.052   4.144   3.168  0.7951 -0.1673  0.6508
  108SAPE   H6X11174   5.093   4.085   3.084  1.9910  0.2115  0.9422
  108SAPE   H6Y11175   4.949   4.104   3.184  1.1073 -1.0588  0.4502
  108SAPE   C3711176   5.139   4.135   3.291  0.8655  0.1263 -0.9264
  108SAPE   H7X11177   5.233   4.190   3.271  1.2575  1.5833  3.6562
  108SAPE   H7Y11178   5.160   4.027   3.307 -0.5184 -0.1372 -0.7538
  108SAPE   C3811179   5.066   4.173   3.425 -0.1688 -0.0557  0.3849
  108SAPE   H8X11180   4.960   4.164   3.395  0.2595  1.9658 -2.1212
  108SAPE   H8Y11181   5.080   4.283   3.439  2.8634 -0.5215  1.8747
  108SAPE   C3911182   5.108   4.088   3.541 -0.2743 -0.0761 -0.3608
  108SAPE   H9X11183   5.218   4.100   3.550 -0.5930  0.9059  4.7811
  108SAPE   H9Y11184   5.083   3.980   3.527 -1.4715  0.0626  0.5888
  108SAPE  C31011185   5.048   4.145   3.667  0.6459 -0.4499 -0.1070
  108SAPE  H10X11186   4.944   4.177   3.645  0.7697  0.8479  1.0105
  108SAPE  H10Y11187   5.095   4.243   3.690 -1.8237  1.4795 -2.6766
  108SAPE  C31111188   5.069   4.061   3.800  1.7959  0.1200  0.3304
  108SAPE  H11X11189   5.177   4.055   3.823  1.9632 -1.1248 -0.6313
  108SAPE  H11Y11190   5.032   3.958   3.778 -1.7533  1.4230 -0.5891
  108SAPE  C31211191   4.990   4.113   3.924  0.6309  0.6228 -0.0122
  108SAPE  H12X11192   4.888   4.135   3.886  0.7985  0.5811 -0.4899
  108SAPE  H12Y11193   5.034   4.206   3.968 -1.0459  0.7276  1.5805
  108SAPE  C31311194   4.985   3.998   4.029 -0.3067 -0.6246  0.2129
  108SAPE  H13X11195   5.089   3.972   4.055  0.1001  0.9920  0.3218
  108SAPE  H13Y11196   4.934   3.911   3.983  0.3698 -0.9489  0.0678
  108SAPE  C31411197   4.913   4.052   4.154  0.0540 -0.1042  0.3343
  108SAPE  H14X11198   4.802   4.057   4.144  0.1206  0.2680 -0.2377
  108SAPE  H14Y11199   4.947   4.152   4.189 -0.7664  0.1495  0.4355
  108SAPE  C31511200   4.930   3.960   4.272 -0.5953  0.3095 -0.2662
  108SAPE  H15X11201   5.032   3.981   4.312 -0.6353  1.4669 -0.7323
  108SAPE  H15Y11202   4.934   3.855   4.236  2.1565  0.4515 -0.6082
  108SAPE  C31611203   4.826   3.979   4.387 -0.4074 -0.1853 -0.1674
  108SAPE  H16X11204   4.817   3.884   4.443  0.8721 -1.1606 -1.5293
  108SAPE  H16Y11205   4.731   4.008   4.338  0.1303 -0.2434 -1.2845
  108SAPE  C31711206   4.865   4.083   4.494 -0.7245 -0.4601  0.6939
  108SAPE  H17X11207   4.776   4.093   4.559 -0.7766 -0.4176  0.6163
  108SAPE  H17Y11208   4.873   4.186   4.454  0.0448 -0.1659  1.5568
  108SAPE  C31811209   4.991   4.055   4.573  0.1236  0.1650  0.2414
  108SAPE  H18X11210   5.085   4.052   4.512  0.3460  0.0980  0.5865
  108SAPE  H18Y11211   4.981   3.956   4.621  1.5203 -1.2903 -2.2235
  108SAPE  H18Z11212   5.004   4.138   4.646  1.0498 -0.3512  0.6793
  109SAPE     N11213   1.649   0.469   2.245 -0.0503 -0.1852 -0.6052
  109SAPE   HN111214   1.668   0.550   2.184 -0.2821 -1.1391 -1.9996
  109SAPE   HN211215   1.696   0.385   2.203 -0.5456 -1.0644  0.5490
  109SAPE   HN311216   1.547   0.450   2.246 -0.4643  1.9150 -0.2620
  109SAPE   C1211217   1.714   0.496   2.380  0.4159  0.1965 -0.0943
  109SAPE  H12A11218   1.824   0.495   2.366  0.3223  0.9305 -1.0461
  109SAPE  H12B11219   1.681   0.419   2.453  0.7002 -1.6606 -1.8082
  109SAPE   C1111220   1.679   0.639   2.416 -0.0274 -0.2750  0.8733
  109SAPE  H11A11221   1.709   0.661   2.521  0.8674  1.8556  0.2325
  109SAPE  H11B11222   1.572   0.662   2.401  0.3751  1.7078  0.7146
  109SAPE     P11223   1.713   0.812   2.204 -0.0940 -0.1657 -0.2166
  109SAPE   O1311224   1.829   0.868   2.136 -0.3567  0.2446  0.0786
  109SAPE   O1411225   1.628   0.717   2.123  0.1943 -0.0484 -0.0420
  109SAPE   O1211226   1.758   0.734   2.333 -0.6864  0.2457 -0.4862
  109SAPE   O1111227   1.614   0.925   2.258  0.7180  1.0248  0.0965
  109SAPE    C111228   1.662   1.037   2.327  0.4699  0.4219  0.1067
  109SAPE    HA11229   1.745   1.005   2.394  1.0030 -0.7092 -1.0501
  109SAPE    HB11230   1.692   1.117   2.257 -0.5920  0.7331 -0.0077
  109SAPE    C211231   1.562   1.096   2.432 -0.1761  0.2408 -0.6082
  109SAPE    HS11232   1.609   1.160   2.510 -1.1317 -0.8152  0.8953
  109SAPE   O2111233   1.482   1.002   2.501 -0.4147  0.1239 -0.5239
  109SAPE   C2111234   1.555   0.927   2.588  0.0423  0.2407 -0.0479
  109SAPE   O2211235   1.675   0.934   2.605  0.1861 -0.2843  0.4822
  109SAPE   C2211236   1.461   0.838   2.669  0.5438  0.2137  0.1182
  109SAPE   H2R11237   1.374   0.901   2.698  1.0173  0.2866  1.4423
  109SAPE   H2S11238   1.428   0.749   2.610 -1.1435  0.2379  0.9805
  109SAPE    C311239   1.461   1.195   2.366  0.3891 -0.3940  0.2454
  109SAPE    HX11240   1.415   1.139   2.282  0.7795 -0.7355  0.2595
  109SAPE    HY11241   1.511   1.274   2.306  0.9179 -0.5485  0.4777
  109SAPE   O3111242   1.360   1.252   2.458 -0.2189 -0.2420 -0.1683
  109SAPE   C3111243   1.406   1.354   2.530  0.0637 -0.0033 -0.1692
  109SAPE   O3211244   1.502   1.425   2.503  0.3669  0.0392 -0.0937
  109SAPE   C3211245   1.306   1.397   2.638  0.2484 -0.7234  0.0360
  109SAPE   H2X11246   1.207   1.356   2.610 -0.0684  0.7495 -1.1495
  109SAPE   H2Y11247   1.311   1.508   2.636  1.1007 -0.7637 -0.2440
  109SAPE   C2311248   1.531   0.767   2.787  0.1934  0.3770  0.3184
  109SAPE   H3R11249   1.581   0.842   2.852 -0.9945  1.7797 -0.3325
  109SAPE   H3S11250   1.622   0.720   2.746 -0.5545  1.5277 -2.9452
  109SAPE   C2411251   1.444   0.674   2.872  0.6032  0.4797 -0.2886
  109SAPE   H4R11252   1.500   0.668   2.967 -1.1332 -0.7856  0.7171
  109SAPE   H4S11253   1.442   0.573   2.825  1.0858 -0.3280  1.3643
  109SAPE   C2511254   1.303   0.731   2.887  0.2508  0.8916 -0.3509
  109SAPE   H5R11255   1.232   0.756   2.806  0.6064  0.8072 -0.6921
  109SAPE   C2611256   1.246   0.765   3.008  0.6933  0.0660  0.2151
  109SAPE   H6R11257   1.140   0.790   3.023  0.5709 -1.6392  2.8434
  109SAPE   C2711258   1.327   0.774   3.131 -0.4443 -0.1176 -0.0143
  109SAPE   H7R11259   1.430   0.734   3.126 -1.2159 -2.1045 -1.2303
  109SAPE   H7S11260   1.276   0.710   3.205 -2.0627  0.0930 -0.8860
  109SAPE   C2811261   1.344   0.909   3.189 -0.2841  0.6500 -0.6631
  109SAPE   H8R11262   1.441   0.958   3.176 -0.2562  0.4280 -1.3029
  109SAPE   C2911263   1.251   0.977   3.262 -0.6565  0.4797  0.0229
  109SAPE   H9R11264   1.275   1.080   3.291 -0.6991  0.6823 -0.6390
  109SAPE  C21011265   1.108   0.932   3.283  0.5098  0.4815 -0.4119
  109SAPE  H10R11266   1.111   0.848   3.356 -0.4729 -0.1084 -1.0344
  109SAPE  H10S11267   1.069   0.894   3.187 -2.2776  0.9885  0.4477
  109SAPE  C21111268   1.011   1.050   3.313  0.0409  0.3889  0.8853
  109SAPE  H11R11269   0.942   1.078   3.233 -0.1115 -1.2974  0.4082
  109SAPE  C21211270   1.012   1.127   3.425  0.1406 -0.8928  0.0707
  109SAPE  H12R11271   0.937   1.205   3.440  0.2849 -0.8246  0.4453
  109SAPE  C21311272   1.099   1.108   3.544  0.3926 -0.0011 -0.1293
  109SAPE  H13R11273   1.077   1.185   3.621  2.1661 -0.8828  1.3432
  109SAPE  H13S11274   1.199   1.136   3.506  1.3891 -0.4007  2.0312
  109SAPE  C21411275   1.097   0.979   3.613 -0.5645  0.2239  0.3744
  109SAPE  H14R11276   1.033   0.900   3.572 -1.1925  0.3233  1.1527
  109SAPE  C21511277   1.181   0.929   3.710  0.5789 -1.1436 -0.3160
  109SAPE  H15R11278   1.162   0.832   3.759  2.7417 -0.8846  1.2104
  109SAPE  C21611279   1.302   0.994   3.775 -0.3104 -0.6415  0.0195
  109SAPE  H16R11280   1.348   1.057   3.695  1.3051 -0.3761  1.1180
  109SAPE  H16S11281   1.382   0.919   3.788 -0.1130 -0.5997 -0.8793
  109SAPE  C21711282   1.281   1.074   3.902  0.0468  0.0646  0.5283
  109SAPE  H17R11283   1.222   1.161   3.868 -0.3977 -0.1590  0.7149
  109SAPE  H17S11284   1.381   1.108   3.935 -0.6849  2.7351  0.2233
  109SAPE  C21811285   1.225   1.002   4.034  0.5760  0.0984 -0.3311
  109SAPE  H18R11286   1.295   0.916   4.041  2.1863  1.2603 -1.5285
  109SAPE  H18S11287   1.124   0.959   4.012 -1.0348  2.8532  1.2018
  109SAPE  C21911288   1.202   1.084   4.164 -0.4038  1.0316 -0.0855
  109SAPE  H19R11289   1.112   1.042   4.213  1.3109 -2.1031  0.6257
  109SAPE  H19S11290   1.190   1.192   4.137  0.8578  1.2570  0.1827
  109SAPE  C22011291   1.325   1.068   4.250 -0.4770 -0.4424  0.7028
  109SAPE  H20R11292   1.415   1.086   4.188 -0.1318 -2.2207  0.6326
  109SAPE  H20S11293   1.348   0.962   4.275 -1.8001 -0.7258  0.8024
  109SAPE  H20T11294   1.326   1.129   4.343 -3.0424 -0.0812  0.5918
  109SAPE   C3311295   1.349   1.352   2.785 -0.4963 -0.2679 -0.0622
  109SAPE   H3X11296   1.447   1.400   2.806 -0.9777  0.7468 -0.0747
  109SAPE   H3Y11297   1.359   1.243   2.801 -0.4841 -0.1554  0.7457
  109SAPE   C3411298   1.260   1.399   2.902 -0.6967  0.4098  0.3304
  109SAPE   H4X11299   1.165   1.344   2.884 -0.2390 -0.5976  0.9128
  109SAPE   H4Y11300   1.249   1.509   2.903 -0.2580  0.4851 -0.8822
  109SAPE   C3511301   1.327   1.354   3.031  0.3032 -0.3908  0.2475
  109SAPE   H5X11302   1.435   1.379   3.033  0.4796 -1.1240  1.7555
  109SAPE   H5Y11303   1.314   1.244   3.038  2.1476 -0.5615  2.2941
  109SAPE   C3611304   1.261   1.415   3.155  0.2426  0.1971 -0.4391
  109SAPE   H6X11305   1.166   1.359   3.169  0.7182 -1.1137 -2.0788
  109SAPE   H6Y11306   1.238   1.523   3.143 -0.8502  0.0114 -0.1183
  109SAPE   C3711307   1.337   1.389   3.286 -0.4295  0.2823 -0.2072
  109SAPE   H7X11308   1.419   1.463   3.279 -0.5681  0.4226 -0.3576
  109SAPE   H7Y11309   1.368   1.282   3.281 -0.4992  0.2202  0.5727
  109SAPE   C3811310   1.261   1.423   3.413  0.2443  0.5865  0.5489
  109SAPE   H8X11311   1.173   1.365   3.448  0.3794  0.1900  0.2426
  109SAPE   H8Y11312   1.224   1.526   3.396  2.6823  1.4077 -0.2285
  109SAPE   C3911313   1.359   1.418   3.534  0.0517  0.3561  0.3110
  109SAPE   H9X11314   1.449   1.475   3.501  0.4994 -0.1496  0.6316
  109SAPE   H9Y11315   1.389   1.315   3.564 -0.9122  0.2427  0.9288
  109SAPE  C31011316   1.289   1.486   3.656 -0.0964 -0.0228 -0.3523
  109SAPE  H10X11317   1.187   1.451   3.683  0.4368 -2.1395 -0.8765
  109SAPE  H10Y11318   1.265   1.589   3.622 -1.0209 -0.2008 -0.2668
  109SAPE  C31111319   1.360   1.472   3.783  0.4702  0.5326 -0.2005
  109SAPE  H11X11320   1.420   1.566   3.783  0.3728  0.6168 -1.7289
  109SAPE  H11Y11321   1.430   1.385   3.785  0.6463  0.6695 -0.4025
  109SAPE  C31211322   1.266   1.474   3.908 -0.9098  0.6266 -0.1285
  109SAPE  H12X11323   1.195   1.389   3.903  2.1640 -2.0929 -2.4935
  109SAPE  H12Y11324   1.212   1.571   3.909 -2.8097 -0.3882 -0.0588
  109SAPE  C31311325   1.354   1.477   4.039  0.2354 -0.5747  0.0780
  109SAPE  H13X11326   1.441   1.545   4.030 -1.2299  1.3627 -0.1471
  109SAPE  H13Y11327   1.386   1.371   4.042 -0.0783 -0.8787 -3.4837
  109SAPE  C31411328   1.285   1.503   4.175  1.0941 -0.4678  0.4062
  109SAPE  H14X11329   1.212   1.421   4.189  0.0574  0.6256  1.5841
  109SAPE  H14Y11330   1.248   1.608   4.176  2.6005  0.0992  2.6093
  109SAPE  C31511331   1.382   1.490   4.294 -0.5183  0.4055  0.3985
  109SAPE  H15X11332   1.478   1.542   4.278  0.2559 -1.1951 -0.4345
  109SAPE  H15Y11333   1.408   1.382   4.300 -0.2124  0.4955  0.6733
  109SAPE  C31611334   1.314   1.541   4.424 -0.1824 -0.4996  0.4064
  109SAPE  H16X11335   1.218   1.493   4.454 -1.6379  1.9247 -0.0909
  109SAPE  H16Y11336   1.305   1.651   4.410  0.5022 -0.6712 -1.6468
  109SAPE  C31711337   1.406   1.520   4.546  0.4301 -0.5813 -0.1263
  109SAPE  H17X11338   1.510   1.555   4.529 -0.4298  1.0445 -2.6257
  109SAPE  H17Y11339   1.412   1.410   4.561 -0.9221 -0.6081  0.3705
  109SAPE  C31811340   1.344   1.586   4.667 -0.3312 -0.3321 -0.5273
  109SAPE  H18X11341   1.240   1.549   4.681  0.3739 -2.1029  0.4209
  109SAPE  H18Y11342   1.347   1.693   4.638  0.0427 -0.4592 -0.9779
  109SAPE  H18Z11343   1.414   1.564   4.751 -0.6148  1.1789  0.1273
  110SAPE     N11344   5.804   4.746   2.495 -0.0430  0.5300 -0.4403
  110SAPE   HN111345   5.906   4.764   2.485  1.0275 -4.1195  0.0235
  110SAPE   HN211346   5.770   4.691   2.414 -1.2355  2.1513 -1.1131
  110SAPE   HN311347   5.741   4.827   2.513 -1.4496 -0.8623  1.2426
  110SAPE   C1211348   5.807   4.653   2.625  0.4137 -0.2559  0.7513
  110SAPE  H12A11349   5.737   4.570   2.600  0.7415 -0.1793 -0.5047
  110SAPE  H12B11350   5.768   4.719   2.706 -0.0956 -0.0935  0.3777
  110SAPE   C1111351   5.950   4.622   2.664 -0.6411 -0.0788 -0.2765
  110SAPE  H11A11352   5.928   4.578   2.763 -1.0285 -1.3103 -0.8900
  110SAPE  H11B11353   6.011   4.713   2.681  2.5711 -2.3607  1.4669
  110SAPE     P11354   6.139   4.451   2.633 -0.4496  0.1420  0.1306
  110SAPE   O1311355   6.090   4.328   2.692 -0.0120 -0.0012 -0.4022
  110SAPE   O1411356   6.241   4.427   2.529 -0.5058 -0.3399 -0.0285
  110SAPE   O1211357   6.019   4.536   2.576 -0.1145 -0.8681  0.0321
  110SAPE   O1111358   6.199   4.543   2.748  0.6441 -0.5906 -0.2711
  110SAPE    C111359   6.302   4.647   2.730 -0.2240  0.7753  0.1350
  110SAPE    HA11360   6.304   4.680   2.624  0.6131  0.0629 -0.0811
  110SAPE    HB11361   6.279   4.731   2.799 -1.3317  0.1958  0.5053
  110SAPE    C211362   6.444   4.593   2.758 -0.3124 -0.2554 -0.3901
  110SAPE    HS11363   6.454   4.502   2.695 -1.6417  0.9340 -2.4199
  110SAPE   O2111364   6.457   4.567   2.909  0.4738 -0.0748  0.3926
  110SAPE   C2111365   6.575   4.508   2.935 -0.3368 -0.0415 -0.5720
  110SAPE   O2211366   6.663   4.472   2.856  0.2233  0.4109 -0.1945
  110SAPE   C2211367   6.592   4.509   3.086  0.0188 -0.0370 -0.3679
  110SAPE   H2R11368   6.654   4.600   3.101 -0.7824  0.4065  0.4172
  110SAPE   H2S11369   6.490   4.526   3.128 -1.2500 -0.5118 -3.0955
  110SAPE    C311370   6.542   4.702   2.710 -0.2569  0.4606  0.1569
  110SAPE    HX11371   6.643   4.656   2.719 -0.0981  0.7851  0.0443
  110SAPE    HY11372   6.525   4.721   2.602  1.3818 -1.0100 -0.4208
  110SAPE   O3111373   6.528   4.822   2.794 -1.0291  0.0418  0.0803
  110SAPE   C3111374   6.613   4.921   2.762 -0.4937  0.0524 -0.5216
  110SAPE   O3211375   6.695   4.925   2.672 -0.1289 -0.0780 -0.4043
  110SAPE   C3211376   6.601   5.026   2.875 -0.0762 -0.5370 -0.0406
  110SAPE   H2X11377   6.546   4.988   2.963 -1.5312  1.4677 -0.0057
  110SAPE   H2Y11378   6.546   5.112   2.832  0.6862 -0.3604 -0.6876
  110SAPE   C2311379   6.673   4.395   3.150  0.3838  0.9129 -0.3530
  110SAPE   H3R11380   6.781   4.410   3.127  0.1797  0.3422 -1.7595
  110SAPE   H3S11381   6.627   4.303   3.108 -0.9443  0.7087  1.4108
  110SAPE   C2411382   6.663   4.398   3.304 -0.0216 -0.2989 -0.9421
  110SAPE   H4R11383   6.558   4.422   3.330  0.2239 -0.8278  0.6621
  110SAPE   H4S11384   6.717   4.491   3.332  0.8612 -0.8460 -0.7828
  110SAPE   C2511385   6.707   4.272   3.378 -0.6486 -0.6281  0.6499
  110SAPE   H5R11386   6.739   4.186   3.317  0.1863 -1.6631  2.4585
  110SAPE   C2611387   6.715   4.259   3.511  0.3228 -0.4061  0.0442
  110SAPE   H6R11388   6.745   4.161   3.550 -1.8436 -0.8790  0.6664
  110SAPE   C2711389   6.671   4.368   3.608  0.3532  0.0965 -0.6988
  110SAPE   H7R11390   6.665   4.472   3.569  0.0305  0.8679  1.2671
  110SAPE   H7S11391   6.740   4.372   3.695  0.2487  1.5839 -0.6488
  110SAPE   C2811392   6.529   4.349   3.663  1.0426 -0.8243 -0.1949
  110SAPE   H8R11393   6.442   4.360   3.597 -0.1553 -3.5630  0.7908
  110SAPE   C2911394   6.494   4.333   3.796 -0.2077 -0.5439  0.0824
  110SAPE   H9R11395   6.387   4.313   3.811 -1.0921  3.0002 -0.5462
  110SAPE  C21011396   6.574   4.319   3.920  0.7460  0.4152 -0.2976
  110SAPE  H10R11397   6.596   4.419   3.963  1.1923  0.7345 -1.2523
  110SAPE  H10S11398   6.673   4.275   3.897 -0.4450 -2.0728 -0.9458
  110SAPE  C21111399   6.493   4.231   4.014  0.0006  0.0096 -0.3609
  110SAPE  H11R11400   6.444   4.142   3.971 -1.5398  0.3515  0.6163
  110SAPE  C21211401   6.468   4.240   4.145  0.5213 -0.4224  0.6820
  110SAPE  H12R11402   6.397   4.163   4.178  1.0227 -1.7563 -1.1736
  110SAPE  C21311403   6.520   4.358   4.229  0.1515  0.6145 -0.2965
  110SAPE  H13R11404   6.454   4.447   4.227 -0.7686 -0.0570 -1.0016
  110SAPE  H13S11405   6.615   4.389   4.183  1.3343 -1.2977  0.7165
  110SAPE  C21411406   6.544   4.333   4.372 -0.1398 -0.0040 -0.0029
  110SAPE  H14R11407   6.651   4.332   4.398 -0.2997  0.7307  0.7005
  110SAPE  C21511408   6.458   4.288   4.464  0.8118 -0.1735  0.4239
  110SAPE  H15R11409   6.504   4.263   4.561  0.6499  0.3866  0.6500
  110SAPE  C21611410   6.312   4.253   4.468  0.3438  0.0372  0.2161
  110SAPE  H16R11411   6.298   4.144   4.452  0.2409  0.1983 -0.8706
  110SAPE  H16S11412   6.269   4.294   4.374  0.1744  0.4755  0.4817
  110SAPE  C21711413   6.234   4.288   4.585 -0.7574 -0.4352  0.2610
  110SAPE  H17R11414   6.278   4.260   4.683  0.2170  2.3465  0.7172
  110SAPE  H17S11415   6.142   4.226   4.583 -0.6187 -0.7695  2.0466
  110SAPE  C21811416   6.196   4.440   4.600 -0.0541  0.9581 -0.5643
  110SAPE  H18R11417   6.147   4.480   4.508 -0.1113  0.6673 -0.6604
  110SAPE  H18S11418   6.292   4.493   4.617 -0.0745  0.6458  0.6383
  110SAPE  C21911419   6.111   4.458   4.722 -0.4699 -0.2168 -0.4092
  110SAPE  H19R11420   6.146   4.402   4.811  0.6981 -0.5002 -1.0275
  110SAPE  H19S11421   6.005   4.432   4.702 -0.3271 -0.7991 -0.4151
  110SAPE  C22011422   6.099   4.605   4.757  0.3296  0.3497 -0.2208
  110SAPE  H20R11423   6.182   4.662   4.803 -0.3862  1.6899 -0.5652
  110SAPE  H20S11424   6.018   4.616   4.831  0.3217  1.8227 -0.4353
  110SAPE  H20T11425   6.054   4.655   4.668  0.2474 -1.4638 -1.2667
  110SAPE   C3311426   6.741   5.066   2.933 -0.2800  0.2371  0.0078
  110SAPE   H3X11427   6.725   5.156   2.996 -1.8352 -0.8666  1.2740
  110SAPE   H3Y11428   6.801   5.105   2.848  0.0455  0.6181  0.4060
  110SAPE   C3411429   6.801   4.950   3.021 -0.1085  0.9298  0.6523
  110SAPE   H4X11430   6.902   4.974   3.058  0.3889  3.3040 -1.9407
  110SAPE   H4Y11431   6.801   4.859   2.957 -0.9244  0.8083  0.8099
  110SAPE   C3511432   6.725   4.928   3.150  0.0848 -0.1323  0.4223
  110SAPE   H5X11433   6.617   4.901   3.139 -0.1662  0.6553  0.8570
  110SAPE   H5Y11434   6.726   5.028   3.199  0.8902  1.0837 -1.9486
  110SAPE   C3611435   6.801   4.828   3.234 -0.0704 -0.5187 -0.4949
  110SAPE   H6X11436   6.903   4.870   3.247 -0.6653  1.4723 -1.6846
  110SAPE   H6Y11437   6.803   4.732   3.179  0.6811 -0.2686 -0.9297
  110SAPE   C3711438   6.742   4.796   3.372 -0.5657  0.1762 -0.1954
  110SAPE   H7X11439   6.809   4.730   3.431 -0.9100  0.5803  0.6699
  110SAPE   H7Y11440   6.646   4.741   3.357  0.4704 -1.7370 -0.0191
  110SAPE   C3811441   6.715   4.920   3.460 -0.1117  0.1208 -0.6547
  110SAPE   H8X11442   6.626   4.965   3.411 -1.2177 -0.0042  1.1127
  110SAPE   H8Y11443   6.797   4.994   3.459 -0.0484  0.0828  0.4003
  110SAPE   C3911444   6.689   4.893   3.612  1.1284 -0.3471  0.0694
  110SAPE   H9X11445   6.592   4.846   3.637  2.1855 -2.2426  0.7997
  110SAPE   H9Y11446   6.678   4.993   3.660  0.1258 -0.9322  1.1203
  110SAPE  C31011447   6.791   4.801   3.678 -0.6092  0.0989  0.3109
  110SAPE  H10X11448   6.891   4.820   3.633 -0.9865  0.3170 -0.4482
  110SAPE  H10Y11449   6.785   4.692   3.654  2.8074  0.0806 -0.9375
  110SAPE  C31111450   6.793   4.801   3.834 -0.4990 -1.3308 -0.2643
  110SAPE  H11X11451   6.815   4.902   3.873 -1.6466 -1.7220  1.4663
  110SAPE  H11Y11452   6.873   4.731   3.867 -1.1182 -1.9639 -0.0748
  110SAPE  C31211453   6.657   4.767   3.899  0.5355  0.6295 -0.0535
  110SAPE  H12X11454   6.637   4.662   3.868  3.6171  0.9291 -3.7862
  110SAPE  H12Y11455   6.585   4.841   3.858  1.8534  1.8919 -0.1513
  110SAPE  C31311456   6.645   4.788   4.053 -0.2382 -0.2623 -0.1223
  110SAPE  H13X11457   6.670   4.896   4.069 -0.9609 -0.0134 -0.6351
  110SAPE  H13Y11458   6.719   4.725   4.108 -0.2367 -1.2293 -1.2037
  110SAPE  C31411459   6.510   4.745   4.118  0.1649 -0.3643  0.5635
  110SAPE  H14X11460   6.491   4.642   4.080 -0.4738 -0.0689  0.0559
  110SAPE  H14Y11461   6.423   4.809   4.092  1.2361  0.9404  0.0299
  110SAPE  C31511462   6.520   4.749   4.272  0.5784  0.7304 -0.0167
  110SAPE  H15X11463   6.548   4.854   4.296  1.3601  0.6199 -0.4352
  110SAPE  H15Y11464   6.602   4.684   4.308 -0.2156  1.1987  2.8466
  110SAPE  C31611465   6.383   4.713   4.345 -0.0248 -0.4587  0.1195
  110SAPE  H16X11466   6.342   4.612   4.325 -0.6688 -0.1355 -0.1933
  110SAPE  H16Y11467   6.315   4.800   4.334  0.0416 -0.1635  1.7270
  110SAPE  C31711468   6.408   4.710   4.497  0.6104 -0.8458  0.0701
  110SAPE  H17X11469   6.469   4.622   4.529  0.0968 -1.6770 -1.1649
  110SAPE  H17Y11470   6.304   4.697   4.533  0.1719  1.7103 -0.0957
  110SAPE  C31811471   6.465   4.845   4.550 -0.1737 -0.9661  0.2668
  110SAPE  H18X11472   6.412   4.934   4.512  0.1394 -0.6097  0.6613
  110SAPE  H18Y11473   6.566   4.847   4.504 -1.3425 -3.5423 -2.8426
  110SAPE  H18Z11474   6.456   4.855   4.660 -1.4010 -0.5380  0.1421
  111SAPE     N11475   0.037   6.053   2.224  0.6415 -0.1774  0.6552
  111SAPE   HN111476  -0.024   5.977   2.260 -0.8209 -0.2419 -1.7289
  111SAPE   HN211477  -0.012   6.118   2.160  1.9108  0.6054  0.4335
  111SAPE   HN311478   0.120   6.006   2.181  0.3886 -1.4070  1.4459
  111SAPE   C1211479   0.078   6.133   2.350 -0.1727 -0.1413 -0.3843
  111SAPE  H12A11480   0.161   6.200   2.321 -0.5201  0.5620  0.2335
  111SAPE  H12B11481   0.115   6.062   2.427 -1.8755  0.6646  1.2482
  111SAPE   C1111482  -0.038   6.218   2.408  0.2983 -0.0926  0.5372
  111SAPE  H11A11483   0.003   6.277   2.493  0.4247  1.7914 -0.7591
  111SAPE  H11B11484  -0.113   6.155   2.460  0.8830  0.3017  1.9075
  111SAPE     P11485  -0.046   6.444   2.267  0.1894 -0.1788  0.1902
  111SAPE   O1311486   0.104   6.441   2.249  0.2863 -0.3742  0.3463
  111SAPE   O1411487  -0.116   6.486   2.149  0.3587 -0.0019  0.1873
  111SAPE   O1211488  -0.099   6.298   2.308  0.1683 -0.1431 -0.0403
  111SAPE   O1111489  -0.082   6.549   2.382  0.3598 -0.1136 -0.2277
  111SAPE    C111490  -0.215   6.554   2.437  0.3980 -1.0870 -0.4096
  111SAPE    HA11491  -0.289   6.600   2.368 -0.4555  1.2574  1.9183
  111SAPE    HB11492  -0.241   6.449   2.463  2.6015 -1.8588 -1.0164
  111SAPE    C211493  -0.214   6.629   2.571 -0.1367  0.6652  0.0977
  111SAPE    HS11494  -0.168   6.729   2.559  3.5261 -0.6353  1.7901
  111SAPE   O2111495  -0.134   6.558   2.668  0.0128  0.2184 -0.3693
  111SAPE   C2111496   0.004   6.588   2.653  0.6234 -0.4351  0.1815
  111SAPE   O2211497   0.049   6.687   2.599 -0.2123 -0.0015 -0.5900
  111SAPE   C2211498   0.088   6.476   2.717 -0.2719  0.4518 -0.1504
  111SAPE   H2R11499   0.020   6.391   2.736  0.9724 -1.2720 -2.9177
  111SAPE   H2S11500   0.163   6.454   2.639 -0.9218 -1.4107 -0.2866
  111SAPE    C311501  -0.356   6.661   2.632 -0.3393  0.4070  0.3131
  111SAPE    HX11502  -0.406   6.562   2.639  1.0031 -0.3164  0.0004
  111SAPE    HY11503  -0.404   6.733   2.563 -3.1338  0.6577  2.3534
  111SAPE   O3111504  -0.337   6.724   2.759  0.2255  0.2666  0.5549
  111SAPE   C3111505  -0.434   6.711   2.851  0.8343 -0.7858  0.6211
  111SAPE   O3211506  -0.550   6.679   2.826  0.6266  0.4074  0.8264
  111SAPE   C3211507  -0.376   6.730   2.985 -0.1457  0.5307 -0.6026
  111SAPE   H2X11508  -0.385   6.840   2.997  0.8267  0.7875 -1.9813
  111SAPE   H2Y11509  -0.271   6.695   2.985  0.2222  1.2493  3.0202
  111SAPE   C2311510   0.168   6.512   2.845  0.1628  0.1883 -0.2675
  111SAPE   H3R11511   0.215   6.612   2.835  0.4648  0.2343  1.3021
  111SAPE   H3S11512   0.237   6.429   2.873 -0.2578 -0.0186  0.1690
  111SAPE   C2411513   0.082   6.519   2.971 -0.1826  1.1103 -0.2323
  111SAPE   H4R11514  -0.002   6.592   2.967 -0.3482  0.9234 -0.1695
  111SAPE   H4S11515   0.153   6.561   3.046 -1.6779  0.3361  1.7273
  111SAPE   C2511516   0.023   6.387   3.031 -1.2214 -0.0993  0.5190
  111SAPE   H5R11517  -0.058   6.338   2.975 -1.5120  0.5229  0.3920
  111SAPE   C2611518   0.049   6.335   3.152  0.1034  0.3191  0.3180
  111SAPE   H6R11519  -0.004   6.241   3.172 -2.9321  2.0214  0.9997
  111SAPE   C2711520   0.156   6.379   3.250  0.6160 -0.3144 -0.1747
  111SAPE   H7R11521   0.102   6.399   3.345  0.9027  1.3875 -0.3526
  111SAPE   H7S11522   0.218   6.466   3.219  1.6756 -0.7210  0.7229
  111SAPE   C2811523   0.254   6.263   3.270  0.3064  0.0877  0.1675
  111SAPE   H8R11524   0.263   6.190   3.188 -1.0888 -0.4113  0.4347
  111SAPE   C2911525   0.313   6.249   3.388 -1.1651  0.8869 -0.1099
  111SAPE   H9R11526   0.384   6.165   3.388 -0.7746  1.1979  0.9912
  111SAPE  C21011527   0.302   6.333   3.514  0.7302  0.0616 -0.0598
  111SAPE  H10R11528   0.283   6.437   3.482  0.4122 -0.0950 -0.3905
  111SAPE  H10S11529   0.400   6.339   3.565  0.5837  0.1544  0.2126
  111SAPE  C21111530   0.183   6.287   3.596  0.0747 -1.0500  0.3323
  111SAPE  H11R11531   0.097   6.262   3.533 -0.8270 -1.8153  1.8077
  111SAPE  C21211532   0.168   6.290   3.731 -0.3070  0.3279  0.1217
  111SAPE  H12R11533   0.075   6.248   3.770 -0.1181 -0.8036 -0.6061
  111SAPE  C21311534   0.272   6.354   3.832 -0.1665 -0.5218  0.0037
  111SAPE  H13R11535   0.224   6.420   3.908  0.7068  0.0224  0.0985
  111SAPE  H13S11536   0.339   6.421   3.774 -1.5123  2.7047  1.8831
  111SAPE  C21411537   0.366   6.257   3.897 -0.5730 -0.1148  0.0920
  111SAPE  H14R11538   0.378   6.168   3.834 -0.5404 -1.0580  1.3696
  111SAPE  C21511539   0.414   6.266   4.021 -0.8010 -0.3476 -0.0159
  111SAPE  H15R11540   0.461   6.179   4.070 -1.2924 -0.0931  0.9188
  111SAPE  C21611541   0.393   6.382   4.114  0.2178 -0.1064  0.2193
  111SAPE  H16R11542   0.367   6.472   4.054 -1.4987  1.0677  2.5413
  111SAPE  H16S11543   0.477   6.426   4.172 -2.2832  3.4223  1.5933
  111SAPE  C21711544   0.288   6.354   4.220 -0.5190  0.1931  0.4239
  111SAPE  H17R11545   0.184   6.368   4.181  0.5673  0.5064 -2.6180
  111SAPE  H17S11546   0.299   6.441   4.288 -1.4656  0.2905  0.4700
  111SAPE  C21811547   0.318   6.228   4.297 -0.3960  0.2510 -0.6267
  111SAPE  H18R11548   0.316   6.145   4.224 -0.2069 -1.0127  0.7589
  111SAPE  H18S11549   0.236   6.211   4.370 -0.8210 -3.6033 -1.8125
  111SAPE  C21911550   0.456   6.236   4.369 -0.0497  0.4457  0.0342
  111SAPE  H19R11551   0.470   6.332   4.423 -0.5844  0.4164  0.2334
  111SAPE  H19S11552   0.536   6.226   4.293  1.3871  1.0984  1.4136
  111SAPE  C22011553   0.473   6.115   4.461 -0.4328  0.5307  0.3319
  111SAPE  H20R11554   0.392   6.121   4.537  0.1055  0.2471  0.9358
  111SAPE  H20S11555   0.573   6.116   4.509 -0.2712  0.2351  0.0035
  111SAPE  H20T11556   0.463   6.024   4.398 -3.3432  1.3360 -0.5225
  111SAPE   C3311557  -0.456   6.664   3.102  0.3353  0.3411  0.1864
  111SAPE   H3X11558  -0.456   6.553   3.104 -1.3865  0.2936 -0.6314
  111SAPE   H3Y11559  -0.564   6.688   3.093  0.4257  0.1563 -1.9867
  111SAPE   C3411560  -0.421   6.727   3.241  0.1964 -0.1433 -0.3820
  111SAPE   H4X11561  -0.431   6.837   3.231  0.7242  0.1890  2.1027
  111SAPE   H4Y11562  -0.314   6.700   3.257 -0.2592 -1.1213  1.2678
  111SAPE   C3511563  -0.517   6.682   3.361 -0.7027  0.1956 -0.1958
  111SAPE   H5X11564  -0.498   6.577   3.392 -0.1169  0.5237  0.5935
  111SAPE   H5Y11565  -0.620   6.690   3.322 -0.4783 -1.4868 -1.2388
  111SAPE   C3611566  -0.498   6.783   3.482  0.5401 -0.0870 -0.3865
  111SAPE   H6X11567  -0.530   6.886   3.457  0.6100 -0.3707 -1.7528
  111SAPE   H6Y11568  -0.390   6.788   3.503  0.3462 -0.1035  0.6436
  111SAPE   C3711569  -0.566   6.745   3.614 -0.6666  0.2282  0.0011
  111SAPE   H7X11570  -0.512   6.654   3.649 -0.3125  0.6329  0.5196
  111SAPE   H7Y11571  -0.674   6.720   3.609  0.1058 -3.6661 -0.9035
  111SAPE   C3811572  -0.543   6.855   3.715 -0.0792 -0.5299 -0.3059
  111SAPE   H8X11573  -0.567   6.957   3.680  2.4400  1.3164  2.7952
  111SAPE   H8Y11574  -0.433   6.857   3.732 -0.1154  2.4088  0.0824
  111SAPE   C3911575  -0.589   6.813   3.858  0.1950 -0.5894  0.0175
  111SAPE   H9X11576  -0.542   6.715   3.881  0.5065 -0.4084  0.1564
  111SAPE   H9Y11577  -0.700   6.822   3.861  0.2492  0.1920 -0.0448
  111SAPE  C31011578  -0.548   6.897   3.979  0.2411 -0.9180 -0.5664
  111SAPE  H10X11579  -0.552   7.005   3.953  2.2847 -0.7007 -0.0943
  111SAPE  H10Y11580  -0.441   6.879   3.999  0.1815 -1.5757 -0.7928
  111SAPE  C31111581  -0.608   6.850   4.114  0.0877  0.8677 -0.0882
  111SAPE  H11X11582  -0.591   6.741   4.126 -1.8848  0.2468 -2.1788
  111SAPE  H11Y11583  -0.718   6.857   4.122 -0.2036 -1.0585 -1.6469
  111SAPE  C31211584  -0.553   6.932   4.243 -0.1208  0.1570  1.2866
  111SAPE  H12X11585  -0.578   7.037   4.219  2.2109 -0.1979 -4.6488
  111SAPE  H12Y11586  -0.444   6.909   4.237 -0.3741 -0.8967  0.1918
  111SAPE  C31311587  -0.596   6.869   4.376 -0.6041  0.1011  0.7517
  111SAPE  H13X11588  -0.545   6.771   4.374 -1.1150 -0.1492 -0.3485
  111SAPE  H13Y11589  -0.705   6.853   4.376 -0.3007 -2.6225 -1.3492
  111SAPE  C31411590  -0.567   6.946   4.507 -0.5441 -0.3757 -0.7566
  111SAPE  H14X11591  -0.586   7.056   4.506 -1.4820 -0.5262 -0.5224
  111SAPE  H14Y11592  -0.458   6.929   4.524 -0.8536 -2.7422 -0.8271
  111SAPE  C31511593  -0.627   6.886   4.640  0.1543 -0.4980  0.7496
  111SAPE  H15X11594  -0.579   6.789   4.663 -0.5712 -0.6912  1.4445
  111SAPE  H15Y11595  -0.733   6.873   4.610  0.4103 -0.4507 -0.2187
  111SAPE  C31611596  -0.597   6.972   4.762  0.1301  0.2527 -0.0257
  111SAPE  H16X11597  -0.619   7.077   4.733 -1.8263 -0.0132  0.3464
  111SAPE  H16Y11598  -0.488   6.961   4.782 -0.0105 -0.4081  0.4246
  111SAPE  C31711599  -0.682   6.943   4.882 -0.2655  0.0885 -0.4601
  111SAPE  H17X11600  -0.659   7.009   4.968  1.8632  0.3556 -1.1702
  111SAPE  H17Y11601  -0.648   6.843   4.914 -1.5585  0.1395  1.2575
  111SAPE  C31811602  -0.831   6.953   4.860 -0.2766  0.0028  0.1947
  111SAPE  H18X11603  -0.862   7.052   4.820 -3.5776 -0.6575  0.7597
  111SAPE  H18Y11604  -0.873   6.919   4.957  0.8760  0.5041  0.8883
  111SAPE  H18Z11605  -0.859   6.881   4.780 -0.4256 -0.5926  0.7704
  112SAPE     N11606   4.150   6.201   2.758 -0.3491  0.0518  0.7406
  112SAPE   HN111607   4.194   6.202   2.852  2.3611  2.4156 -0.4056
  112SAPE   HN211608   4.178   6.112   2.711 -1.1735 -0.0276  0.3827
  112SAPE   HN311609   4.210   6.271   2.710  0.8326 -0.1279  1.8883
  112SAPE   C1211610   4.004   6.227   2.753  0.1208  0.1159 -0.0254
  112SAPE  H12A11611   3.955   6.165   2.831 -0.1739  1.3599  0.8160
  112SAPE  H12B11612   3.982   6.187   2.652  1.3133 -1.2297  0.2064
  112SAPE   C1111613   3.961   6.367   2.765 -0.7239  0.3433 -0.1206
  112SAPE  H11A11614   3.984   6.429   2.676  0.7136 -0.1034 -0.0936
  112SAPE  H11B11615   4.025   6.404   2.848  2.5032  0.3484 -2.4240
  112SAPE     P11616   3.715   6.349   2.701 -0.2158  0.1885  0.0669
  112SAPE   O1311617   3.724   6.214   2.641  0.3908 -0.0284 -0.1699
  112SAPE   O1411618   3.585   6.384   2.768 -0.1792 -0.0243  0.3724
  112SAPE   O1211619   3.824   6.376   2.809  0.4230 -0.2266  0.5282
  112SAPE   O1111620   3.742   6.452   2.591  0.0079 -0.5004  0.5444
  112SAPE    C111621   3.726   6.597   2.596  0.1357 -0.0308 -0.1332
  112SAPE    HA11622   3.744   6.647   2.499  0.0470  2.6493  1.1352
  112SAPE    HB11623   3.624   6.627   2.628  1.2909  2.1772  1.7485
  112SAPE    C211624   3.816   6.681   2.693 -0.3345 -0.2992  0.1756
  112SAPE    HS11625   3.920   6.641   2.680  0.2590  0.6417  1.7457
  112SAPE   O2111626   3.777   6.650   2.825 -0.2762  0.3006  0.4796
  112SAPE   C2111627   3.850   6.694   2.916  0.2981 -0.4566  0.2977
  112SAPE   O2211628   3.948   6.766   2.910  0.4291 -0.0903  0.2419
  112SAPE   C2211629   3.789   6.644   3.054  0.4155 -0.1021  0.3817
  112SAPE   H2R11630   3.713   6.723   3.076 -0.0231  0.3985 -2.4749
  112SAPE   H2S11631   3.739   6.545   3.047 -0.1046  0.1391  0.5666
  112SAPE    C311632   3.822   6.836   2.663 -0.7592 -0.3315  0.1472
  112SAPE    HX11633   3.842   6.864   2.557 -0.9979  0.0439  0.1975
  112SAPE    HY11634   3.908   6.876   2.720 -1.4057  0.4962  0.5584
  112SAPE   O3111635   3.703   6.894   2.713 -0.2363  0.1933  0.3296
  112SAPE   C3111636   3.603   6.931   2.630  0.2629  0.4219  0.4741
  112SAPE   O3211637   3.601   6.910   2.508  0.0447  0.4263 -0.1786
  112SAPE   C3211638   3.493   7.014   2.709  0.2181  0.7041  0.1000
  112SAPE   H2X11639   3.438   6.940   2.771  3.3519 -1.3014  0.7466
  112SAPE   H2Y11640   3.428   7.049   2.627  2.9451  2.6275 -1.3836
  112SAPE   C2311641   3.882   6.622   3.177 -0.2936 -0.6544  0.2665
  112SAPE   H3R11642   3.822   6.584   3.263  1.0645 -0.6928  1.2269
  112SAPE   H3S11643   3.931   6.717   3.207  1.4891 -2.0028  1.8336
  112SAPE   C2411644   3.994   6.522   3.150  0.1444  0.1000 -0.1910
  112SAPE   H4R11645   4.064   6.505   3.235 -0.4067 -2.4484 -0.1751
  112SAPE   H4S11646   4.053   6.550   3.060 -1.0488  2.6924 -0.2647
  112SAPE   C2511647   3.923   6.388   3.132 -0.0968  0.5652  0.3212
  112SAPE   H5R11648   3.885   6.370   3.030 -0.3542 -0.4635  0.5889
  112SAPE   C2611649   3.920   6.284   3.220 -0.3273  0.7342 -0.2109
  112SAPE   H6R11650   3.876   6.185   3.199 -1.8932  1.2264  0.5929
  112SAPE   C2711651   3.973   6.289   3.366  0.5182  0.4218  0.2538
  112SAPE   H7R11652   3.921   6.217   3.434  2.0415 -0.3368  0.6769
  112SAPE   H7S11653   3.951   6.387   3.414  0.0255  0.0367  0.8331
  112SAPE   C2811654   4.121   6.264   3.364 -0.0960  0.2460  0.5085
  112SAPE   H8R11655   4.160   6.365   3.343  0.2035 -0.1326 -0.8385
  112SAPE   C2911656   4.180   6.141   3.393  0.0787 -0.6031  0.3172
  112SAPE   H9R11657   4.289   6.136   3.398  0.0720 -0.6141  0.4805
  112SAPE  C21011658   4.103   6.010   3.419 -0.5269  0.9919 -0.3560
  112SAPE  H10R11659   3.999   6.025   3.455 -0.2867  0.4895  0.5539
  112SAPE  H10S11660   4.146   5.958   3.506 -0.6178 -0.5956 -1.2308
  112SAPE  C21111661   4.105   5.919   3.303  0.2303 -0.2420 -0.1053
  112SAPE  H11R11662   4.130   5.968   3.208  3.1644  2.5198  1.8775
  112SAPE  C21211663   4.092   5.787   3.299  0.0962 -0.8513  0.1581
  112SAPE  H12R11664   4.090   5.740   3.199 -0.9357  0.6776 -0.5742
  112SAPE  C21311665   4.076   5.699   3.423  0.1098 -0.1755  1.1711
  112SAPE  H13R11666   3.975   5.719   3.464 -0.1841  2.5472 -0.6336
  112SAPE  H13S11667   4.139   5.733   3.508 -1.6879  0.7651  2.1769
  112SAPE  C21411668   4.097   5.553   3.385 -0.0457  0.6246  0.0376
  112SAPE  H14R11669   4.111   5.535   3.277 -1.9755  1.0507 -0.3165
  112SAPE  C21511670   4.129   5.452   3.475  0.0362  0.3029  0.4219
  112SAPE  H15R11671   4.152   5.356   3.428  1.1405  1.4933 -1.6020
  112SAPE  C21611672   4.127   5.449   3.625  0.6187 -0.8374  0.5445
  112SAPE  H16R11673   4.103   5.343   3.648 -0.1557 -1.4454 -2.5290
  112SAPE  H16S11674   4.045   5.517   3.654  1.7058  1.6419 -1.7431
  112SAPE  C21711675   4.241   5.488   3.709  0.4805 -0.2006 -0.2098
  112SAPE  H17R11676   4.256   5.596   3.690  3.0077 -0.0499  2.0440
  112SAPE  H17S11677   4.332   5.430   3.680  0.3306 -0.3336 -0.4210
  112SAPE  C21811678   4.216   5.478   3.860  0.5784  0.4879 -0.0692
  112SAPE  H18R11679   4.124   5.537   3.879 -0.2945 -1.3155  1.5922
  112SAPE  H18S11680   4.302   5.517   3.920  0.8623 -0.6776  0.3019
  112SAPE  C21911681   4.198   5.343   3.920  0.0756  0.2812 -0.1241
  112SAPE  H19R11682   4.292   5.284   3.931 -0.6214 -1.0998 -1.2773
  112SAPE  H19S11683   4.139   5.282   3.849  1.5604  0.4061 -1.5251
  112SAPE  C22011684   4.134   5.360   4.052  0.9164  0.2687 -0.8512
  112SAPE  H20R11685   4.189   5.428   4.120 -0.8815  3.8112 -2.6743
  112SAPE  H20S11686   4.134   5.262   4.106  0.6866  0.4889 -0.4443
  112SAPE  H20T11687   4.025   5.381   4.041 -0.2061 -2.4513  2.8187
  112SAPE   C3311688   3.561   7.138   2.781  1.1334  0.3748 -0.0522
  112SAPE   H3X11689   3.606   7.203   2.703  2.4192 -2.0775 -1.4725
  112SAPE   H3Y11690   3.636   7.112   2.859 -1.4866  0.0773  2.5336
  112SAPE   C3411691   3.448   7.225   2.849 -0.1786  1.2374 -0.1475
  112SAPE   H4X11692   3.390   7.169   2.925 -2.4137  1.5741 -1.5392
  112SAPE   H4Y11693   3.370   7.261   2.779  0.5242  0.1688 -1.5179
  112SAPE   C3511694   3.506   7.349   2.913  0.3456 -0.2045 -0.6402
  112SAPE   H5X11695   3.517   7.432   2.839 -1.6153 -0.3993 -1.1998
  112SAPE   H5Y11696   3.612   7.331   2.939  0.2014 -0.8423 -0.4936
  112SAPE   C3611697   3.437   7.401   3.037 -0.5932  0.0828 -0.3508
  112SAPE   H6X11698   3.327   7.383   3.037 -0.6113 -0.2864 -3.1628
  112SAPE   H6Y11699   3.460   7.509   3.041  0.5777 -0.1842  2.1489
  112SAPE   C3711700   3.503   7.331   3.157 -0.1585  0.5583 -0.6557
  112SAPE   H7X11701   3.594   7.389   3.181 -0.2639  0.5135 -0.1414
  112SAPE   H7Y11702   3.541   7.231   3.129  1.7423  0.9722  0.3121
  112SAPE   C3811703   3.403   7.326   3.275 -0.6802 -0.3498  0.1497
  112SAPE   H8X11704   3.321   7.258   3.242 -1.4933 -0.4633  2.2365
  112SAPE   H8Y11705   3.357   7.426   3.297  1.7460  0.4333  2.0722
  112SAPE   C3911706   3.471   7.275   3.411 -0.2313  0.0986 -0.3749
  112SAPE   H9X11707   3.530   7.361   3.450  0.9750 -0.0685 -1.7474
  112SAPE   H9Y11708   3.537   7.188   3.391 -3.5695 -2.5648 -0.8273
  112SAPE  C31011709   3.373   7.236   3.534 -0.4376  0.0363  0.1158
  112SAPE  H10X11710   3.300   7.162   3.497 -0.7117  0.7982 -0.8963
  112SAPE  H10Y11711   3.327   7.327   3.579  1.8994  1.0241  0.7002
  112SAPE  C31111712   3.442   7.188   3.663 -1.3680 -0.0914 -0.2634
  112SAPE  H11X11713   3.540   7.145   3.630 -0.0025  1.7442  1.2057
  112SAPE  H11Y11714   3.376   7.113   3.711  0.4881 -1.8409 -0.2832
  112SAPE  C31211715   3.475   7.289   3.771  0.2756  0.0954  0.5866
  112SAPE  H12X11716   3.383   7.314   3.829 -0.9803  1.1910 -1.7299
  112SAPE  H12Y11717   3.527   7.378   3.732  0.7501  0.1543  1.3318
  112SAPE  C31311718   3.561   7.228   3.882  0.8013  0.3857  0.5527
  112SAPE  H13X11719   3.646   7.175   3.833  1.0672  0.0620  1.3445
  112SAPE  H13Y11720   3.494   7.149   3.921  0.2914 -0.0836 -1.1682
  112SAPE  C31411721   3.596   7.325   4.001 -0.2864  0.0456  0.5286
  112SAPE  H14X11722   3.497   7.366   4.032 -0.5345 -0.8627  0.9720
  112SAPE  H14Y11723   3.664   7.392   3.945  1.7794 -1.5532  0.9788
  112SAPE  C31511724   3.661   7.254   4.113  0.3694 -0.1315  0.7021
  112SAPE  H15X11725   3.739   7.193   4.064  1.0816  1.9009 -0.8338
  112SAPE  H15Y11726   3.588   7.174   4.138 -2.5099  1.7351 -1.1873
  112SAPE  C31611727   3.704   7.333   4.235 -0.3504  0.0977 -0.3937
  112SAPE  H16X11728   3.622   7.398   4.273 -1.0688  0.1660 -1.9867
  112SAPE  H16Y11729   3.787   7.402   4.210  0.7749 -0.9331  0.4419
  112SAPE  C31711730   3.757   7.240   4.345 -0.0688  0.0642  0.4525
  112SAPE  H17X11731   3.833   7.296   4.404  1.2616  1.0838 -2.0728
  112SAPE  H17Y11732   3.808   7.150   4.304  3.2078  1.5955  0.9266
  112SAPE  C31811733   3.650   7.191   4.440 -0.0308  0.2317 -0.1847
  112SAPE  H18X11734   3.688   7.121   4.517 -2.2509 -2.9251 -1.7267
  112SAPE  H18Y11735   3.569   7.136   4.388 -0.0019 -0.4905  0.5076
  112SAPE  H18Z11736   3.616   7.279   4.498  2.3137  0.1720  1.4314
  113SAPE     N11737   4.480   0.073   2.439  0.1595 -0.0335  0.2873
  113SAPE   HN111738   4.475   0.164   2.389  3.5602  0.8112  1.2219
  113SAPE   HN211739   4.579   0.050   2.457 -0.3647 -0.4307  3.0279
  113SAPE   HN311740   4.424   0.000   2.388 -1.1277  1.8028 -1.0769
  113SAPE   C1211741   4.430   0.087   2.582 -0.2080  0.1449 -0.7249
  113SAPE  H12A11742   4.319   0.091   2.580 -0.1704  1.1471 -1.7599
  113SAPE  H12B11743   4.465   0.183   2.624 -1.0303 -0.0835  0.5268
  113SAPE   C1111744   4.479  -0.027   2.673 -0.0638  0.1988 -0.1296
  113SAPE  H11A11745   4.446  -0.013   2.778 -2.6707 -1.0046 -0.7181
  113SAPE  H11B11746   4.590  -0.028   2.676 -0.0050 -0.2275 -1.6787
  113SAPE     P11747   4.314  -0.236   2.683 -0.1141 -0.0067  0.2724
  113SAPE   O1311748   4.184  -0.178   2.656 -0.0132  0.3736 -0.2158
  113SAPE   O1411749   4.331  -0.376   2.651 -0.0544  0.3222  0.0501
  113SAPE   O1211750   4.437  -0.154   2.623 -0.2963 -0.5159  0.3129
  113SAPE   O1111751   4.329  -0.224   2.843  0.0746 -0.0797  0.1308
  113SAPE    C111752   4.407  -0.313   2.920  0.3878  0.1367  0.0544
  113SAPE    HA11753   4.338  -0.366   2.989 -0.8228  1.2556 -0.2444
  113SAPE    HB11754   4.452  -0.403   2.873  0.6678 -1.8047  3.7548
  113SAPE    C211755   4.521  -0.240   3.005 -0.3444  0.0074  0.8205
  113SAPE    HS11756   4.546  -0.295   3.099  0.0335 -1.5694 -0.1536
  113SAPE   O2111757   4.485  -0.105   3.034  0.0808  0.2869 -0.2686
  113SAPE   C2111758   4.385  -0.093   3.122  0.4149 -0.2877 -0.2156
  113SAPE   O2211759   4.339  -0.180   3.188 -0.3739  0.4037 -0.1589
  113SAPE   C2211760   4.334   0.050   3.124 -0.2985  0.1401  0.3271
  113SAPE   H2R11761   4.409   0.100   3.190  0.4758 -0.2659 -0.2229
  113SAPE   H2S11762   4.355   0.087   3.021 -0.0659  0.9091  0.6468
  113SAPE    C311763   4.652  -0.225   2.923 -0.4798  0.2821  0.1088
  113SAPE    HX11764   4.730  -0.178   2.986  0.6860  2.5975 -2.8282
  113SAPE    HY11765   4.644  -0.161   2.832 -0.4862 -1.2014 -0.9815
  113SAPE   O3111766   4.699  -0.352   2.869 -0.3026  0.5120 -0.8116
  113SAPE   C3111767   4.774  -0.436   2.939  0.5348  0.2439 -0.7680
  113SAPE   O3211768   4.799  -0.430   3.058 -0.1766 -0.3815 -0.7429
  113SAPE   C3211769   4.796  -0.561   2.851  0.5074 -0.7770 -0.0490
  113SAPE   H2X11770   4.842  -0.525   2.756 -2.1053  0.9451 -0.7639
  113SAPE   H2Y11771   4.699  -0.604   2.819 -0.6348  1.3387  0.4021
  113SAPE   C2311772   4.182   0.069   3.155 -0.8526 -0.2700 -0.1616
  113SAPE   H3R11773   4.162   0.032   3.258  0.3127  1.2475  0.6485
  113SAPE   H3S11774   4.131   0.001   3.083 -2.5398 -1.3353  1.9111
  113SAPE   C2411775   4.130   0.216   3.145  0.2299  0.2436 -0.4124
  113SAPE   H4R11776   4.170   0.267   3.055 -6.1027  2.5428 -2.4925
  113SAPE   H4S11777   4.173   0.272   3.230  2.8856 -0.9219 -0.8857
  113SAPE   C2511778   3.979   0.243   3.130  1.2201 -0.0014 -0.5668
  113SAPE   H5R11779   3.950   0.241   3.024 -2.6423  2.2526  0.2283
  113SAPE   C2611780   3.890   0.272   3.226  0.0652  0.1592  0.2937
  113SAPE   H6R11781   3.791   0.312   3.197  0.4691 -0.4858 -2.2620
  113SAPE   C2711782   3.912   0.258   3.376  0.4478  0.3843  0.3612
  113SAPE   H7R11783   4.017   0.280   3.407  1.3825 -3.1278  0.0961
  113SAPE   H7S11784   3.900   0.154   3.415  1.9874 -0.9850 -2.5381
  113SAPE   C2811785   3.829   0.348   3.464  0.4755  0.3017 -0.0979
  113SAPE   H8R11786   3.762   0.415   3.408  0.2540 -1.7169 -2.4512
  113SAPE   C2911787   3.815   0.359   3.599 -0.9936  0.1562  0.1098
  113SAPE   H9R11788   3.747   0.438   3.636 -1.5000  0.6562 -1.7567
  113SAPE  C21011789   3.889   0.284   3.697  0.1665  0.5343  0.3747
  113SAPE  H10R11790   3.932   0.361   3.765  0.0832  1.4904 -0.6263
  113SAPE  H10S11791   3.975   0.226   3.658  0.0730 -1.7732  3.2493
  113SAPE  C21111792   3.818   0.162   3.756 -0.6151  0.0658  0.1488
  113SAPE  H11R11793   3.752   0.111   3.683  2.7892 -1.9722 -1.7460
  113SAPE  C21211794   3.837   0.105   3.877  0.8559  0.2128  0.6033
  113SAPE  H12R11795   3.781   0.016   3.908  1.1951 -0.0691  0.4092
  113SAPE  C21311796   3.937   0.159   3.973 -0.3625  0.3885 -0.2179
  113SAPE  H13R11797   3.878   0.203   4.056 -1.1424  0.1585 -0.6415
  113SAPE  H13S11798   4.006   0.234   3.927 -0.3945  0.8680  0.5000
  113SAPE  C21411799   4.020   0.043   4.019 -0.6832 -0.2995  0.1874
  113SAPE  H14R11800   4.089   0.007   3.940 -1.6227 -0.2080 -0.6945
  113SAPE  C21511801   4.028  -0.015   4.139  0.3872  0.7122  0.1115
  113SAPE  H15R11802   4.098  -0.096   4.163  0.1854  0.0607 -1.3732
  113SAPE  C21611803   3.946   0.030   4.252 -0.1416  1.1935 -0.9741
  113SAPE  H16R11804   3.945   0.141   4.257 -0.5278  1.1507  0.4932
  113SAPE  H16S11805   4.003   0.001   4.343 -0.5817  0.5148 -0.9083
  113SAPE  C21711806   3.801  -0.017   4.283  0.7498  0.2147  0.1344
  113SAPE  H17R11807   3.805  -0.128   4.279 -0.0773  0.0818  1.8018
  113SAPE  H17S11808   3.730   0.010   4.202  1.0661  0.2343 -0.1388
  113SAPE  C21811809   3.757   0.030   4.421  0.1881  0.6805  0.6168
  113SAPE  H18R11810   3.772   0.140   4.421 -1.3092  0.9338 -1.1149
  113SAPE  H18S11811   3.815  -0.017   4.503  1.2056  1.4639  0.3573
  113SAPE  C21911812   3.613  -0.024   4.446  0.0200 -0.1314 -0.9952
  113SAPE  H19R11813   3.570  -0.053   4.347 -2.2664 -1.9718  0.4017
  113SAPE  H19S11814   3.556   0.066   4.477  0.1120  0.2761 -1.9621
  113SAPE  C22011815   3.612  -0.141   4.538 -0.2588  0.2840  0.7809
  113SAPE  H20R11816   3.664  -0.127   4.636 -0.7486  2.2939  0.7988
  113SAPE  H20S11817   3.669  -0.219   4.484  1.1656 -0.3932  3.0979
  113SAPE  H20T11818   3.507  -0.173   4.557 -0.6004  0.6186 -0.4903
  113SAPE   C3311819   4.866  -0.686   2.915  0.6538  0.0253 -0.5711
  113SAPE   H3X11820   4.852  -0.774   2.850  0.5896  1.1668 -2.1640
  113SAPE   H3Y11821   4.817  -0.720   3.009  2.7311  1.1049  0.9882
  113SAPE   C3411822   5.013  -0.681   2.935  0.7291 -0.3240 -0.4553
  113SAPE   H4X11823   5.051  -0.580   2.908 -1.2703  0.1525 -1.7740
  113SAPE   H4Y11824   5.069  -0.748   2.866  1.2726 -0.1888 -0.1518
  113SAPE   C3511825   5.052  -0.696   3.081  0.0611  0.2449 -0.7300
  113SAPE   H5X11826   5.011  -0.788   3.127 -0.1193  0.5614 -0.2580
  113SAPE   H5Y11827   5.009  -0.612   3.140  3.6575 -0.1555  2.8576
  113SAPE   C3611828   5.210  -0.694   3.098  0.5745  0.2248 -0.3451
  113SAPE   H6X11829   5.253  -0.593   3.081  0.9211  0.2011  0.3511
  113SAPE   H6Y11830   5.254  -0.766   3.025 -0.1400 -0.1415 -0.4219
  113SAPE   C3711831   5.249  -0.738   3.239 -0.0022 -0.3114  0.0349
  113SAPE   H7X11832   5.358  -0.746   3.256 -0.0741 -0.8877  0.2657
  113SAPE   H7Y11833   5.205  -0.840   3.254 -1.1637  0.2468  0.6001
  113SAPE   C3811834   5.196  -0.654   3.359  0.0357  0.5311 -0.1088
  113SAPE   H8X11835   5.203  -0.545   3.337  2.2702  0.4007 -0.3054
  113SAPE   H8Y11836   5.089  -0.672   3.380  0.1160  0.3815  0.1682
  113SAPE   C3911837   5.271  -0.674   3.483 -0.2577  0.2794  0.7738
  113SAPE   H9X11838   5.373  -0.638   3.454 -0.0174 -2.0208 -1.6409
  113SAPE   H9Y11839   5.262  -0.777   3.522  1.7672  0.3243  1.5098
  113SAPE  C31011840   5.234  -0.584   3.599  0.3222 -0.6670 -0.4151
  113SAPE  H10X11841   5.125  -0.583   3.621  0.5410 -2.3727  0.9735
  113SAPE  H10Y11842   5.267  -0.486   3.560 -0.0017 -0.7645 -0.9472
  113SAPE  C31111843   5.306  -0.600   3.735 -0.6648 -0.4959 -0.2557
  113SAPE  H11X11844   5.416  -0.610   3.717 -0.7233 -1.5123 -0.1363
  113SAPE  H11Y11845   5.273  -0.695   3.783  0.2571 -0.3195  0.7894
  113SAPE  C31211846   5.287  -0.476   3.826  0.3915 -0.1347  0.0478
  113SAPE  H12X11847   5.193  -0.490   3.883  0.8672 -1.9503  0.4425
  113SAPE  H12Y11848   5.282  -0.396   3.750 -2.5136  0.4770  0.7492
  113SAPE  C31311849   5.393  -0.464   3.936 -0.5924 -0.5919 -0.1037
  113SAPE  H13X11850   5.489  -0.493   3.890  0.0728 -0.6776  1.3032
  113SAPE  H13Y11851   5.378  -0.543   4.012  1.0690 -0.5392  0.3143
  113SAPE  C31411852   5.391  -0.326   4.008 -0.0710 -0.2773 -0.2013
  113SAPE  H14X11853   5.296  -0.268   3.995 -1.1215 -1.3617  2.0318
  113SAPE  H14Y11854   5.470  -0.276   3.949  1.8842 -2.0697  0.7971
  113SAPE  C31511855   5.432  -0.332   4.154 -0.3881  0.0188  0.2799
  113SAPE  H15X11856   5.519  -0.400   4.167  0.5849  1.1244 -0.3144
  113SAPE  H15Y11857   5.337  -0.361   4.204 -1.7129  0.3646 -1.9292
  113SAPE  C31611858   5.481  -0.201   4.219 -0.0252 -0.0806  0.1705
  113SAPE  H16X11859   5.398  -0.128   4.215 -0.7923 -0.9446  0.0370
  113SAPE  H16Y11860   5.553  -0.161   4.144 -0.4223  0.3414  0.0115
  113SAPE  C31711861   5.567  -0.212   4.348 -0.2811 -0.1234 -0.1538
  113SAPE  H17X11862   5.619  -0.309   4.347 -0.9113 -0.5985  2.8536
  113SAPE  H17Y11863   5.493  -0.218   4.431 -0.1897 -0.8845 -0.1256
  113SAPE  C31811864   5.667  -0.099   4.367 -0.1366 -0.0381  0.5374
  113SAPE  H18X11865   5.611  -0.005   4.386 -1.0721  0.0716 -2.3224
  113SAPE  H18Y11866   5.735  -0.080   4.282 -1.8921  0.7946 -0.7588
  113SAPE  H18Z11867   5.737  -0.117   4.452 -0.2122  0.0752  0.6258
  114SAPE     N11868   6.262   6.175   2.148 -0.2694 -0.3634  0.0742
  114SAPE   HN111869   6.170   6.208   2.184 -0.5956  1.2851 -2.0984
  114SAPE   HN211870   6.291   6.248   2.080 -1.6149  0.6169  0.5092
  114SAPE   HN311871   6.260   6.082   2.102  1.5440  0.4038 -1.6964
  114SAPE   C1211872   6.364   6.183   2.255 -0.3307 -0.0063 -0.0253
  114SAPE  H12A11873   6.352   6.289   2.288  1.2222  0.8009 -1.8814
  114SAPE  H12B11874   6.455   6.166   2.194 -1.9565 -1.2685 -2.2342
  114SAPE   C1111875   6.346   6.092   2.376  0.2450 -0.9747  1.0337
  114SAPE  H11A11876   6.247   6.113   2.423  0.2140  0.8024  0.2569
  114SAPE  H11B11877   6.421   6.111   2.457  1.4801 -0.6846 -0.1406
  114SAPE     P11878   6.458   5.849   2.341 -0.0862 -0.0253  0.3814
  114SAPE   O1311879   6.395   5.720   2.370 -0.4494 -0.6303  0.4701
  114SAPE   O1411880   6.542   5.861   2.221  0.2624 -0.3928  0.4109
  114SAPE   O1211881   6.344   5.960   2.328  0.3756  0.0886  0.1187
  114SAPE   O1111882   6.542   5.897   2.471 -0.3578  0.2168 -0.3783
  114SAPE    C111883   6.490   5.872   2.603 -0.1295  0.1702 -0.5954
  114SAPE    HA11884   6.379   5.874   2.613 -0.0843  1.1222 -0.1564
  114SAPE    HB11885   6.513   5.767   2.632 -1.0227 -0.1863 -1.1237
  114SAPE    C211886   6.562   5.968   2.705  0.2023  0.4149  0.4681
  114SAPE    HS11887   6.541   6.064   2.653 -1.4330  1.5208  2.9709
  114SAPE   O2111888   6.704   5.942   2.715  0.2062  0.0154 -0.0907
  114SAPE   C2111889   6.773   6.049   2.745  0.2067  0.2479 -0.6975
  114SAPE   O2211890   6.728   6.160   2.763 -0.0389  0.4756 -0.1824
  114SAPE   C2211891   6.923   6.020   2.757 -0.2451  0.3529 -0.6665
  114SAPE   H2R11892   6.965   5.989   2.658  0.5517 -0.5994 -0.0614
  114SAPE   H2S11893   6.972   6.113   2.793  0.3553  0.2891 -1.2921
  114SAPE    C311894   6.488   5.993   2.840 -0.5800  0.2545  0.1452
  114SAPE    HX11895   6.390   6.038   2.811 -0.1418  0.8016 -0.5520
  114SAPE    HY11896   6.533   6.077   2.898 -2.3571  3.0803 -2.2697
  114SAPE   O3111897   6.466   5.872   2.912 -0.2229  0.3246 -0.2472
  114SAPE   C3111898   6.420   5.898   3.029 -0.3296  0.1290 -0.0793
  114SAPE   O3211899   6.374   6.007   3.071 -0.9705  0.0195  0.0753
  114SAPE   C3211900   6.434   5.773   3.119  0.7122 -0.2073  0.0782
  114SAPE   H2X11901   6.527   5.723   3.085  0.8185  0.1564 -0.1801
  114SAPE   H2Y11902   6.352   5.702   3.094  0.8201 -0.1587 -0.4326
  114SAPE   C2311903   6.967   5.902   2.851 -0.3047  0.1522 -0.0305
  114SAPE   H3R11904   7.072   5.880   2.824  0.4162  0.5793  2.2381
  114SAPE   H3S11905   6.902   5.815   2.827  0.9595 -0.4011 -1.6012
  114SAPE   C2411906   6.961   5.939   3.006 -0.4038 -0.1692  0.1965
  114SAPE   H4R11907   6.981   6.047   3.022 -0.7253 -0.4081  2.6521
  114SAPE   H4S11908   7.039   5.886   3.065 -0.3401 -0.3424 -0.0408
  114SAPE   C2511909   6.830   5.910   3.069 -0.0605 -0.1706 -0.1217
  114SAPE   H5R11910   6.756   5.876   2.994  1.5303 -0.3235 -1.6805
  114SAPE   C2611911   6.816   5.883   3.200 -0.2183 -0.0614 -0.1358
  114SAPE   H6R11912   6.717   5.846   3.231 -0.2961 -1.8609 -2.2192
  114SAPE   C2711913   6.915   5.896   3.310  0.2114  0.1024 -0.8743
  114SAPE   H7R11914   7.014   5.931   3.276  2.1285 -1.3298  2.6968
  114SAPE   H7S11915   6.938   5.794   3.348 -0.4118  0.4213  0.4456
  114SAPE   C2811916   6.854   5.963   3.437 -0.2939  0.4707  0.2375
  114SAPE   H8R11917   6.763   6.025   3.429  1.2802  3.0056  0.5500
  114SAPE   C2911918   6.894   5.927   3.560 -0.0968 -0.4539 -0.0737
  114SAPE   H9R11919   6.835   5.973   3.640  0.9805  0.0189  0.4711
  114SAPE  C21011920   7.000   5.835   3.618  0.2988  0.3017  0.7525
  114SAPE  H10R11921   7.072   5.814   3.536  0.8512  0.9230  1.0709
  114SAPE  H10S11922   6.956   5.737   3.644  0.7195 -0.2085 -0.3838
  114SAPE  C21111923   7.057   5.901   3.735  0.5404  0.9368 -0.0134
  114SAPE  H11R11924   7.140   5.965   3.700  0.8400 -0.1805 -1.4469
  114SAPE  C21211925   7.028   5.886   3.867 -0.0557  0.0132 -0.6123
  114SAPE  H12R11926   7.077   5.957   3.935  0.7844 -0.8707 -0.2768
  114SAPE  C21311927   6.940   5.787   3.929 -0.1460 -0.3603  0.2702
  114SAPE  H13R11928   6.996   5.732   4.008  2.0043 -0.1048 -0.9972
  114SAPE  H13S11929   6.907   5.709   3.856 -1.6996  1.1088 -0.6668
  114SAPE  C21411930   6.814   5.846   3.985 -0.4898 -0.2113 -0.0540
  114SAPE  H14R11931   6.732   5.862   3.913  0.8846  0.8676 -1.4459
  114SAPE  C21511932   6.798   5.889   4.111 -0.3884 -0.4540  0.1528
  114SAPE  H15R11933   6.706   5.945   4.136  1.3641  2.5731  0.3295
  114SAPE  C21611934   6.891   5.875   4.234  0.5204 -0.4793  0.1240
  114SAPE  H16R11935   6.858   5.951   4.307 -1.6535  1.5195 -2.7072
  114SAPE  H16S11936   6.992   5.903   4.199 -1.0525  2.6139 -2.5643
  114SAPE  C21711937   6.864   5.749   4.312  0.8424 -0.2190  0.2597
  114SAPE  H17R11938   6.917   5.746   4.410  0.1548  0.8037  0.6827
  114SAPE  H17S11939   6.917   5.673   4.250  2.1785  0.4871  0.4831
  114SAPE  C21811940   6.717   5.699   4.331 -0.2986  0.5950  0.1282
  114SAPE  H18R11941   6.732   5.599   4.376  1.4840  0.1199 -1.3687
  114SAPE  H18S11942   6.672   5.693   4.230  0.6294 -1.2479 -0.2131
  114SAPE  C21911943   6.639   5.779   4.439  1.0055  0.1517  0.1162
  114SAPE  H19R11944   6.531   5.756   4.428  1.2485 -1.5094  0.9194
  114SAPE  H19S11945   6.664   5.885   4.415  0.2058  0.4397  0.5207
  114SAPE  C22011946   6.691   5.759   4.584 -0.2355 -0.6717  0.2692
  114SAPE  H20R11947   6.623   5.791   4.666  0.0884  0.5513  0.0837
  114SAPE  H20S11948   6.790   5.808   4.582  0.4821 -2.0425  0.6343
  114SAPE  H20T11949   6.718   5.652   4.595 -1.4386 -0.9931  0.2943
  114SAPE   C3311950   6.443   5.808   3.272 -0.9336 -0.1283  1.2912
  114SAPE   H3X11951   6.360   5.862   3.322  0.5486  2.0003  1.6038
  114SAPE   H3Y11952   6.525   5.881   3.289 -0.5286 -0.0431 -0.7815
  114SAPE   C3411953   6.470   5.678   3.356  0.0254 -0.7473  0.8291
  114SAPE   H4X11954   6.555   5.633   3.299  0.7154  1.8686 -0.3356
  114SAPE   H4Y11955   6.383   5.609   3.354 -0.3386 -0.3059  1.3122
  114SAPE   C3511956   6.509   5.717   3.502  0.2778  1.1140  0.3769
  114SAPE   H5X11957   6.429   5.780   3.545  0.7123  1.2026  1.0652
  114SAPE   H5Y11958   6.604   5.775   3.503 -0.2816  2.0859 -0.6282
  114SAPE   C3611959   6.519   5.594   3.592  0.5837 -0.1498 -0.8756
  114SAPE   H6X11960   6.590   5.520   3.550  1.8602 -0.3179  1.4274
  114SAPE   H6Y11961   6.418   5.548   3.590  0.2023  0.5087  1.2666
  114SAPE   C3711962   6.559   5.632   3.731  0.2497  0.3446 -0.0779
  114SAPE   H7X11963   6.511   5.727   3.763 -2.2444 -1.4063  1.7843
  114SAPE   H7Y11964   6.670   5.639   3.725  0.3399  0.1679  1.1194
  114SAPE   C3811965   6.525   5.520   3.841 -0.0849 -0.3221  0.4429
  114SAPE   H8X11966   6.558   5.422   3.801 -1.2324  0.5636 -3.1285
  114SAPE   H8Y11967   6.416   5.518   3.860 -0.4136  0.3373 -1.2140
  114SAPE   C3911968   6.592   5.549   3.980  0.5909 -0.3567 -0.5345
  114SAPE   H9X11969   6.558   5.649   4.015  1.6563  0.1202 -0.8462
  114SAPE   H9Y11970   6.700   5.563   3.963  0.9927  1.2163  2.5308
  114SAPE  C31011971   6.557   5.450   4.089 -0.4531 -0.4157 -0.0423
  114SAPE  H10X11972   6.626   5.461   4.175 -0.9077 -0.6815  0.3643
  114SAPE  H10Y11973   6.569   5.350   4.042 -3.2407 -1.9922  2.2090
  114SAPE  C31111974   6.409   5.459   4.133  1.0494  0.5066  0.0033
  114SAPE  H11X11975   6.344   5.405   4.061 -1.0431  2.9859 -0.1083
  114SAPE  H11Y11976   6.387   5.568   4.135  2.1356  0.7283  0.8023
  114SAPE  C31211977   6.383   5.414   4.276  0.5554 -0.2700  0.0413
  114SAPE  H12X11978   6.427   5.494   4.340 -1.9673 -0.8172  2.6743
  114SAPE  H12Y11979   6.439   5.321   4.298  0.3653  0.4907  4.6680
  114SAPE  C31311980   6.236   5.401   4.321 -0.3276  0.1046 -0.3086
  114SAPE  H13X11981   6.194   5.314   4.267 -1.8804  2.0497 -2.4446
  114SAPE  H13Y11982   6.192   5.496   4.283  1.8170  0.7260 -1.3759
  114SAPE  C31411983   6.219   5.393   4.473  0.4448  0.1758  0.4323
  114SAPE  H14X11984   6.275   5.306   4.513 -1.8749 -1.2159  0.7793
  114SAPE  H14Y11985   6.113   5.372   4.497  0.7326 -0.9423  0.7610
  114SAPE  C31511986   6.274   5.503   4.558 -0.1486  0.1919 -0.9720
  114SAPE  H15X11987   6.383   5.516   4.540  0.1153 -0.1425  0.3413
  114SAPE  H15Y11988   6.261   5.468   4.662 -0.1251  0.5843 -0.8375
  114SAPE  C31611989   6.217   5.643   4.534  0.0200 -0.9043 -0.5343
  114SAPE  H16X11990   6.109   5.648   4.510 -0.3762  1.2124  1.3161
  114SAPE  H16Y11991   6.272   5.688   4.449  0.1439 -0.3232 -0.1513
  114SAPE  C31711992   6.257   5.733   4.651  0.1231 -0.3786 -0.2026
  114SAPE  H17X11993   6.366   5.714   4.664 -0.2881 -2.4426  0.7368
  114SAPE  H17Y11994   6.204   5.705   4.745 -2.2553 -1.1834 -1.7049
  114SAPE  C31811995   6.215   5.885   4.643 -1.0065  0.5772  0.5705
  114SAPE  H18X11996   6.262   5.962   4.708  1.1214  0.3162 -0.5718
  114SAPE  H18Y11997   6.104   5.893   4.650 -0.9044  1.2217  1.5439
  114SAPE  H18Z11998   6.244   5.916   4.540 -0.9538  0.2694  0.4895
  115SAPE     N11999   4.121   1.467   1.985 -0.0993  0.1626  0.2131
  115SAPE   HN112000   4.200   1.400   1.980  2.8575  3.2656  1.4238
  115SAPE   HN212001   4.029   1.420   1.972  0.1186 -0.3337  0.4270
  115SAPE   HN312002   4.145   1.529   1.906  0.4260  0.6723  0.7648
  115SAPE   C1212003   4.127   1.550   2.114 -0.9885 -0.4347 -0.4438
  115SAPE  H12A12004   4.218   1.521   2.172 -1.2674 -1.9406 -0.7208
  115SAPE  H12B12005   4.041   1.513   2.173 -0.7747 -1.5383 -0.7945
  115SAPE   C1112006   4.128   1.704   2.083 -0.0444 -0.8048 -0.1951
  115SAPE  H11A12007   4.131   1.759   2.180  1.9904 -0.8068 -0.2131
  115SAPE  H11B12008   4.031   1.714   2.031 -1.1749 -0.7390  1.8138
  115SAPE     P12009   4.377   1.785   2.042  0.5158 -0.0927 -0.0385
  115SAPE   O1312010   4.464   1.780   1.926  0.6312  0.0551 -0.0043
  115SAPE   O1412011   4.384   1.908   2.125 -0.2039  0.5376 -0.5500
  115SAPE   O1212012   4.231   1.758   1.997  0.0110 -0.0716  0.1946
  115SAPE   O1112013   4.404   1.659   2.132  0.1417  0.8442 -0.3981
  115SAPE    C112014   4.526   1.650   2.210  0.2272 -0.4148  0.0586
  115SAPE    HA12015   4.599   1.571   2.181  0.5852  0.7751 -2.5492
  115SAPE    HB12016   4.593   1.738   2.202  0.8060 -0.7044  1.3114
  115SAPE    C212017   4.482   1.649   2.365  0.2555  0.2099  0.0919
  115SAPE    HS12018   4.415   1.562   2.380  0.7550 -0.0574  0.8592
  115SAPE   O2112019   4.428   1.776   2.407 -0.6022  0.7314 -0.3910
  115SAPE   C2112020   4.303   1.776   2.441 -0.2681 -0.8172 -0.3556
  115SAPE   O2212021   4.223   1.681   2.447 -0.1874 -0.0261  0.5701
  115SAPE   C2212022   4.255   1.926   2.450 -0.1290  0.7028 -0.0074
  115SAPE   H2R12023   4.330   1.993   2.403 -0.4290  1.2892  0.3424
  115SAPE   H2S12024   4.160   1.933   2.395 -0.5668  0.7235  0.7382
  115SAPE    C312025   4.604   1.618   2.454  0.3685  0.0760  0.3711
  115SAPE    HX12026   4.674   1.703   2.444 -0.3767  0.6383 -0.1178
  115SAPE    HY12027   4.647   1.528   2.404 -2.2692  0.3295 -2.6549
  115SAPE   O3112028   4.571   1.588   2.592  0.1147 -0.0659  0.5517
  115SAPE   C3112029   4.508   1.477   2.612  0.2950  0.3539 -0.0924
  115SAPE   O3212030   4.474   1.403   2.523 -0.0967  0.4009  0.5626
  115SAPE   C3212031   4.464   1.459   2.761  0.1693  0.1093 -0.4776
  115SAPE   H2X12032   4.410   1.362   2.768  1.0566 -0.2480  3.4078
  115SAPE   H2Y12033   4.389   1.536   2.785 -0.1275 -0.2492 -0.2397
  115SAPE   C2312034   4.258   1.974   2.601 -0.1522 -0.8875  0.5169
  115SAPE   H3R12035   4.223   1.892   2.668  0.6199 -1.3742  0.3401
  115SAPE   H3S12036   4.188   2.060   2.607  1.3818  0.4156  0.5366
  115SAPE   C2412037   4.400   2.023   2.631 -0.2917  0.5277  0.1035
  115SAPE   H4R12038   4.391   2.102   2.709 -0.6872 -0.3721  0.9885
  115SAPE   H4S12039   4.445   2.071   2.540  0.4179 -0.4173 -0.0528
  115SAPE   C2512040   4.491   1.917   2.689 -0.1310 -0.6953 -0.3157
  115SAPE   H5R12041   4.549   1.862   2.613 -0.9433 -1.8749 -0.1074
  115SAPE   C2612042   4.506   1.885   2.822  0.4376 -0.3630 -0.0787
  115SAPE   H6R12043   4.584   1.816   2.858  0.2402 -0.9107 -0.6925
  115SAPE   C2712044   4.421   1.953   2.926  0.1032  0.0939 -0.1075
  115SAPE   H7R12045   4.371   1.874   2.986  1.4385 -0.7035 -0.0098
  115SAPE   H7S12046   4.341   2.008   2.872 -0.6461 -1.6635 -0.8783
  115SAPE   C2812047   4.482   2.053   3.018 -0.0264 -0.7553 -0.6499
  115SAPE   H8R12048   4.541   2.133   2.971 -0.4740  1.0572  1.6825
  115SAPE   C2912049   4.472   2.058   3.157  0.7511 -0.1870  0.5593
  115SAPE   H9R12050   4.529   2.136   3.210 -0.2437 -0.1280  1.5899
  115SAPE  C21012051   4.396   1.962   3.254  0.4024  0.2622  0.2638
  115SAPE  H10R12052   4.473   1.916   3.319  1.6614  0.4323 -1.0529
  115SAPE  H10S12053   4.350   1.867   3.219 -1.4480 -0.0439  3.1333
  115SAPE  C21112054   4.283   2.030   3.337 -0.1233  0.9775  0.5958
  115SAPE  H11R12055   4.225   2.105   3.283 -0.2729 -0.9552 -2.1004
  115SAPE  C21212056   4.242   2.015   3.470  0.6367 -0.0062 -0.2760
  115SAPE  H12R12057   4.160   2.081   3.504  0.0347 -0.2315 -1.2469
  115SAPE  C21312058   4.293   1.920   3.576 -0.7208 -0.7039 -0.1528
  115SAPE  H13R12059   4.400   1.945   3.594 -1.1430  1.6094 -0.4577
  115SAPE  H13S12060   4.289   1.816   3.537 -1.0582 -0.6726 -0.2037
  115SAPE  C21412061   4.219   1.910   3.706  0.4845 -0.3797  0.0513
  115SAPE  H14R12062   4.142   1.987   3.717  1.0650  0.0133  1.6572
  115SAPE  C21512063   4.233   1.821   3.802  0.1560  0.0765  0.3510
  115SAPE  H15R12064   4.172   1.832   3.892 -0.7581  2.1575 -0.4505
  115SAPE  C21612065   4.347   1.717   3.807 -0.0052 -0.5683 -0.0609
  115SAPE  H16R12066   4.413   1.728   3.896  1.8587 -1.4212 -1.2714
  115SAPE  H16S12067   4.411   1.727   3.717  0.4503  1.9922  0.4656
  115SAPE  C21712068   4.294   1.574   3.802  0.5303 -0.6013 -0.1055
  115SAPE  H17R12069   4.325   1.523   3.708 -0.2301 -0.9173 -0.1910
  115SAPE  H17S12070   4.183   1.571   3.798  0.4656 -0.0483  0.9120
  115SAPE  C21812071   4.351   1.506   3.924  0.2207  0.1707  0.2851
  115SAPE  H18R12072   4.318   1.553   4.018  0.3205 -1.1685  1.0181
  115SAPE  H18S12073   4.461   1.518   3.928  0.0753  1.4093  0.7825
  115SAPE  C21912074   4.307   1.358   3.932  0.6254 -0.5555  0.0589
  115SAPE  H19R12075   4.345   1.301   3.844 -0.0688 -0.3493 -0.3800
  115SAPE  H19S12076   4.198   1.338   3.936  0.6928 -1.8761 -2.3642
  115SAPE  C22012077   4.375   1.288   4.052 -0.0458 -0.0915  0.6889
  115SAPE  H20R12078   4.366   1.177   4.048 -1.9299  0.0258  1.0583
  115SAPE  H20S12079   4.321   1.315   4.145  0.3260 -3.5613  2.0582
  115SAPE  H20T12080   4.480   1.322   4.061 -0.2401  1.1395 -1.1152
  115SAPE   C3312081   4.581   1.462   2.862 -0.7888  0.2701 -0.5716
  115SAPE   H3X12082   4.667   1.533   2.861  0.2207 -0.8872  0.8788
  115SAPE   H3Y12083   4.637   1.367   2.854  1.2836  1.5008 -1.5111
  115SAPE   C3412084   4.519   1.472   3.003  0.1811  0.3332  0.0310
  115SAPE   H4X12085   4.468   1.374   3.011  4.0269 -2.1786 -2.5305
  115SAPE   H4Y12086   4.435   1.543   3.017 -1.7728 -2.0192  0.8621
  115SAPE   C3512087   4.626   1.489   3.108  0.2199 -0.5721  0.0311
  115SAPE   H5X12088   4.686   1.580   3.085 -3.2823  1.6780 -1.1940
  115SAPE   H5Y12089   4.696   1.407   3.082 -0.7441 -0.6701 -2.6550
  115SAPE   C3612090   4.571   1.505   3.249  0.9051 -1.1238  0.2237
  115SAPE   H6X12091   4.485   1.437   3.267 -0.9221  0.7342 -1.0778
  115SAPE   H6Y12092   4.543   1.612   3.257  1.9847 -0.9144  1.7270
  115SAPE   C3712093   4.687   1.494   3.345  0.4695  0.5162  0.3044
  115SAPE   H7X12094   4.762   1.576   3.348  0.0056  0.9383  0.4532
  115SAPE   H7Y12095   4.727   1.393   3.321 -1.8274 -0.0704 -1.3476
  115SAPE   C3812096   4.629   1.502   3.494  0.2287 -0.8167  0.7032
  115SAPE   H8X12097   4.555   1.419   3.502 -0.1000 -0.3847  2.3381
  115SAPE   H8Y12098   4.575   1.597   3.512  2.1619  0.6380 -0.6874
  115SAPE   C3912099   4.733   1.487   3.607 -1.0201 -0.7132  0.1336
  115SAPE   H9X12100   4.812   1.565   3.600 -1.1150 -0.3644  2.3015
  115SAPE   H9Y12101   4.775   1.384   3.598 -1.8855 -1.1791  1.1425
  115SAPE  C31012102   4.671   1.498   3.749  0.0000  0.4385  0.3143
  115SAPE  H10X12103   4.587   1.428   3.768 -1.0027  1.9317  1.6284
  115SAPE  H10Y12104   4.612   1.591   3.764 -1.8826 -0.6976  0.3743
  115SAPE  C31112105   4.777   1.484   3.862  0.8246  0.7110  0.1661
  115SAPE  H11X12106   4.867   1.533   3.821 -0.3392  1.6605 -1.3656
  115SAPE  H11Y12107   4.796   1.377   3.886 -1.1916  0.3179  0.2391
  115SAPE  C31212108   4.724   1.549   3.989 -0.6007 -0.4088 -0.1143
  115SAPE  H12X12109   4.638   1.490   4.028 -0.6241 -0.2503  0.0762
  115SAPE  H12Y12110   4.693   1.653   3.963  0.0245 -0.4879 -1.2211
  115SAPE  C31312111   4.840   1.578   4.089  0.3015  0.6029 -0.0705
  115SAPE  H13X12112   4.797   1.621   4.182  1.2594  0.7050  0.3309
  115SAPE  H13Y12113   4.908   1.648   4.037  2.1571 -0.7264  0.4747
  115SAPE  C31412114   4.933   1.462   4.121  0.0972  0.2361 -0.7848
  115SAPE  H14X12115   4.992   1.427   4.033  0.0764 -2.0060  0.0255
  115SAPE  H14Y12116   4.875   1.376   4.162  1.3471 -0.8209 -1.1469
  115SAPE  C31512117   5.038   1.494   4.237  0.4379  0.0724  0.4464
  115SAPE  H15X12118   5.048   1.405   4.302  1.7154  0.6771  1.1066
  115SAPE  H15Y12119   4.988   1.566   4.306 -0.2175 -0.5924  0.6764
  115SAPE  C31612120   5.181   1.549   4.200  0.9569 -0.7880  0.2658
  115SAPE  H16X12121   5.232   1.459   4.157  1.0123 -0.0811 -1.2096
  115SAPE  H16Y12122   5.225   1.578   4.298 -1.5459 -2.1235  1.8801
  115SAPE  C31712123   5.178   1.674   4.103 -0.1504  0.9053  0.4821
  115SAPE  H17X12124   5.087   1.735   4.123 -1.7449 -1.0009 -0.6565
  115SAPE  H17Y12125   5.164   1.635   4.000 -1.5883 -0.9350  1.3067
  115SAPE  C31812126   5.300   1.763   4.106  0.1766 -0.0621 -0.8343
  115SAPE  H18X12127   5.305   1.826   4.015  1.0693  0.6850 -0.2913
  115SAPE  H18Y12128   5.393   1.701   4.106  1.8186  2.0828  2.6312
  115SAPE  H18Z12129   5.309   1.821   4.200 -0.1264  1.0764 -1.4910
  116SAPE     N12130   4.604   3.275   1.933  0.1369 -0.1267 -0.5662
  116SAPE   HN112131   4.581   3.196   1.996 -0.0535 -0.5308 -1.1307
  116SAPE   HN212132   4.651   3.239   1.847  0.0675  0.7984 -1.0045
  116SAPE   HN312133   4.676   3.336   1.976  1.2225 -2.2549  0.8048
  116SAPE   C1212134   4.470   3.333   1.921  0.7769  0.2913  0.1362
  116SAPE  H12A12135   4.402   3.250   1.894  0.5066 -0.0500  1.7776
  116SAPE  H12B12136   4.461   3.405   1.836  1.5114  3.3684  2.4864
  116SAPE   C1112137   4.418   3.398   2.058 -0.4584 -0.5049  0.3430
  116SAPE  H11A12138   4.312   3.431   2.060 -0.5807 -0.8310 -0.5202
  116SAPE  H11B12139   4.480   3.490   2.068  2.5990 -2.3049 -0.7240
  116SAPE     P12140   4.371   3.173   2.191 -0.6193  0.3122 -0.3978
  116SAPE   O1312141   4.234   3.178   2.144  0.7946 -0.4407  0.2066
  116SAPE   O1412142   4.459   3.092   2.109  0.0280 -0.0554  0.5062
  116SAPE   O1212143   4.436   3.315   2.170 -0.4720 -0.2221 -0.3312
  116SAPE   O1112144   4.391   3.129   2.341  0.3264 -0.0329  0.2105
  116SAPE    C112145   4.398   3.221   2.447 -0.3586 -0.4871  0.1461
  116SAPE    HA12146   4.498   3.238   2.492 -0.8910  0.0513  1.1523
  116SAPE    HB12147   4.375   3.323   2.409  2.5828 -0.3435 -1.5665
  116SAPE    C212148   4.295   3.193   2.556 -0.2892 -0.2257  0.7717
  116SAPE    HS12149   4.312   3.259   2.643 -2.7230  1.9935 -0.3064
  116SAPE   O2112150   4.300   3.052   2.598  0.1573  0.6015  0.1982
  116SAPE   C2112151   4.392   3.031   2.681  0.7211  0.2520  0.0173
  116SAPE   O2212152   4.478   3.105   2.722  0.1623  0.3581  0.0462
  116SAPE   C2212153   4.372   2.884   2.738 -0.4520  0.2224 -0.1363
  116SAPE   H2R12154   4.267   2.886   2.776 -0.5190 -1.3277 -0.1681
  116SAPE   H2S12155   4.366   2.814   2.651  1.5011 -1.7542  1.2080
  116SAPE    C312156   4.154   3.220   2.518 -0.0963  0.0021  0.0988
  116SAPE    HX12157   4.115   3.168   2.428 -1.7513 -0.1679  0.8636
  116SAPE    HY12158   4.162   3.328   2.492  2.5033 -0.1271  0.0734
  116SAPE   O3112159   4.067   3.214   2.637  0.0540 -0.2256 -0.0265
  116SAPE   C3112160   3.942   3.251   2.631  0.0992 -0.4392  0.0755
  116SAPE   O3212161   3.875   3.264   2.528 -0.3601 -1.0053  0.2874
  116SAPE   C3212162   3.881   3.255   2.774 -1.0246 -0.2463  0.8119
  116SAPE   H2X12163   3.861   3.155   2.818 -0.7818 -0.3550  0.6789
  116SAPE   H2Y12164   3.785   3.310   2.760 -1.1003 -0.6681 -0.4552
  116SAPE   C2312165   4.474   2.841   2.849  0.7940 -0.1869  0.0202
  116SAPE   H3R12166   4.574   2.884   2.825  0.1730  1.4181  0.2193
  116SAPE   H3S12167   4.490   2.732   2.858  0.0381 -0.1502  2.2983
  116SAPE   C2412168   4.411   2.875   2.992  0.9891  0.2726 -0.1918
  116SAPE   H4R12169   4.455   2.798   3.059  0.5630 -1.1165 -1.4409
  116SAPE   H4S12170   4.309   2.833   2.984  0.4415  1.6173 -0.6088
  116SAPE   C2512171   4.406   3.025   3.023 -0.1848  0.7503  0.4818
  116SAPE   H5R12172   4.409   3.101   2.944  0.3033 -0.6299 -0.8708
  116SAPE   C2612173   4.401   3.076   3.151 -0.4062  0.1183 -0.3487
  116SAPE   H6R12174   4.406   3.184   3.172 -2.8527  0.3613 -0.6102
  116SAPE   C2712175   4.406   2.994   3.277  0.0678 -0.0531 -0.2436
  116SAPE   H7R12176   4.365   2.891   3.283 -0.7203  0.2845  0.6038
  116SAPE   H7S12177   4.354   3.052   3.357  0.1296 -2.7966  1.9512
  116SAPE   C2812178   4.548   2.964   3.323  0.1340  0.8439 -0.1166
  116SAPE   H8R12179   4.612   2.921   3.244 -0.7837  1.7527 -1.4120
  116SAPE   C2912180   4.584   2.940   3.448  0.0558  0.4278 -0.2754
  116SAPE   H9R12181   4.691   2.917   3.465  0.3720  0.5945 -1.8670
  116SAPE  C21012182   4.521   2.963   3.576  0.2360  0.0010  1.0196
  116SAPE  H10R12183   4.493   3.070   3.567 -0.7494 -0.3908 -1.6283
  116SAPE  H10S12184   4.590   2.955   3.662  1.6066  0.7108  0.0273
  116SAPE  C21112185   4.405   2.868   3.601  0.1158  0.5508  0.3237
  116SAPE  H11R12186   4.412   2.773   3.545 -1.1104  1.8457 -2.2363
  116SAPE  C21212187   4.295   2.891   3.674  0.1650 -0.6458 -0.4670
  116SAPE  H12R12188   4.213   2.818   3.680 -1.2624  0.8962 -0.5202
  116SAPE  C21312189   4.273   3.022   3.745 -0.0224 -0.2173 -0.0149
  116SAPE  H13R12190   4.306   3.106   3.680  0.3641  0.8663  1.5351
  116SAPE  H13S12191   4.343   3.020   3.832 -0.9072  0.3230  0.7238
  116SAPE  C21412192   4.131   3.048   3.789  0.8175  0.3256  0.3177
  116SAPE  H14R12193   4.077   3.104   3.711  1.4424 -1.2806 -1.3375
  116SAPE  C21512194   4.062   2.995   3.895  0.3906 -0.5503 -0.3940
  116SAPE  H15R12195   3.957   3.022   3.909  0.6484  1.3178 -1.5324
  116SAPE  C21612196   4.123   2.883   3.979  0.1478  0.1442  0.8091
  116SAPE  H16R12197   4.153   2.927   4.076 -1.0342  2.1922  0.2993
  116SAPE  H16S12198   4.218   2.834   3.949  0.0421  1.0039 -1.1280
  116SAPE  C21712199   4.027   2.779   4.039  0.4687  0.2439 -0.1191
  116SAPE  H17R12200   3.996   2.708   3.959 -1.4046 -1.6833  2.1655
  116SAPE  H17S12201   3.935   2.821   4.084  1.5148  0.2906  2.1510
  116SAPE  C21812202   4.094   2.695   4.150 -0.0876  0.3637  0.7259
  116SAPE  H18R12203   4.161   2.765   4.205 -0.6014  0.0769  1.7237
  116SAPE  H18S12204   4.155   2.610   4.114 -2.5546 -2.3093  2.4814
  116SAPE  C21912205   3.987   2.632   4.241 -1.0620  0.8819 -0.0020
  116SAPE  H19R12206   3.928   2.560   4.181  0.6483 -0.9789  0.4038
  116SAPE  H19S12207   3.917   2.712   4.273 -0.7939  0.0383  3.0945
  116SAPE  C22012208   4.049   2.547   4.352  0.9774  0.2074  0.4443
  116SAPE  H20R12209   4.125   2.480   4.305 -1.3882 -0.1957 -3.2251
  116SAPE  H20S12210   3.976   2.481   4.403  1.4612  0.4909  1.5388
  116SAPE  H20T12211   4.096   2.606   4.433  1.5797  0.0168  0.2435
  116SAPE   C3312212   3.965   3.332   2.881 -0.8457  0.4209 -0.0335
  116SAPE   H3X12213   4.066   3.287   2.891  0.2385  3.1821  3.4742
  116SAPE   H3Y12214   3.909   3.318   2.976 -3.6725  1.4946 -1.4087
  116SAPE   C3412215   3.970   3.483   2.878 -1.2108 -0.2119 -0.2718
  116SAPE   H4X12216   3.872   3.521   2.841  0.1168  0.2691 -3.5591
  116SAPE   H4Y12217   4.049   3.505   2.803 -1.3228 -0.3018 -0.4157
  116SAPE   C3512218   4.000   3.546   3.010 -0.7915 -0.1177 -0.5533
  116SAPE   H5X12219   4.100   3.525   3.054  0.4006  1.7946 -2.1584
  116SAPE   H5Y12220   3.932   3.518   3.093  1.3048 -0.2169  1.2478
  116SAPE   C3612221   3.988   3.703   3.005 -0.0200  0.3711  0.0149
  116SAPE   H6X12222   4.043   3.743   2.917  0.0561  0.4713  0.1077
  116SAPE   H6Y12223   4.036   3.750   3.093 -1.2180  1.7002  0.0119
  116SAPE   C3712224   3.852   3.753   3.016  0.1572 -0.1069 -0.0732
  116SAPE   H7X12225   3.787   3.713   2.935 -2.0646 -0.5904  1.8290
  116SAPE   H7Y12226   3.853   3.862   2.995  1.1068 -0.0471  0.2495
  116SAPE   C3812227   3.779   3.742   3.153  0.2436 -0.1074  0.4607
  116SAPE   H8X12228   3.821   3.807   3.233  0.5761 -1.7808  1.7020
  116SAPE   H8Y12229   3.787   3.635   3.180 -2.2739 -0.8338 -1.3040
  116SAPE   C3912230   3.628   3.768   3.154  0.3163  0.0262  0.6088
  116SAPE   H9X12231   3.562   3.698   3.097  0.5214 -0.7031  1.2510
  116SAPE   H9Y12232   3.608   3.874   3.125 -3.6984 -0.4797  0.9026
  116SAPE  C31012233   3.575   3.778   3.297  0.5780 -0.4195  0.4279
  116SAPE  H10X12234   3.617   3.874   3.333  0.5103 -0.6562  1.1371
  116SAPE  H10Y12235   3.617   3.692   3.352  0.0503 -0.3237  0.9849
  116SAPE  C31112236   3.419   3.779   3.300  0.1704 -0.1051  0.0776
  116SAPE  H11X12237   3.378   3.686   3.256 -3.8006  0.9940  1.0027
  116SAPE  H11Y12238   3.379   3.853   3.227  0.8824  0.4024  0.1949
  116SAPE  C31212239   3.360   3.811   3.438 -0.5117 -0.3112  0.6215
  116SAPE  H12X12240   3.374   3.719   3.498  2.2591 -0.5921 -0.3225
  116SAPE  H12Y12241   3.251   3.828   3.422 -1.0008 -2.2608  1.6141
  116SAPE  C31312242   3.431   3.933   3.502  0.0613  0.2244  0.1590
  116SAPE  H13X12243   3.447   4.017   3.431  1.5242 -0.4251 -0.3244
  116SAPE  H13Y12244   3.531   3.899   3.535 -0.8192 -1.2100  1.5346
  116SAPE  C31412245   3.347   3.988   3.628  0.1782 -0.8962  0.5034
  116SAPE  H14X12246   3.262   4.032   3.571 -0.0098 -0.2504  1.2664
  116SAPE  H14Y12247   3.405   4.064   3.684 -0.4628 -0.1912  0.2303
  116SAPE  C31512248   3.273   3.885   3.710 -0.1148 -0.5856 -0.2941
  116SAPE  H15X12249   3.340   3.826   3.776 -0.7309  0.3136  1.1874
  116SAPE  H15Y12250   3.216   3.818   3.642 -0.6252 -0.9898  0.5102
  116SAPE  C31612251   3.177   3.962   3.805  0.1905 -0.1966  0.5449
  116SAPE  H16X12252   3.133   4.054   3.761  1.9268 -0.0035 -0.8604
  116SAPE  H16Y12253   3.236   4.006   3.889  0.0933  0.7738  0.1208
  116SAPE  C31712254   3.075   3.876   3.874 -0.1218 -0.2870  0.5759
  116SAPE  H17X12255   2.993   3.842   3.806  1.2597 -2.1989 -0.2239
  116SAPE  H17Y12256   3.022   3.934   3.953 -1.9787 -0.3273 -0.5654
  116SAPE  C31812257   3.128   3.756   3.942 -0.0413 -0.1963  0.9903
  116SAPE  H18X12258   3.163   3.680   3.868 -1.1192 -1.3428  1.6303
  116SAPE  H18Y12259   3.047   3.705   3.998  0.0539  0.6134  1.8882
  116SAPE  H18Z12260   3.203   3.763   4.023  0.4060  1.5071  0.4742
  117SOPE     N12261   0.156   2.319   6.947 -0.3007  0.1103 -0.1206
  117SOPE   HN112262   0.143   2.251   6.869 -0.7430  1.7416 -1.5275
  117SOPE   HN212263   0.074   2.334   7.009 -0.5431 -3.6406  0.7090
  117SOPE   HN312264   0.188   2.407   6.903  1.5761  0.5481  1.9533
  117SOPE   C1212265   0.275   2.270   7.038  0.7139  0.8427  0.2961
  117SOPE  H12A12266   0.351   2.236   6.964  1.5921  2.5634  0.3526
  117SOPE  H12B12267   0.231   2.178   7.081  0.0024 -0.2529 -2.5063
  117SOPE   C1112268   0.346   2.377   7.123 -0.6657 -1.0222 -0.0988
  117SOPE  H11A12269   0.454   2.351   7.131 -0.5252 -0.5958 -0.5456
  117SOPE  H11B12270   0.309   2.383   7.228 -2.1584  3.2812 -0.6786
  117SOPE     P12271   0.443   2.621   7.080 -0.1471  0.2959  0.0152
  117SOPE   O1312272   0.535   2.579   7.190 -0.6754 -0.1807  0.4491
  117SOPE   O1412273   0.378   2.753   7.096  0.5882  0.5496  0.2944
  117SOPE   O1212274   0.328   2.510   7.066 -0.2266 -0.6172 -0.5403
  117SOPE   O1112275   0.509   2.610   6.935  0.1432 -0.3428 -0.6666
  117SOPE    C112276   0.634   2.665   6.902  0.3470 -0.0658  0.5688
  117SOPE    HA12277   0.692   2.599   6.834 -0.1042  2.9799 -3.1146
  117SOPE    HB12278   0.702   2.692   6.986  0.8266  1.9614 -0.4167
  117SOPE    C212279   0.617   2.797   6.815  0.2235 -0.3412  0.0249
  117SOPE    HS12280   0.532   2.855   6.855 -0.0029 -0.9840  0.4958
  117SOPE   O2112281   0.592   2.758   6.681 -0.3973  0.1278 -0.1830
  117SOPE   C2112282   0.464   2.738   6.645  0.0483  0.6205 -0.5583
  117SOPE   O2212283   0.363   2.755   6.716  0.8568  0.2208  0.3777
  117SOPE   C2212284   0.463   2.673   6.513  0.3511  0.4062  0.2909
  117SOPE   H2R12285   0.478   2.565   6.533  1.1092  0.2380 -1.0753
  117SOPE   H2S12286   0.547   2.713   6.452  0.6344  1.1971  1.1722
  117SOPE    C312287   0.732   2.898   6.828 -0.3165 -0.4832  0.9816
  117SOPE    HX12288   0.830   2.852   6.803 -0.1614  0.2934  0.1461
  117SOPE    HY12289   0.736   2.918   6.938 -1.9675 -0.1302  1.0107
  117SOPE   O3112290   0.714   3.016   6.749 -0.2078 -0.4505 -1.1584
  117SOPE   C3112291   0.627   3.111   6.794  0.3778 -0.2859 -0.0849
  117SOPE   O3212292   0.574   3.107   6.905  0.2639  0.4111 -0.2408
  117SOPE   C3212293   0.623   3.217   6.684  0.0571 -0.4279 -0.3845
  117SOPE   H2X12294   0.647   3.176   6.584  0.5947  0.6473 -0.7120
  117SOPE   H2Y12295   0.707   3.286   6.707 -0.2847 -0.1515  0.0600
  117SOPE   C2312296   0.331   2.686   6.445  0.3220 -0.1186 -0.2848
  117SOPE   H3R12297   0.301   2.787   6.408  0.2437  0.5522  1.5279
  117SOPE   H3S12298   0.246   2.645   6.503 -0.7242  1.7374 -0.4172
  117SOPE   C2412299   0.333   2.597   6.323  0.3485 -0.0023  0.1172
  117SOPE   H4R12300   0.333   2.490   6.354  2.1174  0.3843  1.7171
  117SOPE   H4S12301   0.239   2.622   6.271  0.3228 -3.3786 -1.7545
  117SOPE   C2512302   0.453   2.617   6.230  0.0060  0.3706 -0.3281
  117SOPE   H5R12303   0.453   2.726   6.211  0.7452  0.3375 -0.5521
  117SOPE   H5S12304   0.557   2.598   6.266  0.4561 -0.5361 -2.0075
  117SOPE   C2612305   0.436   2.545   6.099  0.8086  0.5112 -0.4521
  117SOPE   H6R12306   0.531   2.492   6.077  0.7705 -0.8369  2.2802
  117SOPE   H6S12307   0.359   2.468   6.117 -1.8992  2.9871 -0.7531
  117SOPE   C2712308   0.391   2.636   5.982  0.1404  0.2731 -0.4108
  117SOPE   H7R12309   0.381   2.571   5.893 -1.5866 -1.0853  0.7020
  117SOPE   H7S12310   0.289   2.675   6.002  0.7258  1.0965  1.1654
  117SOPE   C2812311   0.487   2.755   5.958  0.4924  0.1743 -0.0153
  117SOPE   H8R12312   0.485   2.820   6.048  1.5290 -0.6460  0.6144
  117SOPE   H8S12313   0.589   2.714   5.943 -0.5889 -1.8101 -2.9054
  117SOPE   C2912314   0.455   2.810   5.820  0.7295  0.7638 -0.5501
  117SOPE   H9112315   0.400   2.743   5.753 -1.7648 -1.4416  3.3531
  117SOPE  C21012316   0.477   2.935   5.786  0.8188  0.0647 -0.2529
  117SOPE  H10112317   0.465   2.968   5.682 -0.4569  1.5622  0.3247
  117SOPE  C21112318   0.547   3.040   5.868  0.5908 -0.5186 -0.1308
  117SOPE  H11R12319   0.593   3.004   5.963  0.2613  0.5456  0.4460
  117SOPE  H11S12320   0.468   3.117   5.882 -1.6345 -2.1875 -2.5066
  117SOPE  C21212321   0.668   3.101   5.792 -0.1889 -0.1700 -0.5470
  117SOPE  H12R12322   0.753   3.034   5.767 -2.0601 -1.7869 -3.0225
  117SOPE  H12S12323   0.698   3.179   5.865 -3.6182 -0.0824  0.9222
  117SOPE  C21312324   0.628   3.185   5.668  0.5127 -0.5590 -0.0349
  117SOPE  H13R12325   0.607   3.288   5.702  3.4123 -0.1947  0.9255
  117SOPE  H13S12326   0.529   3.157   5.624 -1.8050  1.6692  3.2937
  117SOPE  C21412327   0.748   3.179   5.573  0.8485  0.3849  0.1352
  117SOPE  H14R12328   0.767   3.072   5.547 -0.9206  0.0085  0.2395
  117SOPE  H14S12329   0.838   3.217   5.626  1.0961 -0.6220  0.4658
  117SOPE  C21512330   0.747   3.264   5.443 -0.0779  0.3634 -0.1461
  117SOPE  H15R12331   0.844   3.245   5.393 -0.6520 -2.1409 -0.4165
  117SOPE  H15S12332   0.743   3.371   5.473  1.5191  0.6131 -0.7207
  117SOPE  C21612333   0.635   3.237   5.345  0.2303 -0.4592  0.2598
  117SOPE  H16R12334   0.535   3.272   5.378  0.4911  1.6508 -1.0405
  117SOPE  H16S12335   0.631   3.126   5.336 -1.6223 -0.3904 -0.3196
  117SOPE  C21712336   0.657   3.311   5.211  0.1658  0.1149 -0.0699
  117SOPE  H17R12337   0.761   3.294   5.176 -0.3785  0.1645 -1.8335
  117SOPE  H17S12338   0.644   3.419   5.233 -1.0735 -0.0289 -0.0217
  117SOPE  C21812339   0.568   3.261   5.093 -0.2536 -0.6081  0.0168
  117SOPE  H18R12340   0.461   3.263   5.124 -0.2375  0.6529  0.0725
  117SOPE  H18S12341   0.594   3.155   5.073 -1.0427 -1.1012  1.5036
  117SOPE  H18T12342   0.579   3.326   5.003 -1.3418  0.2792  0.4897
  117SOPE   C3312343   0.490   3.306   6.676  0.0378 -0.3126 -0.5777
  117SOPE   H3X12344   0.509   3.394   6.609  1.3050 -1.1663 -1.3883
  117SOPE   H3Y12345   0.480   3.355   6.775 -0.0303 -0.5128 -0.4857
  117SOPE   C3412346   0.358   3.224   6.652  0.7392 -0.2958  0.3895
  117SOPE   H4X12347   0.275   3.293   6.624 -0.6542 -1.3971  1.6683
  117SOPE   H4Y12348   0.324   3.176   6.746  0.6431 -0.3770  0.3133
  117SOPE   C3512349   0.372   3.101   6.554  0.8158 -0.2889  0.6486
  117SOPE   H5X12350   0.275   3.049   6.560  1.3077 -1.0827  2.6817
  117SOPE   H5Y12351   0.446   3.029   6.595  0.0470 -1.1365  0.5782
  117SOPE   C3612352   0.402   3.154   6.411 -0.3860  0.2865  0.3098
  117SOPE   H6X12353   0.424   3.065   6.348 -3.6651  0.0139 -0.6560
  117SOPE   H6Y12354   0.495   3.213   6.428  0.1014 -0.1311 -0.8483
  117SOPE   C3712355   0.300   3.248   6.349  0.1940  0.0038 -0.1093
  117SOPE   H7X12356   0.295   3.341   6.411 -0.6990  0.3288 -0.6570
  117SOPE   H7Y12357   0.207   3.191   6.368  1.3440 -1.7654  0.5055
  117SOPE   C3812358   0.347   3.294   6.207 -0.6076  0.0078 -0.2368
  117SOPE   H8X12359   0.361   3.198   6.154 -1.0115 -0.5876  0.7111
  117SOPE   H8Y12360   0.439   3.354   6.225 -1.0968  0.9380 -0.7712
  117SOPE   C3912361   0.237   3.371   6.142  0.4279 -0.5272  1.0219
  117SOPE   H9X12362   0.237   3.479   6.169 -1.3122  0.3345 -2.0067
  117SOPE   H9Y12363   0.138   3.328   6.168 -1.0275  0.4289 -2.3570
  117SOPE  C31012364   0.247   3.357   5.984  0.2125 -0.1629 -0.6361
  117SOPE  H10X12365   0.223   3.262   5.932 -1.5658  1.3316 -2.7000
  117SOPE  H10Y12366   0.342   3.403   5.950  0.3030 -0.0565 -0.2436
  117SOPE  C31112367   0.161   3.464   5.922  0.4713 -0.4391  0.7295
  117SOPE  H11X12368   0.184   3.565   5.960  2.6895 -1.0639  1.2163
  117SOPE  H11Y12369   0.055   3.438   5.945 -0.0150  0.1415 -0.7161
  117SOPE  C31212370   0.154   3.472   5.767  0.4531 -0.0542  1.0425
  117SOPE  H12X12371   0.104   3.380   5.732  0.1206 -0.4937  2.5955
  117SOPE  H12Y12372   0.259   3.477   5.731  0.2654 -1.6216  0.1850
  117SOPE  C31312373   0.065   3.592   5.717  0.3047 -0.0713  0.4597
  117SOPE  H13X12374   0.119   3.689   5.723 -2.3778  1.7454 -1.9807
  117SOPE  H13Y12375  -0.018   3.595   5.791 -0.0223 -2.9582  0.3019
  117SOPE  C31412376   0.012   3.576   5.579  0.2922 -0.1512 -0.2370
  117SOPE  H14X12377  -0.029   3.677   5.557 -0.7536 -0.4014  0.4691
  117SOPE  H14Y12378  -0.071   3.502   5.572  0.5109 -0.2287 -2.6829
  117SOPE  C31512379   0.124   3.537   5.477  0.8277 -0.5398 -0.1724
  117SOPE  H15X12380   0.171   3.440   5.504  1.5418 -0.3638 -0.7352
  117SOPE  H15Y12381   0.200   3.615   5.500  1.7274 -1.6010  0.5733
  117SOPE  C31612382   0.069   3.531   5.337  0.2094 -0.1268  0.5356
  117SOPE  H16X12383   0.030   3.635   5.328  1.3288  0.3631  1.1581
  117SOPE  H16Y12384  -0.018   3.462   5.332  0.9726 -1.1841  1.4481
  117SOPE  C31712385   0.151   3.520   5.214 -0.5169  1.1554  0.5075
  117SOPE  H17X12386   0.195   3.418   5.220  2.9102  2.5710  1.7548
  117SOPE  H17Y12387   0.237   3.589   5.213  0.3510  0.1028  0.8125
  117SOPE  C31812388   0.073   3.541   5.087 -0.0769  0.1160 -0.3601
  117SOPE  H18X12389  -0.027   3.492   5.090 -0.3206  0.6229  2.1273
  117SOPE  H18Y12390   0.124   3.500   4.997 -0.1366 -0.6490 -0.0581
  117SOPE  H18Z12391   0.061   3.651   5.079 -1.4742  0.0523  0.5026
  118SOPE     N12392   0.308   3.670   6.966  0.5715  0.1538  0.1042
  118SOPE   HN112393   0.266   3.592   6.911 -0.1639 -1.8911  3.2570
  118SOPE   HN212394   0.233   3.688   7.036  1.0537 -0.5883  0.8370
  118SOPE   HN312395   0.333   3.754   6.910 -1.2895  0.3443 -0.5179
  118SOPE   C1212396   0.445   3.630   7.027 -0.0993  0.0094  0.4467
  118SOPE  H12A12397   0.424   3.535   7.081  1.1509 -0.5634 -0.0338
  118SOPE  H12B12398   0.471   3.703   7.106  0.0707  0.9355 -0.4395
  118SOPE   C1112399   0.556   3.626   6.927 -0.3076  0.1043  0.4286
  118SOPE  H11A12400   0.552   3.711   6.856  2.6221 -1.0913 -1.3716
  118SOPE  H11B12401   0.551   3.538   6.859  0.4977 -0.4654  1.0890
  118SOPE     P12402   0.798   3.712   7.006  0.3100  0.3693 -0.1112
  118SOPE   O1312403   0.927   3.647   7.041 -0.3697 -0.0967 -0.8243
  118SOPE   O1412404   0.751   3.825   7.095 -0.3652  0.5319 -0.5205
  118SOPE   O1212405   0.688   3.605   6.987  0.9671 -0.5929  0.6473
  118SOPE   O1112406   0.814   3.765   6.860  0.6916  0.2168 -0.0678
  118SOPE    C112407   0.875   3.682   6.766  1.2695  0.1751 -0.0421
  118SOPE    HA12408   0.924   3.593   6.810  1.8419  0.9572  0.9329
  118SOPE    HB12409   0.969   3.736   6.743 -0.1728  2.9990  0.3252
  118SOPE    C212410   0.804   3.640   6.644  0.0138  0.0022  0.2433
  118SOPE    HS12411   0.706   3.597   6.674 -0.6200  1.1365 -0.1127
  118SOPE   O2112412   0.887   3.544   6.573 -0.2517 -0.6505  0.1815
  118SOPE   C2112413   0.821   3.455   6.503 -0.4152 -0.3250 -0.9671
  118SOPE   O2212414   0.702   3.454   6.487  0.3944  0.0899 -0.2304
  118SOPE   C2212415   0.915   3.336   6.455 -0.3367  0.1386 -0.3566
  118SOPE   H2R12416   0.893   3.264   6.537  1.8489 -1.7186 -1.2803
  118SOPE   H2S12417   1.021   3.370   6.455 -0.2183 -0.2146 -1.0662
  118SOPE    C312418   0.782   3.764   6.551 -0.6391  0.5900  0.3215
  118SOPE    HX12419   0.875   3.823   6.543  0.3992 -1.1944 -1.9482
  118SOPE    HY12420   0.707   3.829   6.601 -0.9310 -0.9507  2.0149
  118SOPE   O3112421   0.735   3.734   6.416 -0.1150 -0.0049 -0.4382
  118SOPE   C3112422   0.609   3.709   6.390 -0.2613 -0.4827  0.1685
  118SOPE   O3212423   0.519   3.691   6.472 -0.1473 -0.2069  0.5983
  118SOPE   C3212424   0.582   3.710   6.235  0.0763  0.2752  0.7396
  118SOPE   H2X12425   0.601   3.811   6.193 -0.3187  0.1046  0.1441
  118SOPE   H2Y12426   0.474   3.692   6.217  0.0941  0.6251  0.2411
  118SOPE   C2312427   0.878   3.280   6.324 -0.2531 -0.1687 -0.8030
  118SOPE   H3R12428   0.769   3.278   6.305 -0.1529  1.7198 -1.7874
  118SOPE   H3S12429   0.916   3.176   6.314  1.9313  0.2940  1.5994
  118SOPE   C2412430   0.948   3.347   6.206  0.1563 -0.5733  0.0376
  118SOPE   H4R12431   0.914   3.452   6.194  3.4197  0.3872 -1.8213
  118SOPE   H4S12432   1.055   3.356   6.233  0.5146 -2.2456 -0.7192
  118SOPE   C2512433   0.948   3.266   6.070 -0.2705  0.4243 -0.4506
  118SOPE   H5R12434   0.975   3.161   6.093  2.8737  0.8537 -1.6252
  118SOPE   H5S12435   0.843   3.276   6.037 -0.3614  0.7299 -0.0825
  118SOPE   C2612436   1.041   3.320   5.962  0.2578  0.1684  0.3857
  118SOPE   H6R12437   1.037   3.431   5.955 -0.0765  0.0930 -1.0252
  118SOPE   H6S12438   1.148   3.298   5.985  0.8476  0.3315 -1.8912
  118SOPE   C2712439   0.997   3.296   5.821 -0.1010  0.5370 -0.0214
  118SOPE   H7R12440   0.975   3.188   5.806  2.5806 -0.2295  1.0748
  118SOPE   H7S12441   0.905   3.356   5.810 -0.1643  0.6708  1.1592
  118SOPE   C2812442   1.098   3.344   5.718 -0.1655 -0.1881  0.5772
  118SOPE   H8R12443   1.196   3.310   5.756  0.2076  0.6452  0.3810
  118SOPE   H8S12444   1.067   3.288   5.627 -1.6260  2.2968 -0.5767
  118SOPE   C2912445   1.105   3.491   5.685  0.2000 -0.2853 -0.4322
  118SOPE   H9112446   1.111   3.557   5.773  1.0226  0.7553 -1.2321
  118SOPE  C21012447   1.090   3.550   5.565 -0.3721 -0.5328 -0.2788
  118SOPE  H10112448   1.084   3.659   5.554  1.1331 -0.5649 -1.8963
  118SOPE  C21112449   1.072   3.472   5.432 -0.0905  0.2428 -0.3832
  118SOPE  H11R12450   0.980   3.410   5.444  0.6335 -1.0431 -1.2965
  118SOPE  H11S12451   1.156   3.406   5.404  0.9292  1.7062 -0.8784
  118SOPE  C21212452   1.041   3.569   5.312 -0.0920 -0.7857  0.0875
  118SOPE  H12R12453   1.115   3.651   5.300 -0.9631  0.1243  0.7722
  118SOPE  H12S12454   0.942   3.618   5.316  0.5145  0.5476 -0.3997
  118SOPE  C21312455   1.031   3.486   5.184 -0.6204 -0.1037  0.3419
  118SOPE  H13R12456   0.954   3.409   5.204 -0.8784  0.0509 -0.0448
  118SOPE  H13S12457   1.121   3.424   5.164 -1.6506 -1.8090  0.8758
  118SOPE  C21412458   0.986   3.564   5.065 -0.7972 -0.1001 -0.2260
  118SOPE  H14R12459   0.909   3.637   5.098  0.1690  0.6271  0.4912
  118SOPE  H14S12460   0.941   3.494   4.992  1.6311 -0.8115 -1.1404
  118SOPE  C21512461   1.105   3.638   5.005  0.1016  0.1162 -0.2565
  118SOPE  H15R12462   1.185   3.562   5.008  0.3805  0.4294  2.8471
  118SOPE  H15S12463   1.142   3.728   5.059 -1.6225  1.7655 -1.6531
  118SOPE  C21612464   1.072   3.683   4.856 -0.1090  0.1406  0.1445
  118SOPE  H16R12465   0.985   3.751   4.861  0.3875  0.9713 -1.7493
  118SOPE  H16S12466   1.049   3.589   4.802  1.7620  0.2648 -0.9728
  118SOPE  C21712467   1.181   3.751   4.770 -0.2528 -0.2958 -0.7400
  118SOPE  H17R12468   1.165   3.727   4.663 -0.5205 -0.4150 -0.6732
  118SOPE  H17S12469   1.284   3.719   4.798 -0.2398 -1.6739 -2.2256
  118SOPE  C21812470   1.173   3.896   4.799  0.2962  0.0613 -0.7088
  118SOPE  H18R12471   1.090   3.937   4.737 -2.2183 -2.1680  0.9193
  118SOPE  H18S12472   1.268   3.948   4.773  0.3863 -0.1469 -0.7945
  118SOPE  H18T12473   1.147   3.922   4.904  2.7562  0.7662 -0.2188
  118SOPE   C3312474   0.650   3.595   6.164 -0.5480 -0.4856  0.2913
  118SOPE   H3X12475   0.639   3.504   6.228  0.5487 -2.8009 -2.5881
  118SOPE   H3Y12476   0.758   3.612   6.150 -0.7373 -0.3366 -1.1600
  118SOPE   C3412477   0.593   3.560   6.028  0.1506  0.5435 -0.1732
  118SOPE   H4X12478   0.484   3.544   6.039  0.3884 -0.3414  1.0422
  118SOPE   H4Y12479   0.642   3.464   5.999  1.5310  1.0150  0.5103
  118SOPE   C3512480   0.616   3.672   5.923 -0.6162 -0.3932  0.0446
  118SOPE   H5X12481   0.718   3.666   5.878 -0.9383  1.4264 -0.9879
  118SOPE   H5Y12482   0.605   3.773   5.968  0.8937  0.4300 -1.3099
  118SOPE   C3612483   0.519   3.671   5.800 -0.0848 -0.0057  0.1969
  118SOPE   H6X12484   0.421   3.720   5.822 -0.4595 -0.6609  0.0304
  118SOPE   H6Y12485   0.500   3.566   5.769  0.2257  0.2293 -0.8403
  118SOPE   C3712486   0.585   3.741   5.674  0.8022  0.0103 -0.5274
  118SOPE   H7X12487   0.684   3.696   5.650  0.5836 -0.5421 -0.4069
  118SOPE   H7Y12488   0.603   3.845   5.710 -0.5064  0.1242 -0.1540
  118SOPE   C3812489   0.484   3.746   5.568 -0.3973  0.3688  0.3698
  118SOPE   H8X12490   0.404   3.812   5.607  1.7300  2.8806  0.7593
  118SOPE   H8Y12491   0.441   3.646   5.548 -1.5590  1.1277 -1.1213
  118SOPE   C3912492   0.543   3.804   5.438  0.4518  0.4811 -0.7730
  118SOPE   H9X12493   0.602   3.897   5.455 -0.2344  0.4124  2.8150
  118SOPE   H9Y12494   0.465   3.821   5.361 -0.5601  0.1124  0.1519
  118SOPE  C31012495   0.642   3.709   5.359 -0.3095 -0.1095 -0.6030
  118SOPE  H10X12496   0.596   3.608   5.365  0.8355 -0.6408 -0.5738
  118SOPE  H10Y12497   0.730   3.695   5.425 -1.4360 -0.5585  0.8744
  118SOPE  C31112498   0.664   3.757   5.216  0.1242 -0.2053  0.5958
  118SOPE  H11X12499   0.768   3.731   5.186 -1.1620 -1.6637 -3.2123
  118SOPE  H11Y12500   0.640   3.865   5.213 -3.7498 -0.9467 -1.7267
  118SOPE  C31212501   0.577   3.704   5.110 -0.4330  0.1750 -0.7173
  118SOPE  H12X12502   0.471   3.736   5.121 -0.2399 -0.0927  3.6121
  118SOPE  H12Y12503   0.594   3.594   5.108 -2.9664 -0.3011 -0.5214
  118SOPE  C31312504   0.613   3.768   4.975  0.1334 -0.3057 -0.9534
  118SOPE  H13X12505   0.723   3.755   4.961  0.2314 -0.9825  0.2810
  118SOPE  H13Y12506   0.586   3.875   4.985  1.7464  0.0963 -0.5589
  118SOPE  C31412507   0.538   3.698   4.858 -0.1638 -0.3494  0.3883
  118SOPE  H14X12508   0.466   3.773   4.821 -0.5308 -0.2944  1.1808
  118SOPE  H14Y12509   0.488   3.606   4.895 -1.7018  0.4247  0.3049
  118SOPE  C31512510   0.647   3.662   4.748 -0.7963  0.2814 -0.0218
  118SOPE  H15X12511   0.589   3.608   4.671 -0.1187  1.4001 -1.3621
  118SOPE  H15Y12512   0.725   3.598   4.794  0.4199  0.6123 -1.5422
  118SOPE  C31612513   0.713   3.775   4.675 -0.1117 -1.1881  0.2351
  118SOPE  H16X12514   0.769   3.848   4.738 -0.7086 -1.0058  0.5570
  118SOPE  H16Y12515   0.633   3.838   4.631  0.8007 -0.3218 -0.2287
  118SOPE  C31712516   0.814   3.731   4.566  0.3910  0.1047 -0.9555
  118SOPE  H17X12517   0.746   3.682   4.493 -0.4433  0.7389 -0.6176
  118SOPE  H17Y12518   0.892   3.659   4.602 -0.3963 -1.0574 -1.5140
  118SOPE  C31812519   0.889   3.841   4.494 -0.4205  0.1401 -0.6677
  118SOPE  H18X12520   0.976   3.789   4.448 -0.4082 -0.9726  0.5674
  118SOPE  H18Y12521   0.941   3.912   4.561 -0.3535  1.9095 -2.5004
  118SOPE  H18Z12522   0.839   3.891   4.408 -2.7791 -0.7612  0.0971
  119SOPE     N12523   4.096   4.527   6.735 -0.2553  0.3758  0.0859
  119SOPE   HN112524   4.120   4.525   6.836  0.5070 -0.5773 -0.0967
  119SOPE   HN212525   4.094   4.427   6.707  0.9322  0.3513  0.0398
  119SOPE   HN312526   4.170   4.568   6.674 -1.8723 -0.8035 -2.8878
  119SOPE   C1212527   3.961   4.578   6.715  0.5194 -0.2155  0.2089
  119SOPE  H12A12528   3.966   4.688   6.697  1.2249 -0.6396 -2.5396
  119SOPE  H12B12529   3.910   4.573   6.814  0.3973  4.9269  0.6763
  119SOPE   C1112530   3.892   4.511   6.600 -0.2532 -1.1212  0.1867
  119SOPE  H11A12531   3.960   4.518   6.512 -1.3995 -0.1218 -0.6537
  119SOPE  H11B12532   3.800   4.566   6.572 -0.1034 -2.4828 -3.6190
  119SOPE     P12533   3.938   4.251   6.581  0.3196  0.0627 -0.4556
  119SOPE   O1312534   3.853   4.133   6.606  0.1509 -0.2907 -0.2234
  119SOPE   O1412535   4.065   4.255   6.655  0.3641 -0.0570 -0.0084
  119SOPE   O1212536   3.857   4.377   6.620 -0.0214 -0.0585  0.0143
  119SOPE   O1112537   3.950   4.264   6.420  0.2791  0.2228 -0.1121
  119SOPE    C112538   3.840   4.311   6.331  0.0503  0.3784 -0.2459
  119SOPE    HA12539   3.873   4.396   6.268 -1.8738  1.8916  0.6660
  119SOPE    HB12540   3.753   4.347   6.391  0.4021 -1.3726  1.4250
  119SOPE    C212541   3.794   4.206   6.229 -0.5631  0.1859 -0.3799
  119SOPE    HS12542   3.804   4.112   6.288  5.1592  0.9126  0.3564
  119SOPE   O2112543   3.896   4.197   6.125 -0.3884  0.1184  0.6151
  119SOPE   C2112544   3.918   4.078   6.080  0.4195  0.2799  0.4716
  119SOPE   O2212545   3.872   3.972   6.115  0.3236 -0.9420  0.8181
  119SOPE   C2212546   3.999   4.089   5.946 -0.3325  0.1594  0.1134
  119SOPE   H2R12547   4.058   3.995   5.949 -2.8877 -1.6806 -1.9365
  119SOPE   H2S12548   4.056   4.184   5.955 -2.1312  1.1027  2.4077
  119SOPE    C312549   3.649   4.243   6.173 -0.3127  0.9240 -0.1159
  119SOPE    HX12550   3.637   4.350   6.144 -1.9541  0.8454  0.1924
  119SOPE    HY12551   3.577   4.223   6.255 -0.4088 -0.9808 -0.6185
  119SOPE   O3112552   3.601   4.165   6.070 -0.2232  0.6950 -0.5539
  119SOPE   C3112553   3.530   4.052   6.099 -0.4071  0.2442  0.3046
  119SOPE   O3212554   3.501   4.000   6.205 -0.2432 -0.2506 -0.1222
  119SOPE   C3212555   3.505   3.998   5.962  0.8111 -0.4720  0.2100
  119SOPE   H2X12556   3.467   3.894   5.969 -0.6308  0.0234  0.2509
  119SOPE   H2Y12557   3.602   4.000   5.909  1.8478 -0.5546  2.0243
  119SOPE   C2312558   3.906   4.090   5.819  0.4056 -0.6551 -0.2003
  119SOPE   H3R12559   3.822   4.019   5.834 -0.4208  0.4849  0.7897
  119SOPE   H3S12560   3.958   4.061   5.725  1.3369 -0.0398  0.1139
  119SOPE   C2412561   3.838   4.232   5.797 -0.6720 -0.4554  0.5487
  119SOPE   H4R12562   3.780   4.257   5.887  0.4696  0.0688  1.1584
  119SOPE   H4S12563   3.920   4.306   5.785 -0.3011 -0.8978  0.2793
  119SOPE   C2512564   3.745   4.240   5.678  0.2551 -0.1362  0.5118
  119SOPE   H5R12565   3.793   4.232   5.578  2.1615  0.1343  1.3710
  119SOPE   H5S12566   3.670   4.160   5.698  0.0845 -0.8732 -2.5197
  119SOPE   C2612567   3.666   4.377   5.684 -0.2277  1.0062 -0.1437
  119SOPE   H6R12568   3.626   4.382   5.788  1.2791  1.1910  0.4556
  119SOPE   H6S12569   3.732   4.466   5.678  2.3575 -0.7374  0.4749
  119SOPE   C2712570   3.544   4.379   5.587 -0.5313  0.1719  0.2698
  119SOPE   H7R12571   3.594   4.394   5.489  1.2980 -1.1352  0.9575
  119SOPE   H7S12572   3.506   4.274   5.576  0.4356 -0.1243 -0.3288
  119SOPE   C2812573   3.441   4.489   5.616  0.1612 -0.3794  0.1257
  119SOPE   H8R12574   3.390   4.463   5.712 -1.2191 -0.9112 -0.7223
  119SOPE   H8S12575   3.481   4.592   5.619  0.0059 -0.3338  0.6788
  119SOPE   C2912576   3.324   4.507   5.528  0.1739  0.7400 -0.6428
  119SOPE   H9112577   3.237   4.452   5.568  0.4066  0.4316 -0.5519
  119SOPE  C21012578   3.328   4.577   5.411 -0.1065 -0.5977 -0.2800
  119SOPE  H10112579   3.237   4.596   5.352  0.7480  0.2423 -1.3705
  119SOPE  C21112580   3.447   4.647   5.339 -0.6179  0.7127 -0.1191
  119SOPE  H11R12581   3.482   4.593   5.249  2.0150  0.3992  1.0027
  119SOPE  H11S12582   3.536   4.644   5.405 -1.0320  1.0202  0.4718
  119SOPE  C21212583   3.416   4.799   5.316 -0.4636  0.4831 -0.3631
  119SOPE  H12R12584   3.370   4.846   5.405 -0.1294  0.4150 -0.1546
  119SOPE  H12S12585   3.337   4.802   5.238  1.3023  1.2030 -2.2009
  119SOPE  C21312586   3.538   4.881   5.276 -0.1578  0.0887  0.4097
  119SOPE  H13R12587   3.562   4.848   5.173  1.6650 -1.0431  1.1413
  119SOPE  H13S12588   3.626   4.877   5.343  0.3337 -3.0341 -0.2740
  119SOPE  C21412589   3.503   5.034   5.271  0.2595 -0.1478  0.0139
  119SOPE  H14R12590   3.584   5.097   5.228 -0.6726  2.5171  1.8853
  119SOPE  H14S12591   3.492   5.067   5.377  1.6434  0.9643 -0.1491
  119SOPE  C21512592   3.374   5.065   5.191 -0.2640 -0.4962 -0.7023
  119SOPE  H15R12593   3.281   5.044   5.247  0.9880 -3.5536  0.4305
  119SOPE  H15S12594   3.369   4.986   5.113  0.4560 -2.0076  0.7267
  119SOPE  C21612595   3.367   5.209   5.138 -0.2752 -0.1377 -0.9000
  119SOPE  H16R12596   3.265   5.237   5.102  0.5335 -0.6386 -3.8782
  119SOPE  H16S12597   3.438   5.226   5.055  2.7344 -2.5298  0.9744
  119SOPE  C21712598   3.395   5.315   5.253  0.0523  0.3916  0.8233
  119SOPE  H17R12599   3.460   5.279   5.336  1.1772 -0.4197 -0.3611
  119SOPE  H17S12600   3.291   5.329   5.289 -0.5659 -1.6214 -0.0678
  119SOPE  C21812601   3.439   5.452   5.204  0.2345 -0.0226  0.5015
  119SOPE  H18R12602   3.415   5.517   5.291 -3.1724  0.7963 -0.9227
  119SOPE  H18S12603   3.365   5.487   5.129  0.5445 -0.7684 -0.1675
  119SOPE  H18T12604   3.544   5.459   5.166 -0.0263  1.6011  0.0030
  119SOPE   C3312605   3.398   4.087   5.889  0.7932 -0.0488  0.2684
  119SOPE   H3X12606   3.441   4.188   5.870 -2.0601  1.4741  1.1918
  119SOPE   H3Y12607   3.308   4.104   5.953  0.4390 -1.9046  0.3124
  119SOPE   C3412608   3.353   4.026   5.752  0.2121 -0.5774 -0.6005
  119SOPE   H4X12609   3.336   3.917   5.764  0.6024 -0.4163  1.7060
  119SOPE   H4Y12610   3.436   4.043   5.681 -0.0422 -0.2214 -0.8210
  119SOPE   C3512611   3.222   4.094   5.712 -0.0373 -0.4689 -0.0209
  119SOPE   H5X12612   3.217   4.202   5.738 -1.5433 -1.1682  3.1208
  119SOPE   H5Y12613   3.146   4.036   5.769 -1.2839 -1.1110 -2.2427
  119SOPE   C3612614   3.179   4.070   5.570  0.1961  0.3291 -0.2992
  119SOPE   H6X12615   3.079   4.111   5.544  0.9836  1.9291 -0.9876
  119SOPE   H6Y12616   3.176   3.959   5.564 -2.7607  0.3825 -1.3113
  119SOPE   C3712617   3.279   4.110   5.462  0.1781  0.3924  0.6649
  119SOPE   H7X12618   3.374   4.053   5.463 -0.2526 -0.3764 -0.4329
  119SOPE   H7Y12619   3.308   4.214   5.489 -0.8994  0.5350  1.3222
  119SOPE   C3812620   3.226   4.097   5.318 -0.4734 -0.3022  0.0798
  119SOPE   H8X12621   3.122   4.136   5.324  0.3765  1.9607  1.9788
  119SOPE   H8Y12622   3.213   3.995   5.277 -2.7181  0.6414 -1.8189
  119SOPE   C3912623   3.323   4.166   5.217  0.6876 -0.5010 -0.0077
  119SOPE   H9X12624   3.429   4.133   5.227  1.6598  2.2756 -0.1921
  119SOPE   H9Y12625   3.311   4.274   5.238  2.8684  0.0115 -1.0574
  119SOPE  C31012626   3.272   4.157   5.070  0.0128  0.1911  0.5668
  119SOPE  H10X12627   3.161   4.157   5.074 -0.1539 -0.6577 -2.1770
  119SOPE  H10Y12628   3.287   4.059   5.020 -3.0300  0.0295 -0.2650
  119SOPE  C31112629   3.329   4.281   4.994 -0.3072  0.4806 -0.2765
  119SOPE  H11X12630   3.440   4.288   4.997 -0.3328  1.2710 -0.7664
  119SOPE  H11Y12631   3.297   4.378   5.038 -0.6433  0.4875 -0.5307
  119SOPE  C31212632   3.298   4.280   4.845  1.0553  0.2803 -0.2335
  119SOPE  H12X12633   3.343   4.371   4.798 -3.0262  2.0815 -1.0955
  119SOPE  H12Y12634   3.189   4.295   4.828  1.2970  2.1075 -0.3939
  119SOPE  C31312635   3.339   4.145   4.777  0.1246  0.0929 -0.8129
  119SOPE  H13X12636   3.281   4.063   4.823 -1.0758 -0.0668 -2.4966
  119SOPE  H13Y12637   3.446   4.117   4.793 -0.1181 -0.5821 -0.3540
  119SOPE  C31412638   3.308   4.126   4.625  0.1087 -0.1004  0.8583
  119SOPE  H14X12639   3.379   4.188   4.565  0.9583 -1.0488  0.8564
  119SOPE  H14Y12640   3.208   4.173   4.621 -0.9071 -1.9924  2.3328
  119SOPE  C31512641   3.321   3.987   4.575 -0.2122  0.3457 -0.2630
  119SOPE  H15X12642   3.261   3.911   4.629 -1.1005  0.7568 -0.6513
  119SOPE  H15Y12643   3.428   3.958   4.584  0.1585  1.5215 -0.6900
  119SOPE  C31612644   3.286   3.965   4.424  0.0173 -0.5290 -0.1424
  119SOPE  H16X12645   3.339   3.875   4.387  1.1706 -0.0935  0.4243
  119SOPE  H16Y12646   3.325   4.056   4.375  0.7567 -1.5447 -1.5344
  119SOPE  C31712647   3.142   3.927   4.422 -0.4843  0.2282 -0.1949
  119SOPE  H17X12648   3.084   4.020   4.435 -1.7506 -0.9698  5.3078
  119SOPE  H17Y12649   3.122   3.852   4.501  1.3573  1.3517  1.4091
  119SOPE  C31812650   3.118   3.859   4.291  0.7994  1.0385  0.1339
  119SOPE  H18X12651   3.183   3.768   4.286  0.2082  0.5533  0.9593
  119SOPE  H18Y12652   3.160   3.927   4.214  0.5607  1.0174 -0.0146
  119SOPE  H18Z12653   3.019   3.820   4.261  0.9957 -1.9602  2.7717
  120SOPE     N12654   4.024   5.294   6.904 -0.0345 -0.4240 -0.1545
  120SOPE   HN112655   4.004   5.374   6.841 -0.6348  0.1625  0.7565
  120SOPE   HN212656   4.070   5.325   6.992  1.8555 -2.9993 -0.1148
  120SOPE   HN312657   4.095   5.230   6.861  0.4490 -0.6991  1.0085
  120SOPE   C1212658   3.896   5.233   6.928  0.5894  0.3243  0.0288
  120SOPE  H12A12659   3.836   5.307   6.985 -0.2155  0.4426 -0.9390
  120SOPE  H12B12660   3.918   5.139   6.984  0.1364  0.7869  1.0086
  120SOPE   C1112661   3.847   5.190   6.792 -0.1214 -0.2933 -0.2188
  120SOPE  H11A12662   3.921   5.120   6.748  0.7037 -0.6893  1.7291
  120SOPE  H11B12663   3.849   5.269   6.714  1.2379  1.5983  1.6183
  120SOPE     P12664   3.594   5.206   6.800  0.5371 -0.4551 -0.2385
  120SOPE   O1312665   3.609   5.327   6.883  0.5434 -0.0970  0.3187
  120SOPE   O1412666   3.489   5.111   6.832  0.0730 -0.1193 -0.6170
  120SOPE   O1212667   3.725   5.121   6.814  0.3309  0.2662 -0.7559
  120SOPE   O1112668   3.589   5.244   6.645 -0.4888 -0.2463  0.0261
  120SOPE    C112669   3.632   5.150   6.544 -0.1995  0.3769 -0.0646
  120SOPE    HA12670   3.646   5.051   6.593 -2.9291  1.5711  3.6147
  120SOPE    HB12671   3.731   5.179   6.504 -0.6533  1.0051 -0.7649
  120SOPE    C212672   3.525   5.120   6.429 -0.0490 -0.1070  0.0934
  120SOPE    HS12673   3.564   5.028   6.380 -0.8065 -1.3787  1.7727
  120SOPE   O2112674   3.517   5.236   6.343  0.0147  0.4293  0.0672
  120SOPE   C2112675   3.489   5.210   6.214  0.8193 -0.0121  0.2176
  120SOPE   O2212676   3.455   5.101   6.177  0.0555  1.2354  0.2698
  120SOPE   C2212677   3.484   5.339   6.128  0.0296  0.4343 -0.8572
  120SOPE   H2R12678   3.527   5.424   6.186 -2.7245  0.4777  1.3063
  120SOPE   H2S12679   3.376   5.361   6.116  0.1222  2.1503  0.9554
  120SOPE    C312680   3.392   5.092   6.489  0.3867  0.9508  0.0413
  120SOPE    HX12681   3.350   5.189   6.524 -1.3500  1.1841 -2.4091
  120SOPE    HY12682   3.408   5.027   6.577 -0.7759 -0.2792 -0.6326
  120SOPE   O3112683   3.304   5.020   6.400 -0.7082 -0.1277  0.4847
  120SOPE   C3112684   3.208   5.080   6.328 -0.2801 -0.3508  0.4509
  120SOPE   O3212685   3.161   5.193   6.355  0.3036  0.7656 -0.0785
  120SOPE   C3212686   3.177   4.991   6.206  0.0153 -0.4667  0.1842
  120SOPE   H2X12687   3.139   4.895   6.247 -0.9141 -0.3959 -0.4793
  120SOPE   H2Y12688   3.274   4.961   6.161  0.9136  0.6496  1.2909
  120SOPE   C2312689   3.541   5.325   5.987  0.0684  0.0872 -0.3097
  120SOPE   H3R12690   3.497   5.227   5.958  0.7667 -1.1596  2.5304
  120SOPE   H3S12691   3.651   5.317   5.976 -0.0252 -2.1230 -0.0349
  120SOPE   C2412692   3.492   5.438   5.899 -0.1812  0.4423  0.2969
  120SOPE   H4R12693   3.387   5.464   5.924  0.3981  3.5189  0.0306
  120SOPE   H4S12694   3.557   5.527   5.913 -0.3857  0.3343  2.0537
  120SOPE   C2512695   3.500   5.392   5.753 -0.3658 -0.7098  0.2105
  120SOPE   H5R12696   3.457   5.291   5.733 -1.3968 -0.3673  0.6388
  120SOPE   H5S12697   3.434   5.457   5.692 -2.1945  0.2732  3.0380
  120SOPE   C2612698   3.651   5.411   5.699 -0.0418 -0.6023  0.8861
  120SOPE   H6R12699   3.657   5.518   5.672 -0.7188 -0.4142  1.4793
  120SOPE   H6S12700   3.729   5.388   5.775  1.1702 -1.0168 -0.4304
  120SOPE   C2712701   3.678   5.313   5.587  0.2628  0.5974 -0.1313
  120SOPE   H7R12702   3.696   5.223   5.649  0.3735  1.8954  1.8162
  120SOPE   H7S12703   3.592   5.292   5.519  0.5521 -0.0591 -0.2927
  120SOPE   C2812704   3.801   5.361   5.511 -0.0001  0.1395 -0.2261
  120SOPE   H8R12705   3.769   5.436   5.436  0.3131  0.1939 -0.3087
  120SOPE   H8S12706   3.882   5.402   5.576  0.2425  0.2860 -0.6196
  120SOPE   C2912707   3.861   5.238   5.442 -0.0048 -0.2628  0.5296
  120SOPE   H9112708   3.810   5.144   5.467 -0.3795  0.2463  1.7610
  120SOPE  C21012709   3.961   5.235   5.351  0.6339 -0.5035 -0.3952
  120SOPE  H10112710   4.009   5.138   5.329  1.2342 -0.2738 -0.1127
  120SOPE  C21112711   4.040   5.357   5.307 -0.0352  0.2989 -0.1679
  120SOPE  H11R12712   4.143   5.323   5.282  0.0452  0.5058 -0.1228
  120SOPE  H11S12713   4.033   5.431   5.389 -0.4861 -0.0542  0.1122
  120SOPE  C21212714   3.972   5.430   5.189 -0.4217  1.1417 -0.5939
  120SOPE  H12R12715   4.037   5.519   5.174  1.5402 -0.3492 -1.4127
  120SOPE  H12S12716   3.866   5.456   5.208 -0.8352 -1.0239  0.4376
  120SOPE  C21312717   3.971   5.350   5.053 -0.4918  0.4343 -0.1346
  120SOPE  H13R12718   3.898   5.267   5.064  0.2484 -0.2901 -0.6439
  120SOPE  H13S12719   4.062   5.291   5.031  0.2262  1.2480  0.5664
  120SOPE  C21412720   3.924   5.436   4.936 -0.6802 -0.2729 -0.2813
  120SOPE  H14R12721   3.976   5.532   4.917 -1.3493  0.1591  0.0581
  120SOPE  H14S12722   3.817   5.455   4.958 -0.2212  0.7735  1.2379
  120SOPE  C21512723   3.932   5.371   4.798  0.1283  0.1176  0.1418
  120SOPE  H15R12724   3.892   5.267   4.795  0.9095 -0.1637 -1.2266
  120SOPE  H15S12725   4.037   5.366   4.762  0.3381  0.1748  0.7496
  120SOPE  C21612726   3.851   5.454   4.698 -0.2509 -0.3218  0.1005
  120SOPE  H16R12727   3.907   5.550   4.702 -0.4757 -0.1070 -1.3171
  120SOPE  H16S12728   3.746   5.477   4.725 -0.7800 -3.1077  0.7308
  120SOPE  C21712729   3.852   5.411   4.556  0.3637  0.0975  0.7566
  120SOPE  H17R12730   3.770   5.443   4.488  0.9629 -0.2131 -0.1267
  120SOPE  H17S12731   3.839   5.301   4.567 -1.7728  0.2653  0.3889
  120SOPE  C21812732   3.993   5.440   4.490 -0.2918 -0.3685  0.6110
  120SOPE  H18R12733   4.070   5.422   4.567  0.2270  1.3671  0.5461
  120SOPE  H18S12734   3.997   5.548   4.464 -0.5701 -0.1836  1.3025
  120SOPE  H18T12735   4.012   5.380   4.399 -0.7943  1.5487 -0.8368
  120SOPE   C3312736   3.091   5.061   6.102  0.2732 -0.8579  0.7813
  120SOPE   H3X12737   2.991   5.091   6.140 -0.2068 -2.3876  0.7902
  120SOPE   H3Y12738   3.067   4.992   6.019  2.4982 -0.5814 -0.1735
  120SOPE   C3412739   3.166   5.163   6.020  0.0597  0.4299 -0.6334
  120SOPE   H4X12740   3.239   5.110   5.956 -0.3823  0.1596 -0.9167
  120SOPE   H4Y12741   3.204   5.242   6.089 -1.0922 -1.5317  2.4901
  120SOPE   C3512742   3.067   5.234   5.933 -0.3709  0.3401 -0.5139
  120SOPE   H5X12743   2.983   5.284   5.986  0.1281 -0.5084  1.1471
  120SOPE   H5Y12744   3.020   5.154   5.871  2.0337 -0.4960 -1.3571
  120SOPE   C3612745   3.137   5.314   5.826  0.0541 -0.0511 -0.0106
  120SOPE   H6X12746   3.220   5.258   5.778  0.6117  0.2282  0.6145
  120SOPE   H6Y12747   3.186   5.396   5.883 -2.1647  0.2623  1.5486
  120SOPE   C3712748   3.037   5.368   5.726 -0.4485 -0.0881 -0.1964
  120SOPE   H7X12749   2.977   5.446   5.778  2.2416  1.8009  0.3378
  120SOPE   H7Y12750   2.967   5.289   5.693  0.2578 -0.7362 -0.1764
  120SOPE   C3812751   3.096   5.412   5.592 -0.4779  0.3475 -0.2588
  120SOPE   H8X12752   3.108   5.324   5.526 -1.1796 -0.6439  0.8789
  120SOPE   H8Y12753   3.195   5.456   5.615 -0.2964 -0.2525  0.1487
  120SOPE   C3912754   3.017   5.515   5.509  0.3556 -0.0159  0.4905
  120SOPE   H9X12755   2.995   5.604   5.572 -0.6053 -0.5072  0.8806
  120SOPE   H9Y12756   2.917   5.468   5.492  0.5562 -0.9997  1.7937
  120SOPE  C31012757   3.095   5.564   5.383 -0.3983 -0.3160  0.5630
  120SOPE  H10X12758   3.130   5.477   5.322  1.0571  1.6986 -1.6639
  120SOPE  H10Y12759   3.192   5.616   5.397  0.5973 -1.5578 -1.2349
  120SOPE  C31112760   3.007   5.652   5.289  0.6468  0.5549 -0.5365
  120SOPE  H11X12761   2.964   5.733   5.350 -0.6134 -0.2892 -0.2737
  120SOPE  H11Y12762   2.931   5.576   5.262  2.1833 -2.1050  2.0282
  120SOPE  C31212763   3.067   5.686   5.160  0.0611  0.5758  0.7031
  120SOPE  H12X12764   3.119   5.605   5.104 -2.1510  0.1165 -0.8507
  120SOPE  H12Y12765   3.152   5.755   5.173  0.4456  0.6260 -1.6212
  120SOPE  C31312766   2.961   5.745   5.060 -0.3273 -0.3424  0.1103
  120SOPE  H13X12767   2.875   5.802   5.100 -3.9396 -4.8453 -0.4491
  120SOPE  H13Y12768   2.906   5.663   5.008 -2.7954  0.6863  0.9531
  120SOPE  C31412769   3.024   5.825   4.939  0.2531  0.1882 -0.5953
  120SOPE  H14X12770   3.121   5.791   4.898  0.3639  0.8868 -0.9339
  120SOPE  H14Y12771   3.042   5.924   4.987  0.5128 -1.8830  4.1386
  120SOPE  C31512772   2.932   5.858   4.824 -0.1517  0.2524  0.4775
  120SOPE  H15X12773   2.996   5.919   4.757 -0.2511 -0.2626 -0.0892
  120SOPE  H15Y12774   2.841   5.907   4.864 -0.0310  0.7217  0.1899
  120SOPE  C31612775   2.883   5.728   4.761  0.1432 -0.1578  0.0782
  120SOPE  H16X12776   2.791   5.698   4.815 -0.2197 -1.1582 -1.0563
  120SOPE  H16Y12777   2.952   5.643   4.775  1.2012  0.8321  0.9806
  120SOPE  C31712778   2.857   5.740   4.611  0.0277  0.4663 -0.5145
  120SOPE  H17X12779   2.802   5.652   4.572  1.4723  0.8112 -3.5936
  120SOPE  H17Y12780   2.956   5.733   4.560 -0.1258  0.9393 -0.8814
  120SOPE  C31812781   2.794   5.871   4.567  0.7067 -0.2932  0.4028
  120SOPE  H18X12782   2.863   5.953   4.598  3.6744 -2.5022 -0.0270
  120SOPE  H18Y12783   2.694   5.877   4.616  1.0937 -0.4174  1.2218
  120SOPE  H18Z12784   2.778   5.891   4.459 -1.5231  0.4936  0.8102
  121SOPE     N12785   3.183   5.650   7.178 -0.1350  0.2122 -0.0185
  121SOPE   HN112786   3.271   5.647   7.122  0.0546  3.1787 -0.0542
  121SOPE   HN212787   3.212   5.719   7.250 -1.8660  1.7445 -0.7118
  121SOPE   HN312788   3.159   5.560   7.224 -0.4425  1.3317  2.1952
  121SOPE   C1212789   3.076   5.708   7.084 -0.1844  0.5911  0.3732
  121SOPE  H12A12790   3.093   5.817   7.070 -3.6126  1.1440 -0.3271
  121SOPE  H12B12791   2.975   5.693   7.128 -0.3140  0.3513 -0.0031
  121SOPE   C1112792   3.082   5.642   6.944  0.2976  0.4866  0.2954
  121SOPE  H11A12793   2.993   5.663   6.880  2.1309  0.5780 -2.3684
  121SOPE  H11B12794   3.077   5.532   6.964  2.0366  0.7577  2.7408
  121SOPE     P12795   3.226   5.806   6.800  0.0266  0.2556  0.2719
  121SOPE   O1312796   3.356   5.802   6.729 -0.4991  0.4049 -0.2431
  121SOPE   O1412797   3.199   5.922   6.891  0.5107 -0.3046  0.4869
  121SOPE   O1212798   3.206   5.683   6.888 -0.6489  0.6580 -0.2654
  121SOPE   O1112799   3.106   5.803   6.697  0.4331 -0.5961  0.0285
  121SOPE    C112800   3.130   5.742   6.567 -0.1861 -0.1608  0.1351
  121SOPE    HA12801   3.037   5.693   6.532 -0.5863 -1.1993  2.4445
  121SOPE    HB12802   3.200   5.658   6.582 -0.3358 -0.0392  1.6750
  121SOPE    C212803   3.193   5.828   6.462 -0.5812 -0.3481  0.7275
  121SOPE    HS12804   3.262   5.898   6.515 -2.3161  1.9838  0.0660
  121SOPE   O2112805   3.081   5.900   6.394  0.3358 -0.2361 -0.6526
  121SOPE   C2112806   3.108   6.020   6.336 -0.0989  0.3249  0.0636
  121SOPE   O2212807   3.220   6.062   6.333  0.0530 -0.6963  0.1403
  121SOPE   C2212808   2.990   6.095   6.279  0.2624 -0.1322  0.0825
  121SOPE   H2R12809   3.015   6.200   6.303 -0.1837 -0.1500  0.6584
  121SOPE   H2S12810   2.902   6.059   6.337  1.1837 -1.1251  0.9095
  121SOPE    C312811   3.290   5.752   6.370  1.0886 -0.1672 -0.7481
  121SOPE    HX12812   3.228   5.666   6.336  0.4888  0.4593 -1.2716
  121SOPE    HY12813   3.375   5.705   6.423  0.4881 -1.3724 -0.8117
  121SOPE   O3112814   3.331   5.833   6.259 -0.0091  0.2057  0.0204
  121SOPE   C3112815   3.362   5.763   6.150 -0.3686  0.5519 -0.0417
  121SOPE   O3212816   3.360   5.641   6.144 -0.4471 -0.2043 -0.3212
  121SOPE   C3212817   3.392   5.863   6.035  0.6803  0.6741  0.2853
  121SOPE   H2X12818   3.498   5.898   6.040  1.9659 -2.6762 -0.9567
  121SOPE   H2Y12819   3.328   5.951   6.059  0.5354  0.6884 -0.1479
  121SOPE   C2312820   2.964   6.071   6.121  0.4136  0.8060 -0.3498
  121SOPE   H3R12821   2.855   6.086   6.103 -0.1065  1.5270  2.7849
  121SOPE   H3S12822   2.999   5.973   6.083  0.4024  0.7303 -0.1656
  121SOPE   C2412823   3.038   6.179   6.033 -0.4147  0.7385 -0.1218
  121SOPE   H4R12824   2.999   6.276   6.069 -1.5207 -0.6521  2.7015
  121SOPE   H4S12825   3.148   6.170   6.050 -0.8151 -2.8354  1.4936
  121SOPE   C2512826   3.022   6.173   5.878 -0.0517 -0.2328  0.2924
  121SOPE   H5R12827   3.115   6.201   5.823  0.0664  0.8881  1.0472
  121SOPE   H5S12828   3.005   6.066   5.853 -0.1442 -0.2517  0.4396
  121SOPE   C2612829   2.903   6.264   5.827 -0.0028 -0.7749  0.4559
  121SOPE   H6R12830   2.878   6.228   5.725  0.6873  2.4501 -0.9936
  121SOPE   H6S12831   2.816   6.250   5.894 -0.4606 -0.3794 -0.0477
  121SOPE   C2712832   2.925   6.420   5.810 -0.2016 -0.3254 -0.2728
  121SOPE   H7R12833   2.822   6.458   5.826  0.0102 -0.0440  0.4587
  121SOPE   H7S12834   2.981   6.474   5.890 -0.8744 -2.9063  2.1048
  121SOPE   C2812835   2.993   6.453   5.676  0.4245  0.2332  0.7292
  121SOPE   H8R12836   3.069   6.374   5.660 -0.8432 -1.5764  2.9476
  121SOPE   H8S12837   2.929   6.432   5.588  2.0382 -2.7154  0.1331
  121SOPE   C2912838   3.042   6.590   5.670 -0.3968 -0.0937  0.4084
  121SOPE   H9112839   3.096   6.616   5.762  0.2915  1.6857 -0.4474
  121SOPE  C21012840   3.009   6.692   5.589 -0.1767  0.2397  0.0914
  121SOPE  H10112841   3.071   6.782   5.598  2.0441 -0.7030 -3.5576
  121SOPE  C21112842   2.933   6.690   5.461  0.7988  0.4519 -0.2071
  121SOPE  H11R12843   2.931   6.787   5.407  0.2756  0.5073 -0.0905
  121SOPE  H11S12844   2.829   6.666   5.490  0.3628 -0.4584 -2.3271
  121SOPE  C21212845   2.979   6.585   5.363 -0.2287 -0.3007 -0.6368
  121SOPE  H12R12846   3.005   6.490   5.415 -0.0420  0.9078  1.5943
  121SOPE  H12S12847   3.079   6.611   5.323  1.1736  1.2257  3.3432
  121SOPE  C21312848   2.883   6.553   5.257  0.3878 -0.5710  0.4794
  121SOPE  H13R12849   2.829   6.649   5.241  2.2657  0.3742 -0.5468
  121SOPE  H13S12850   2.805   6.488   5.302 -1.4752  1.0267 -0.2831
  121SOPE  C21412851   2.948   6.503   5.131 -0.4621  0.3504  0.9894
  121SOPE  H14R12852   3.000   6.408   5.158  2.8901  1.5716 -0.6635
  121SOPE  H14S12853   3.023   6.578   5.101 -0.0494 -1.2387 -2.4764
  121SOPE  C21512854   2.855   6.477   5.012  0.4772  0.1952 -0.2929
  121SOPE  H15R12855   2.795   6.564   4.980  0.2560  0.4349  0.7400
  121SOPE  H15S12856   2.780   6.398   5.032 -0.7739  1.3078 -0.5106
  121SOPE  C21612857   2.948   6.452   4.886 -0.5872 -0.3725  0.1758
  121SOPE  H16R12858   3.013   6.362   4.892  1.4187  0.7887 -2.0460
  121SOPE  H16S12859   3.020   6.537   4.885  2.0401 -2.4192 -2.2287
  121SOPE  C21712860   2.862   6.449   4.756 -0.5120  0.2099  0.2104
  121SOPE  H17R12861   2.929   6.438   4.668 -1.6829 -2.5659 -0.4365
  121SOPE  H17S12862   2.806   6.544   4.753 -1.7529 -0.5122 -0.4381
  121SOPE  C21812863   2.761   6.334   4.740  0.0181 -0.1773  0.7078
  121SOPE  H18R12864   2.810   6.240   4.707 -0.4507  0.3743 -1.8146
  121SOPE  H18S12865   2.688   6.355   4.658 -0.4909 -0.6250  1.0438
  121SOPE  H18T12866   2.698   6.322   4.830 -1.1101  0.3009  0.0183
  121SOPE   C3312867   3.361   5.797   5.901  0.6109 -0.5022  0.2738
  121SOPE   H3X12868   3.250   5.786   5.892  0.8112 -1.3821 -1.5541
  121SOPE   H3Y12869   3.401   5.694   5.883 -1.9003 -1.5005 -0.0240
  121SOPE   C3412870   3.397   5.888   5.780 -0.0151 -0.8088  0.1881
  121SOPE   H4X12871   3.508   5.893   5.770 -0.2225  0.0294 -2.6973
  121SOPE   H4Y12872   3.373   5.991   5.813  0.4019 -0.0028 -1.8319
  121SOPE   C3512873   3.333   5.870   5.637  0.0974 -0.1337  0.1208
  121SOPE   H5X12874   3.342   5.762   5.613 -1.0399 -0.3346  0.4998
  121SOPE   H5Y12875   3.396   5.925   5.565 -0.3454 -1.7511 -1.5781
  121SOPE   C3612876   3.189   5.927   5.637  0.1833 -0.1727  0.4035
  121SOPE   H6X12877   3.171   5.986   5.729  2.0751  0.6192  0.3211
  121SOPE   H6Y12878   3.125   5.838   5.653  0.7598 -0.3352  1.9166
  121SOPE   C3712879   3.144   6.009   5.512 -0.9522 -0.0449 -0.0762
  121SOPE   H7X12880   3.189   5.960   5.424 -0.1681  0.9405 -0.2395
  121SOPE   H7Y12881   3.182   6.113   5.519 -0.6149 -0.2368  1.5699
  121SOPE   C3812882   2.996   5.996   5.492  0.3081 -0.4115 -0.7677
  121SOPE   H8X12883   2.946   6.024   5.587 -1.6926  0.2988 -1.9892
  121SOPE   H8Y12884   2.978   5.886   5.487  1.6766 -0.6585 -0.8216
  121SOPE   C3912885   2.944   6.069   5.367 -0.1509 -0.6314  0.3800
  121SOPE   H9X12886   3.020   6.056   5.288 -0.9015 -0.5178 -0.3698
  121SOPE   H9Y12887   2.935   6.179   5.381 -0.4264 -0.7106  0.8833
  121SOPE  C31012888   2.807   6.014   5.312  0.2721 -0.0656  0.8806
  121SOPE  H10X12889   2.728   6.022   5.390 -0.1581  1.3831  0.3397
  121SOPE  H10Y12890   2.822   5.909   5.279 -1.8028 -0.8252  2.1373
  121SOPE  C31112891   2.760   6.081   5.186 -0.1889  0.5822 -1.0526
  121SOPE  H11X12892   2.852   6.093   5.124 -0.4359  1.5644 -1.2541
  121SOPE  H11Y12893   2.720   6.183   5.206  1.5388  1.2151 -0.6638
  121SOPE  C31212894   2.647   6.003   5.111 -0.2147  0.6254 -0.0816
  121SOPE  H12X12895   2.554   5.988   5.169  0.0341  1.3952  0.5268
  121SOPE  H12Y12896   2.691   5.903   5.090  2.0922  1.9517 -2.1840
  121SOPE  C31312897   2.609   6.075   4.976 -0.3794 -0.1174 -0.1949
  121SOPE  H13X12898   2.671   6.035   4.893  0.0804  1.4010 -0.6101
  121SOPE  H13Y12899   2.627   6.183   4.994 -1.2212 -0.2341  1.5597
  121SOPE  C31412900   2.461   6.064   4.943  0.0227 -0.3021 -0.5792
  121SOPE  H14X12901   2.423   6.103   5.040  1.7028 -0.1719  0.0668
  121SOPE  H14Y12902   2.430   5.958   4.940  1.8032 -0.9133  0.6751
  121SOPE  C31512903   2.434   6.137   4.814  0.0556  0.2754  0.5107
  121SOPE  H15X12904   2.481   6.237   4.822 -0.3618  0.3995  1.5037
  121SOPE  H15Y12905   2.324   6.145   4.803  0.1172 -0.1052 -0.5673
  121SOPE  C31612906   2.480   6.066   4.684  0.5828  0.1420  0.7533
  121SOPE  H16X12907   2.419   5.973   4.680 -0.7769  1.0204  0.3655
  121SOPE  H16Y12908   2.589   6.043   4.683  0.4821 -0.5102 -1.6580
  121SOPE  C31712909   2.456   6.131   4.552 -0.5039  0.0436  0.1901
  121SOPE  H17X12910   2.494   6.235   4.549  0.7442 -0.3970 -0.0039
  121SOPE  H17Y12911   2.347   6.147   4.536 -0.5505 -1.2879 -1.1059
  121SOPE  C31812912   2.519   6.066   4.425  0.1460  0.1262 -0.0428
  121SOPE  H18X12913   2.630   6.065   4.428  0.1727 -2.5688  0.9592
  121SOPE  H18Y12914   2.488   6.132   4.341 -0.8052 -0.2509 -0.0011
  121SOPE  H18Z12915   2.474   5.966   4.410 -0.4784  0.2329  1.0262
  122SOPE     N12916   2.954   4.874   6.804 -0.7410 -0.3208 -0.5908
  122SOPE   HN112917   2.998   4.965   6.831 -0.7067  0.1753 -2.2338
  122SOPE   HN212918   2.852   4.875   6.822 -1.5269 -1.3929 -4.2718
  122SOPE   HN312919   3.001   4.803   6.864  1.7756  1.7189  0.0426
  122SOPE   C1212920   2.975   4.844   6.659 -0.5398  0.3401  0.3642
  122SOPE  H12A12921   3.080   4.812   6.641 -0.0489  2.3623 -0.5797
  122SOPE  H12B12922   2.946   4.933   6.600 -0.1731 -0.4145 -1.0049
  122SOPE   C1112923   2.875   4.735   6.629 -0.7844  0.0290  0.3054
  122SOPE  H11A12924   2.880   4.715   6.520 -0.3460  0.8218  0.1709
  122SOPE  H11B12925   2.771   4.765   6.655 -0.5709  0.9872  0.1113
  122SOPE     P12926   2.962   4.490   6.643 -0.0977 -0.4125  0.3154
  122SOPE   O1312927   2.865   4.460   6.543 -0.6855 -0.0179  0.2966
  122SOPE   O1412928   2.999   4.391   6.750 -0.1606 -1.1035 -0.0247
  122SOPE   O1212929   2.899   4.620   6.708 -0.8012  1.0680 -0.2390
  122SOPE   O1112930   3.090   4.542   6.573 -0.8955  0.0293 -0.4840
  122SOPE    C112931   3.145   4.449   6.475 -0.2821  1.3817  0.7313
  122SOPE    HA12932   3.084   4.360   6.451  1.1747  0.7033 -0.6724
  122SOPE    HB12933   3.241   4.404   6.510 -0.9778 -1.4087 -0.6358
  122SOPE    C212934   3.171   4.519   6.347  0.6004  0.0389 -0.6841
  122SOPE    HS12935   3.204   4.447   6.270 -1.8350 -2.3916  0.3971
  122SOPE   O2112936   3.267   4.620   6.366  0.0898 -0.8788 -0.2104
  122SOPE   C2112937   3.394   4.578   6.379 -0.1290  0.3013 -0.3087
  122SOPE   O2212938   3.427   4.463   6.366  0.1898  0.0856 -0.3677
  122SOPE   C2212939   3.492   4.690   6.416  0.2797 -0.0380  0.3519
  122SOPE   H2R12940   3.512   4.672   6.523  1.5057 -1.1853 -0.0427
  122SOPE   H2S12941   3.433   4.782   6.397  0.4654 -0.4834 -2.9772
  122SOPE    C312942   3.038   4.581   6.288 -0.0941  0.2018  0.1259
  122SOPE    HX12943   3.004   4.660   6.358  1.2079  0.1200  0.8729
  122SOPE    HY12944   2.948   4.516   6.278  0.2747 -0.0728 -1.7976
  122SOPE   O3112945   3.055   4.630   6.159 -0.7358 -0.4059 -0.2363
  122SOPE   C3112946   3.073   4.542   6.056 -0.2608 -0.0797 -0.0156
  122SOPE   O3212947   3.080   4.420   6.071  0.7190  0.2813  0.4094
  122SOPE   C3212948   3.090   4.628   5.925 -0.3730 -0.4568  0.1406
  122SOPE   H2X12949   3.194   4.667   5.926 -1.0353  1.4002  1.5937
  122SOPE   H2Y12950   3.028   4.719   5.938  4.1206  2.8216  0.8867
  122SOPE   C2312951   3.628   4.674   6.337  0.7258 -0.8469 -1.4492
  122SOPE   H3R12952   3.693   4.590   6.372 -0.5609 -0.7822  1.3649
  122SOPE   H3S12953   3.684   4.763   6.373  1.3008 -1.0792 -1.7457
  122SOPE   C2412954   3.626   4.678   6.186  0.2725  0.2217  0.8403
  122SOPE   H4R12955   3.725   4.707   6.144 -0.2674  2.5222  1.0378
  122SOPE   H4S12956   3.611   4.580   6.135  0.9681  1.0626 -1.0810
  122SOPE   C2512957   3.531   4.780   6.131  0.3849 -0.3453 -0.2404
  122SOPE   H5R12958   3.423   4.758   6.145  0.1466  0.7340 -0.3009
  122SOPE   H5S12959   3.550   4.879   6.178 -0.2738  0.7522 -2.1570
  122SOPE   C2612960   3.535   4.781   5.974  0.4439 -0.5202  0.4012
  122SOPE   H6R12961   3.638   4.808   5.941  0.0723  1.2002  0.6047
  122SOPE   H6S12962   3.525   4.673   5.947 -0.6866 -0.5388  0.8514
  122SOPE   C2712963   3.434   4.873   5.909  0.3454 -0.5699 -0.4268
  122SOPE   H7R12964   3.325   4.856   5.925 -0.0822  1.3034 -1.0634
  122SOPE   H7S12965   3.448   4.971   5.959  0.4558  0.2919 -2.0612
  122SOPE   C2812966   3.436   4.861   5.750  0.7333 -0.6143 -0.0482
  122SOPE   H8R12967   3.537   4.827   5.719  0.7156 -0.3037 -0.4607
  122SOPE   H8S12968   3.382   4.771   5.714  0.1487 -0.8137  1.2736
  122SOPE   C2912969   3.398   4.986   5.662  1.2851  1.1709 -0.5381
  122SOPE   H9112970   3.475   5.065   5.665 -0.5400  3.0493 -0.8779
  122SOPE  C21012971   3.278   5.013   5.606 -0.0165  0.2112 -0.1252
  122SOPE  H10112972   3.270   5.109   5.553 -0.2301  0.6017  0.5919
  122SOPE  C21112973   3.163   4.916   5.594  0.0291 -0.1052  0.1172
  122SOPE  H11R12974   3.130   4.889   5.697  1.6479 -0.3028  0.6037
  122SOPE  H11S12975   3.194   4.830   5.531 -0.1664  1.0350 -1.5849
  122SOPE  C21212976   3.038   4.992   5.539  0.7605  0.4898  0.2905
  122SOPE  H12R12977   3.021   5.074   5.612 -1.1083  1.6772 -1.3263
  122SOPE  H12S12978   2.950   4.924   5.543 -0.1484  1.6678  1.7489
  122SOPE  C21312979   3.048   5.047   5.393 -0.8927 -0.1435 -0.2546
  122SOPE  H13R12980   3.073   4.963   5.324  1.1398  1.5652 -1.7510
  122SOPE  H13S12981   3.131   5.118   5.375  0.7349 -1.8690  0.1929
  122SOPE  C21412982   2.925   5.121   5.342 -0.2991  0.7809  0.1020
  122SOPE  H14R12983   2.893   5.174   5.434 -0.2207  0.8307  0.0998
  122SOPE  H14S12984   2.850   5.043   5.317  0.7731  0.3008 -1.8138
  122SOPE  C21512985   2.940   5.219   5.230  0.2742 -0.8948  0.0254
  122SOPE  H15R12986   3.009   5.177   5.153 -0.1831 -1.3730 -0.1282
  122SOPE  H15S12987   2.982   5.315   5.266  0.7577 -1.1962  0.2797
  122SOPE  C21612988   2.807   5.263   5.157 -1.2388 -0.1499  0.0051
  122SOPE  H16R12989   2.843   5.345   5.091 -2.9230 -0.2864 -1.1273
  122SOPE  H16S12990   2.737   5.310   5.230 -1.4995 -1.0871  0.3690
  122SOPE  C21712991   2.731   5.153   5.087  0.2214  0.3079  0.0980
  122SOPE  H17R12992   2.701   5.071   5.155  3.1395  0.2635  1.4618
  122SOPE  H17S12993   2.799   5.096   5.020 -0.1636  1.2275 -1.1036
  122SOPE  C21812994   2.608   5.186   4.999  0.5830 -0.3681  0.0313
  122SOPE  H18R12995   2.645   5.250   4.916 -3.2716  0.0391 -1.6268
  122SOPE  H18S12996   2.539   5.253   5.055  1.7252 -0.4392  1.5805
  122SOPE  H18T12997   2.555   5.101   4.950  0.9981  0.0639 -1.1968
  122SOPE   C3312998   3.060   4.547   5.798 -0.6516 -0.3155 -0.0931
  122SOPE   H3X12999   3.133   4.463   5.803 -1.7413 -1.2776  0.4017
  122SOPE   H3Y13000   3.082   4.612   5.711  2.0149 -0.5569  0.3212
  122SOPE   C3413001   2.915   4.508   5.778  0.2620  0.3616 -0.1168
  122SOPE   H4X13002   2.850   4.597   5.761  0.0745 -0.0573 -1.7710
  122SOPE   H4Y13003   2.885   4.459   5.873  2.5902 -1.5471 -0.2946
  122SOPE   C3513004   2.896   4.415   5.655  0.3990 -0.0264 -0.6307
  122SOPE   H5X13005   2.786   4.402   5.650  0.3207 -0.5371  1.3955
  122SOPE   H5Y13006   2.934   4.311   5.661 -1.1921 -0.5762  0.3747
  122SOPE   C3613007   2.933   4.494   5.529 -0.5504  1.2099  0.3343
  122SOPE   H6X13008   3.044   4.500   5.521 -0.4005  1.0637  1.8906
  122SOPE   H6Y13009   2.880   4.592   5.538 -0.2325  1.5024 -0.8802
  122SOPE   C3713010   2.880   4.425   5.407 -0.2508  0.1234  0.1163
  122SOPE   H7X13011   2.769   4.431   5.394 -0.5857 -3.3214  0.5449
  122SOPE   H7Y13012   2.907   4.318   5.414  1.4940  0.5734  0.5824
  122SOPE   C3813013   2.945   4.467   5.269 -0.3158 -0.6519 -0.5118
  122SOPE   H8X13014   2.894   4.406   5.191 -1.4197  0.1256 -0.4301
  122SOPE   H8Y13015   3.051   4.433   5.265 -0.3826 -1.3570  1.9737
  122SOPE   C3913016   2.935   4.622   5.244  0.3320  0.2051  0.3970
  122SOPE   H9X13017   2.980   4.669   5.335  0.8615 -0.1383  0.3184
  122SOPE   H9Y13018   2.829   4.654   5.248  0.1388 -0.4156  0.2547
  122SOPE  C31013019   3.005   4.667   5.117  0.5635 -0.7121 -0.0617
  122SOPE  H10X13020   2.990   4.586   5.042 -4.2926 -0.7304  0.6148
  122SOPE  H10Y13021   3.114   4.662   5.134  0.3391 -1.2013  1.3270
  122SOPE  C31113022   2.971   4.804   5.053  0.8519  0.6137 -0.3310
  122SOPE  H11X13023   2.978   4.893   5.119 -2.7188  1.2447 -0.5923
  122SOPE  H11Y13024   2.863   4.802   5.027  1.1941 -0.2236 -1.7899
  122SOPE  C31213025   3.045   4.819   4.926  0.5423 -0.0443 -0.2373
  122SOPE  H12X13026   2.978   4.772   4.850 -2.0070  0.3835  1.6172
  122SOPE  H12Y13027   3.146   4.772   4.925  1.4087  1.7380 -0.5805
  122SOPE  C31313028   3.044   4.964   4.867  0.0441 -0.2579 -1.1951
  122SOPE  H13X13029   3.083   5.047   4.931 -0.6964 -0.6599 -0.1902
  122SOPE  H13Y13030   2.939   4.997   4.848 -0.6632  1.7234  4.2992
  122SOPE  C31413031   3.108   4.977   4.728 -0.5842 -0.0477  0.7210
  122SOPE  H14X13032   3.091   5.074   4.676 -0.5794 -0.2398  0.3645
  122SOPE  H14Y13033   3.049   4.905   4.668 -0.3122 -0.0082  0.4058
  122SOPE  C31513034   3.265   4.956   4.717  0.0441 -0.4509  0.1245
  122SOPE  H15X13035   3.294   4.969   4.610  0.8269 -1.1288  0.2490
  122SOPE  H15Y13036   3.302   4.855   4.743  2.0396 -0.4901 -2.4739
  122SOPE  C31613037   3.342   5.057   4.797  0.6676  0.0577 -0.4696
  122SOPE  H16X13038   3.323   5.042   4.906  0.2410 -2.8646 -0.8671
  122SOPE  H16Y13039   3.299   5.156   4.769  1.3328 -0.1157 -2.2064
  122SOPE  C31713040   3.486   5.040   4.755 -0.6847 -0.2292 -0.0781
  122SOPE  H17X13041   3.541   5.137   4.763  3.0185 -2.2189  1.0960
  122SOPE  H17Y13042   3.496   5.015   4.648 -1.1263  1.2241 -0.4847
  122SOPE  C31813043   3.571   4.944   4.841  0.1092 -0.4204 -0.0422
  122SOPE  H18X13044   3.591   4.996   4.937 -0.8351  1.2308 -0.6911
  122SOPE  H18Y13045   3.677   4.930   4.810  0.5458 -0.9895  1.6091
  122SOPE  H18Z13046   3.527   4.845   4.863 -1.8894  0.9441  2.7524
  123SOPE     N13047   0.765   0.328   1.761 -0.6212 -0.0583  0.3661
  123SOPE   HN113048   0.700   0.371   1.692 -0.6472 -3.0115 -1.5989
  123SOPE   HN213049   0.844   0.392   1.782  1.7724 -2.8480  0.4991
  123SOPE   HN313050   0.794   0.237   1.720  3.8906  1.3942 -0.2013
  123SOPE   C1213051   0.674   0.310   1.876 -0.2394  0.0872 -0.8441
  123SOPE  H12A13052   0.739   0.297   1.966  1.1448 -2.8388 -2.1465
  123SOPE  H12B13053   0.607   0.225   1.852  0.1742 -0.4356 -0.1778
  123SOPE   C1113054   0.583   0.433   1.892  0.2224 -0.0727 -0.0244
  123SOPE  H11A13055   0.644   0.523   1.915  0.1646 -0.0732  0.1316
  123SOPE  H11B13056   0.521   0.423   1.983 -1.7667  0.0480 -1.2950
  123SOPE     P13057   0.523   0.561   1.669 -0.1639  0.0988 -0.1004
  123SOPE   O1313058   0.420   0.567   1.568  0.3510  0.2752  0.0131
  123SOPE   O1413059   0.658   0.515   1.619 -0.3137  0.9181  0.3394
  123SOPE   O1213060   0.493   0.453   1.780  0.0254  0.6529  0.3496
  123SOPE   O1113061   0.536   0.701   1.745  0.0329  0.4651  0.1605
  123SOPE    C113062   0.430   0.730   1.841  0.1288 -0.5345 -0.3473
  123SOPE    HA13063   0.398   0.638   1.895  1.3016 -1.8448 -1.7839
  123SOPE    HB13064   0.337   0.742   1.781 -0.6293 -1.8746  0.4861
  123SOPE    C213065   0.460   0.856   1.927 -0.0384  0.0308 -0.7800
  123SOPE    HS13066   0.492   0.936   1.857 -0.4070 -0.1021 -1.1051
  123SOPE   O2113067   0.566   0.823   2.016  0.1956 -0.2642 -0.3722
  123SOPE   C2113068   0.614   0.918   2.094  0.4518 -0.5965 -0.5976
  123SOPE   O2213069   0.592   1.038   2.077  0.2542  0.1235 -0.6743
  123SOPE   C2213070   0.711   0.858   2.202  0.3352  0.3573  0.4703
  123SOPE   H2R13071   0.775   0.784   2.148  0.8059 -0.6494  2.3231
  123SOPE   H2S13072   0.641   0.795   2.261 -0.2330  0.1902 -0.3653
  123SOPE    C313073   0.341   0.901   2.009 -0.3851  0.3618  0.0422
  123SOPE    HX13074   0.257   0.933   1.944 -1.0775  3.6450  2.2970
  123SOPE    HY13075   0.368   0.984   2.078 -0.0972  1.0448 -0.8750
  123SOPE   O3113076   0.301   0.779   2.088  0.5158 -0.4694 -0.2373
  123SOPE   C3113077   0.223   0.800   2.185 -0.1093 -0.3038  0.0832
  123SOPE   O3213078   0.197   0.911   2.229  0.2742 -0.5166  0.3685
  123SOPE   C3213079   0.164   0.674   2.239 -0.2657 -0.1175 -0.1269
  123SOPE   H2X13080   0.209   0.587   2.186  0.4070 -0.3615  0.8238
  123SOPE   H2Y13081   0.058   0.682   2.207 -0.1521 -1.4310 -0.8962
  123SOPE   C2313082   0.785   0.954   2.290  0.7057  0.2867 -0.1976
  123SOPE   H3R13083   0.857   1.018   2.233 -0.1716  0.1345 -1.5310
  123SOPE   H3S13084   0.841   0.886   2.358 -3.0605 -1.9142  0.9529
  123SOPE   C2413085   0.699   1.051   2.371  0.0630  0.4073  0.5284
  123SOPE   H4R13086   0.770   1.107   2.436  1.0903 -0.0143 -0.2042
  123SOPE   H4S13087   0.659   1.133   2.307  3.0911  2.9520  1.6460
  123SOPE   C2513088   0.595   0.977   2.459  0.3455 -0.4384 -0.2240
  123SOPE   H5R13089   0.520   0.918   2.402 -0.4202 -1.1378  1.4432
  123SOPE   H5S13090   0.651   0.897   2.513  1.4493  0.9441  0.7615
  123SOPE   C2613091   0.522   1.070   2.551  0.0830 -0.2964 -0.5601
  123SOPE   H6R13092   0.507   1.007   2.642 -1.3103  0.2891 -0.3467
  123SOPE   H6S13093   0.574   1.160   2.591 -3.1792  1.1538  0.9038
  123SOPE   C2713094   0.382   1.123   2.513 -0.4007  0.1967 -0.0982
  123SOPE   H7R13095   0.398   1.221   2.462  1.8480  0.4490  0.9801
  123SOPE   H7S13096   0.337   1.054   2.438 -1.3100 -0.0745  0.6763
  123SOPE   C2813097   0.285   1.157   2.626  0.2457  0.2485 -0.6698
  123SOPE   H8R13098   0.203   1.217   2.582  1.0738 -0.8133 -3.9641
  123SOPE   H8S13099   0.226   1.069   2.661  0.5938 -0.3552 -1.5615
  123SOPE   C2913100   0.336   1.235   2.743  0.2524  0.3573  0.0908
  123SOPE   H9113101   0.358   1.341   2.726 -0.5808  0.4671 -0.3746
  123SOPE  C21013102   0.358   1.185   2.865 -0.4696  0.2595  0.3408
  123SOPE  H10113103   0.377   1.250   2.952 -0.1878  0.3725  0.1958
  123SOPE  C21113104   0.333   1.044   2.918 -0.9498  0.1716 -0.2565
  123SOPE  H11R13105   0.331   0.966   2.839  3.6320 -0.1417 -0.3242
  123SOPE  H11S13106   0.236   1.060   2.968  0.0026  1.9780  1.1532
  123SOPE  C21213107   0.443   0.989   3.013  0.0271  0.9233 -0.6643
  123SOPE  H12R13108   0.538   0.964   2.960  1.3396 -0.1255  1.9814
  123SOPE  H12S13109   0.401   0.897   3.060 -1.4104  2.3580  1.0440
  123SOPE  C21313110   0.469   1.075   3.145 -1.0301 -0.1483 -0.5383
  123SOPE  H13R13111   0.366   1.101   3.177 -1.4614  0.0323 -2.0227
  123SOPE  H13S13112   0.515   1.171   3.115  0.1102 -0.7170 -0.6747
  123SOPE  C21413113   0.542   1.000   3.254 -0.2191  0.2034  0.0996
  123SOPE  H14R13114   0.649   0.992   3.225  0.0048 -1.3383  1.2479
  123SOPE  H14S13115   0.503   0.898   3.272 -0.4629  0.3457  0.3867
  123SOPE  C21513116   0.537   1.073   3.389 -0.4991 -0.3503  0.0838
  123SOPE  H15R13117   0.435   1.108   3.416 -0.3238  0.9419 -0.8759
  123SOPE  H15S13118   0.605   1.161   3.388 -2.3260  1.1454 -1.9457
  123SOPE  C21613119   0.579   0.979   3.506 -0.5727  0.3656 -1.0647
  123SOPE  H16R13120   0.677   0.931   3.483 -2.3152 -3.6137 -0.8982
  123SOPE  H16S13121   0.503   0.899   3.495 -0.3942  0.0100  0.1363
  123SOPE  C21713122   0.561   1.046   3.642 -0.6614 -0.0074  0.2738
  123SOPE  H17R13123   0.454   1.069   3.658 -0.4119  0.7236  0.9805
  123SOPE  H17S13124   0.609   1.146   3.655 -1.4244  0.3082  0.7013
  123SOPE  C21813125   0.614   0.955   3.751  0.4852 -0.1648  0.1484
  123SOPE  H18R13126   0.723   0.934   3.747  0.1144 -2.1558 -1.4236
  123SOPE  H18S13127   0.568   0.853   3.743 -0.0162 -0.1034  1.8201
  123SOPE  H18T13128   0.594   0.999   3.850 -1.3630  1.8614 -1.0334
  123SOPE   C3313129   0.188   0.684   2.390  0.2226 -0.0512 -0.9737
  123SOPE   H3X13130   0.123   0.601   2.424  1.5554 -0.3463  0.9829
  123SOPE   H3Y13131   0.150   0.783   2.424 -0.8218 -0.8455  0.2617
  123SOPE   C3413132   0.335   0.662   2.435  0.4837  0.3622 -0.2860
  123SOPE   H4X13133   0.407   0.742   2.404  0.5982  0.8533  1.1636
  123SOPE   H4Y13134   0.378   0.568   2.394  0.1091 -0.3161  0.8412
  123SOPE   C3513135   0.345   0.663   2.590  0.5246 -0.1064 -0.6602
  123SOPE   H5X13136   0.325   0.763   2.633 -0.3426 -0.4404 -0.2396
  123SOPE   H5Y13137   0.447   0.621   2.601  0.2170 -0.4440  1.3508
  123SOPE   C3613138   0.248   0.569   2.670 -0.5759 -0.6668 -0.7873
  123SOPE   H6X13139   0.231   0.469   2.624 -0.0558 -0.9722 -0.3394
  123SOPE   H6Y13140   0.150   0.619   2.687  0.4722  0.7881  1.4689
  123SOPE   C3713141   0.321   0.526   2.804  0.0157 -0.3068  0.8544
  123SOPE   H7X13142   0.414   0.478   2.764 -0.0521 -0.5713  1.0113
  123SOPE   H7Y13143   0.262   0.452   2.863  0.0769  0.7757  2.3097
  123SOPE   C3813144   0.367   0.646   2.898  0.3421  0.4295  0.2231
  123SOPE   H8X13145   0.267   0.687   2.922 -0.3911 -0.7537 -0.7213
  123SOPE   H8Y13146   0.426   0.728   2.851 -0.0300  0.5493 -0.0408
  123SOPE   C3913147   0.432   0.601   3.036 -1.0759  0.1283 -0.0936
  123SOPE   H9X13148   0.493   0.679   3.085 -1.3397  0.6447 -0.5710
  123SOPE   H9Y13149   0.494   0.513   3.009  1.1519  1.6825 -0.2772
  123SOPE  C31013150   0.326   0.562   3.138  0.4326 -0.2522  0.3781
  123SOPE  H10X13151   0.276   0.473   3.095  1.9053 -0.3438 -1.2674
  123SOPE  H10Y13152   0.249   0.641   3.154 -0.0914 -1.0290  1.8485
  123SOPE  C31113153   0.380   0.505   3.268  0.1242 -0.7359 -0.0113
  123SOPE  H11X13154   0.455   0.424   3.248 -0.0536 -0.8932 -0.0430
  123SOPE  H11Y13155   0.293   0.454   3.313 -1.9632  0.8557 -2.0399
  123SOPE  C31213156   0.424   0.605   3.376 -0.1618  0.1380 -0.1095
  123SOPE  H12X13157   0.341   0.678   3.382 -0.8840 -0.7532  1.9221
  123SOPE  H12Y13158   0.518   0.649   3.336 -0.9468 -0.9016 -3.3866
  123SOPE  C31313159   0.460   0.535   3.505  0.4901  0.0345  0.5908
  123SOPE  H13X13160   0.501   0.618   3.567  0.5500  1.2923 -1.0454
  123SOPE  H13Y13161   0.532   0.451   3.504  2.3897  1.4779  3.1194
  123SOPE  C31413162   0.341   0.479   3.587 -0.7242  0.0609 -0.3627
  123SOPE  H14X13163   0.301   0.386   3.542  1.6217 -0.0361 -2.4568
  123SOPE  H14Y13164   0.256   0.549   3.570 -0.4828  0.5428  0.3678
  123SOPE  C31513165   0.376   0.457   3.728 -0.0775  0.1876 -0.9332
  123SOPE  H15X13166   0.478   0.414   3.740 -0.2849 -0.0623  0.0409
  123SOPE  H15Y13167   0.313   0.378   3.774 -0.3701 -0.8295 -3.0017
  123SOPE  C31613168   0.354   0.586   3.811 -0.0800  0.2547 -1.2281
  123SOPE  H16X13169   0.247   0.603   3.835  0.5682 -0.2783  2.7644
  123SOPE  H16Y13170   0.381   0.679   3.756 -0.9953 -0.8261 -3.6359
  123SOPE  C31713171   0.435   0.557   3.946 -0.2771 -0.1461 -0.7440
  123SOPE  H17X13172   0.541   0.560   3.914  0.1673  0.0257  0.6720
  123SOPE  H17Y13173   0.400   0.461   3.989  0.5952  0.2547  0.9664
  123SOPE  C31813174   0.423   0.671   4.051 -0.0577 -0.4885  0.6735
  123SOPE  H18X13175   0.461   0.627   4.147  1.5474 -0.8962 -0.1124
  123SOPE  H18Y13176   0.319   0.707   4.060 -0.4645 -1.6574  0.8579
  123SOPE  H18Z13177   0.485   0.761   4.031 -0.4838 -0.2104  0.6111
  124SOPE     N13178   3.714   5.993   2.488  0.2208 -0.6377  0.7236
  124SOPE   HN113179   3.800   5.946   2.521  0.5096  0.9694  2.4391
  124SOPE   HN213180   3.717   6.082   2.541  0.8375  0.7233 -1.4312
  124SOPE   HN313181   3.636   5.941   2.531 -1.2515  0.3133 -0.6784
  124SOPE   C1213182   3.679   6.011   2.337  0.2790 -0.1813  0.5949
  124SOPE  H12A13183   3.732   6.101   2.300  0.6350 -0.2886  0.8351
  124SOPE  H12B13184   3.573   6.039   2.326 -0.3641 -2.9062 -1.1041
  124SOPE   C1113185   3.686   5.875   2.267  0.0294 -0.1303 -0.7234
  124SOPE  H11A13186   3.790   5.836   2.263  1.3617  2.8160  1.6735
  124SOPE  H11B13187   3.635   5.889   2.169  0.1182  2.4049 -0.4474
  124SOPE     P13188   3.615   5.618   2.294  0.1378 -0.1544 -0.2882
  124SOPE   O1313189   3.660   5.610   2.155 -0.2963 -0.4336  0.0279
  124SOPE   O1413190   3.476   5.572   2.322  0.3764 -0.8729  0.2604
  124SOPE   O1213191   3.617   5.774   2.343  0.3613 -0.1409 -0.4176
  124SOPE   O1113192   3.718   5.545   2.379 -0.2106 -0.0522 -0.3771
  124SOPE    C113193   3.762   5.589   2.509  0.1458  0.6232  0.2982
  124SOPE    HA13194   3.787   5.697   2.503 -1.6889  1.1218  1.0970
  124SOPE    HB13195   3.856   5.535   2.534  0.5350  1.7613  1.3840
  124SOPE    C213196   3.656   5.569   2.621  0.4214 -0.2412  0.0826
  124SOPE    HS13197   3.563   5.623   2.594  0.2289 -0.2349  0.7288
  124SOPE   O2113198   3.703   5.618   2.754  0.3646  0.0855  0.0567
  124SOPE   C2113199   3.699   5.746   2.761  0.3795  0.9549 -0.6431
  124SOPE   O2213200   3.646   5.819   2.678  0.0613  0.2008  0.5173
  124SOPE   C2213201   3.750   5.794   2.893 -0.3122 -0.7072 -0.2709
  124SOPE   H2R13202   3.860   5.779   2.905 -0.6004 -1.8691  1.2148
  124SOPE   H2S13203   3.696   5.739   2.973 -1.2353  0.0934 -0.3295
  124SOPE    C313204   3.625   5.424   2.646 -0.4187 -0.0303  0.4119
  124SOPE    HX13205   3.705   5.392   2.716  0.2232  2.6799  1.0551
  124SOPE    HY13206   3.627   5.370   2.549  1.0765  3.3483 -1.6406
  124SOPE   O3113207   3.499   5.426   2.712 -0.4394  0.5450  0.2918
  124SOPE   C3113208   3.470   5.307   2.756 -0.1236 -0.0295 -0.0729
  124SOPE   O3213209   3.533   5.200   2.730  0.4210 -0.5215  0.1736
  124SOPE   C3213210   3.345   5.313   2.843  0.5371 -0.2314 -0.0407
  124SOPE   H2X13211   3.264   5.243   2.813  1.0955 -0.5411 -0.8535
  124SOPE   H2Y13212   3.303   5.414   2.824  0.4887 -0.5296 -1.6466
  124SOPE   C2313213   3.721   5.944   2.931  0.0628 -0.4393  0.4044
  124SOPE   H3R13214   3.610   5.947   2.917  0.0532  1.4432  0.6783
  124SOPE   H3S13215   3.763   6.014   2.856 -1.9978  0.5725  0.1077
  124SOPE   C2413216   3.751   5.980   3.074  0.3000 -0.6377  0.3607
  124SOPE   H4R13217   3.861   5.972   3.092  1.2749  2.6787 -2.8722
  124SOPE   H4S13218   3.726   6.087   3.089  1.6293 -0.3150  0.4664
  124SOPE   C2513219   3.683   5.897   3.182 -1.1940 -0.5067 -0.5998
  124SOPE   H5R13220   3.573   5.894   3.164 -1.8897  1.0276  2.7377
  124SOPE   H5S13221   3.723   5.794   3.190  0.7268 -0.0103 -2.7432
  124SOPE   C2613222   3.707   5.954   3.330  0.2840  0.0826  0.4725
  124SOPE   H6R13223   3.816   5.961   3.345  0.6136 -0.9322 -1.1198
  124SOPE   H6S13224   3.657   6.053   3.333 -1.3536 -0.6114 -1.1933
  124SOPE   C2713225   3.652   5.857   3.438 -0.4250  0.0516  0.3093
  124SOPE   H7R13226   3.551   5.898   3.462 -0.7517 -0.3652 -0.3270
  124SOPE   H7S13227   3.651   5.755   3.395 -1.4015  0.6313 -1.1034
  124SOPE   C2813228   3.714   5.864   3.576  0.2742 -0.1024 -0.6387
  124SOPE   H8R13229   3.824   5.849   3.575  0.3944  0.0259  2.0101
  124SOPE   H8S13230   3.699   5.969   3.610 -0.5480 -0.4060 -0.0352
  124SOPE   C2913231   3.671   5.774   3.695  0.9248 -0.6381  0.4845
  124SOPE   H9113232   3.588   5.705   3.670  0.8215 -0.2963 -0.1493
  124SOPE  C21013233   3.726   5.764   3.815  0.3052 -0.0702 -0.0135
  124SOPE  H10113234   3.682   5.693   3.887  2.2193 -2.2538 -0.8535
  124SOPE  C21113235   3.857   5.831   3.855  0.6934 -0.3417  0.7286
  124SOPE  H11R13236   3.841   5.936   3.888 -2.3401 -0.6378  0.5585
  124SOPE  H11S13237   3.933   5.828   3.775  0.5309 -1.0509  0.5940
  124SOPE  C21213238   3.920   5.761   3.984  0.0062 -0.2241  0.5152
  124SOPE  H12R13239   4.023   5.802   3.995 -0.2112 -0.3172  3.6055
  124SOPE  H12S13240   3.934   5.656   3.950 -0.6881  0.3194 -1.5966
  124SOPE  C21313241   3.830   5.781   4.111 -0.0293  0.8559  0.6488
  124SOPE  H13R13242   3.731   5.736   4.090  1.1112 -0.8992 -1.3500
  124SOPE  H13S13243   3.808   5.888   4.130 -0.4957  0.6701  1.2108
  124SOPE  C21413244   3.887   5.714   4.230 -0.2044  0.1469 -0.1211
  124SOPE  H14R13245   3.994   5.742   4.234 -0.8253  2.6582  1.0476
  124SOPE  H14S13246   3.887   5.605   4.208 -1.4109  0.3898 -1.4945
  124SOPE  C21513247   3.794   5.748   4.347 -0.9397  0.1460  0.4296
  124SOPE  H15R13248   3.755   5.651   4.383 -0.5513 -1.8385 -3.8828
  124SOPE  H15S13249   3.697   5.797   4.324 -2.2952 -1.8776  1.5282
  124SOPE  C21613250   3.863   5.814   4.459  0.4297  0.2799 -0.7331
  124SOPE  H16R13251   3.896   5.918   4.437 -1.8535  1.5574  1.3643
  124SOPE  H16S13252   3.946   5.752   4.500 -1.6521 -1.0942  1.7376
  124SOPE  C21713253   3.777   5.830   4.583 -0.1709 -0.6000  0.5060
  124SOPE  H17R13254   3.743   5.725   4.593  0.5302 -0.8376  0.4541
  124SOPE  H17S13255   3.684   5.886   4.561  0.8931  1.7545  1.6408
  124SOPE  C21813256   3.842   5.899   4.701  0.1932  0.3193 -0.2489
  124SOPE  H18R13257   3.931   5.835   4.721  0.2165 -0.3307 -2.2218
  124SOPE  H18S13258   3.782   5.883   4.793  2.2678 -1.9626  0.8230
  124SOPE  H18T13259   3.866   6.006   4.686 -0.2715  0.2680 -1.4226
  124SOPE   C3313260   3.377   5.295   2.995 -0.4935  0.0889 -0.0746
  124SOPE   H3X13261   3.469   5.351   3.021 -0.2589 -0.2884 -0.0917
  124SOPE   H3Y13262   3.403   5.187   3.005 -0.1971 -0.1445 -2.6601
  124SOPE   C3413263   3.270   5.333   3.093 -0.1570 -0.2112 -0.4935
  124SOPE   H4X13264   3.175   5.279   3.071  0.7226 -1.7284 -0.7263
  124SOPE   H4Y13265   3.241   5.438   3.075 -0.1518 -0.1224  0.0095
  124SOPE   C3513266   3.328   5.321   3.240  0.1251  0.1755  0.5914
  124SOPE   H5X13267   3.397   5.408   3.247 -0.9658  1.5111 -3.0468
  124SOPE   H5Y13268   3.366   5.218   3.258 -1.1132 -0.4160 -0.0693
  124SOPE   C3613269   3.231   5.343   3.350  0.4834 -0.7571 -0.4534
  124SOPE   H6X13270   3.140   5.279   3.343 -0.0371 -0.0522 -0.3112
  124SOPE   H6Y13271   3.195   5.448   3.348 -0.4662 -1.0851 -0.9271
  124SOPE   C3713272   3.292   5.329   3.491  0.9254  0.3518 -0.4918
  124SOPE   H7X13273   3.383   5.392   3.483  0.7628  0.4201 -1.9460
  124SOPE   H7Y13274   3.333   5.228   3.513  0.1936  0.2156  0.2958
  124SOPE   C3813275   3.198   5.365   3.610  0.2791  0.0675  0.2300
  124SOPE   H8X13276   3.121   5.286   3.620  2.5491 -2.5353 -1.3976
  124SOPE   H8Y13277   3.151   5.465   3.593  1.1297  0.2145 -1.5377
  124SOPE   C3913278   3.280   5.365   3.746 -0.2642 -0.2578  0.3750
  124SOPE   H9X13279   3.360   5.440   3.732  0.3636 -0.8532  0.7248
  124SOPE   H9Y13280   3.335   5.269   3.759 -0.7901 -0.3678  1.9831
  124SOPE  C31013281   3.199   5.381   3.872 -0.0910 -0.1798  0.0620
  124SOPE  H10X13282   3.135   5.471   3.863  1.3649  0.8079 -0.5971
  124SOPE  H10Y13283   3.263   5.406   3.959 -0.0368 -1.2844  0.3590
  124SOPE  C31113284   3.133   5.244   3.906  0.1075 -0.1567  0.4143
  124SOPE  H11X13285   3.212   5.166   3.917 -1.1505 -1.4209  0.6745
  124SOPE  H11Y13286   3.074   5.215   3.817  0.7138 -0.4733  0.1066
  124SOPE  C31213287   3.049   5.242   4.042 -0.4410  0.0159  0.2180
  124SOPE  H12X13288   3.126   5.230   4.121 -0.8312 -1.8027  0.3786
  124SOPE  H12Y13289   3.001   5.141   4.039  1.4197 -0.9443  1.0580
  124SOPE  C31313290   2.945   5.349   4.057  0.1738 -0.1978  0.5383
  124SOPE  H13X13291   2.860   5.348   3.986 -0.8855  2.2522  1.6750
  124SOPE  H13Y13292   2.989   5.450   4.066 -0.0752 -0.0761  0.3745
  124SOPE  C31413293   2.889   5.324   4.203  0.4292  0.0270 -0.1528
  124SOPE  H14X13294   2.859   5.223   4.237 -0.6269 -0.4624 -2.4094
  124SOPE  H14Y13295   2.789   5.373   4.204 -0.8490 -2.2903 -2.6202
  124SOPE  C31513296   2.981   5.379   4.308 -0.2919  0.1884  0.1242
  124SOPE  H15X13297   3.004   5.485   4.283  1.5597 -0.7887 -2.8860
  124SOPE  H15Y13298   3.083   5.335   4.312 -0.5380 -0.3963 -0.0141
  124SOPE  C31613299   2.914   5.386   4.446 -0.1314  0.1465 -0.1270
  124SOPE  H16X13300   2.823   5.449   4.459  1.7430  2.7985  1.0597
  124SOPE  H16Y13301   2.993   5.448   4.494  1.3906 -2.1303  0.4604
  124SOPE  C31713302   2.881   5.254   4.513 -0.1560  0.3045  0.3497
  124SOPE  H17X13303   2.958   5.176   4.492 -0.3793  0.2755 -0.3831
  124SOPE  H17Y13304   2.784   5.223   4.471  1.1225  1.6182 -4.1258
  124SOPE  C31813305   2.882   5.266   4.666  0.0887 -0.2257  0.2533
  124SOPE  H18X13306   2.862   5.165   4.708  2.1216 -0.8474 -0.1335
  124SOPE  H18Y13307   2.809   5.335   4.712 -0.0006  0.2960 -0.6423
  124SOPE  H18Z13308   2.984   5.286   4.704  0.1020  1.9582 -0.8123
  125SOPE     N13309   5.269   3.631   2.397  0.1166 -0.3651  0.0048
  125SOPE   HN113310   5.331   3.666   2.474  0.9531 -0.7776 -0.4685
  125SOPE   HN213311   5.299   3.535   2.372  1.6078  0.4881 -1.6361
  125SOPE   HN313312   5.290   3.702   2.325  0.4905 -1.1725 -0.6995
  125SOPE   C1213313   5.132   3.641   2.438  0.0126 -0.6581 -0.1781
  125SOPE  H12A13314   5.111   3.591   2.535 -1.3222  2.9105  1.5452
  125SOPE  H12B13315   5.071   3.606   2.352 -2.4452  0.8306  0.8408
  125SOPE   C1113316   5.074   3.780   2.465  0.4731 -0.1327  0.2190
  125SOPE  H11A13317   5.130   3.823   2.551  2.9616 -0.1234 -1.3008
  125SOPE  H11B13318   4.969   3.763   2.495  0.1039 -0.9174 -1.4061
  125SOPE     P13319   5.191   3.959   2.310 -0.2142  0.2022 -0.1854
  125SOPE   O1313320   5.135   4.054   2.218 -0.8119 -0.2564  0.2949
  125SOPE   O1413321   5.296   3.868   2.258  0.2329 -0.5154  0.6637
  125SOPE   O1213322   5.070   3.864   2.349  0.0293 -0.3908  0.4368
  125SOPE   O1113323   5.242   4.020   2.445  0.2370 -0.4929 -0.1315
  125SOPE    C113324   5.170   4.133   2.510 -0.3363  0.3123  0.9687
  125SOPE    HA13325   5.085   4.101   2.573 -1.2206  0.9680  0.1339
  125SOPE    HB13326   5.125   4.196   2.430  0.6596 -1.1231 -0.8244
  125SOPE    C213327   5.251   4.233   2.596 -0.4482 -0.7255 -0.3041
  125SOPE    HS13328   5.349   4.241   2.544 -1.7853  1.0665 -2.7431
  125SOPE   O2113329   5.270   4.192   2.734  0.1633 -0.4591  0.5377
  125SOPE   C2113330   5.331   4.080   2.761 -0.4128  0.3900 -0.5308
  125SOPE   O2213331   5.385   3.998   2.687 -0.8407 -0.2851  0.2526
  125SOPE   C2213332   5.318   4.064   2.912  0.4899 -0.5172  0.0050
  125SOPE   H2R13333   5.225   4.007   2.932 -0.0614  0.3772  0.0117
  125SOPE   H2S13334   5.303   4.166   2.953  1.3323  0.5156 -2.0960
  125SOPE    C313335   5.199   4.372   2.600  0.9644  0.0950  0.2974
  125SOPE    HX13336   5.099   4.372   2.648  0.7694  3.1895  0.0738
  125SOPE    HY13337   5.188   4.402   2.493  0.6453 -1.6667 -0.1973
  125SOPE   O3113338   5.300   4.451   2.674  0.2258  0.0919 -0.6556
  125SOPE   C3113339   5.258   4.583   2.664 -0.6671  0.5118  0.0913
  125SOPE   O3213340   5.169   4.620   2.598  0.3872 -0.1823  0.1831
  125SOPE   C3213341   5.357   4.668   2.745  0.4660 -0.7017 -0.0791
  125SOPE   H2X13342   5.444   4.679   2.678  2.2733 -0.0861  2.2123
  125SOPE   H2Y13343   5.403   4.613   2.830  2.5898 -2.7132 -2.3852
  125SOPE   C2313344   5.435   3.983   2.978  0.6491 -0.1288  0.9528
  125SOPE   H3R13345   5.521   4.052   2.967  1.0966 -0.1992  3.3813
  125SOPE   H3S13346   5.442   3.887   2.923  1.2610 -0.5687  1.7648
  125SOPE   C2413347   5.402   3.944   3.124 -0.8412  0.2028  0.7323
  125SOPE   H4R13348   5.391   4.035   3.187 -0.2410  1.3033 -0.6867
  125SOPE   H4S13349   5.306   3.891   3.108  0.9520 -3.6127  1.4894
  125SOPE   C2513350   5.503   3.845   3.181 -0.1048  0.4262  0.2639
  125SOPE   H5R13351   5.514   3.756   3.117 -1.3559  0.3269  0.1509
  125SOPE   H5S13352   5.599   3.898   3.194  0.7291 -0.7478 -0.9206
  125SOPE   C2613353   5.479   3.792   3.326 -0.2920  0.0792 -0.6385
  125SOPE   H6R13354   5.400   3.714   3.324  0.7117 -1.0004  0.4316
  125SOPE   H6S13355   5.569   3.746   3.372 -1.9217 -2.3999  0.2601
  125SOPE   C2713356   5.431   3.900   3.427  0.0597  0.4081  0.3773
  125SOPE   H7R13357   5.485   3.993   3.402 -2.0099  1.2292 -1.3412
  125SOPE   H7S13358   5.326   3.928   3.403 -0.0275  0.8687  1.2592
  125SOPE   C2813359   5.418   3.845   3.568 -0.2697  0.2665  0.7956
  125SOPE   H8R13360   5.331   3.896   3.614  1.2692  4.1326 -0.2172
  125SOPE   H8S13361   5.386   3.739   3.562 -1.0593  0.5788 -2.1903
  125SOPE   C2913362   5.529   3.869   3.665  1.0981 -0.3337 -0.3486
  125SOPE   H9113363   5.617   3.914   3.617 -0.9000  0.4265 -3.6460
  125SOPE  C21013364   5.521   3.848   3.798  0.5318 -0.5848 -1.5699
  125SOPE  H10113365   5.604   3.876   3.865  0.4387 -2.8981 -0.3662
  125SOPE  C21113366   5.394   3.803   3.864  0.3242  0.3269 -0.4096
  125SOPE  H11R13367   5.369   3.695   3.860  1.6357  0.0270 -0.7614
  125SOPE  H11S13368   5.305   3.862   3.831  0.5776  0.6190 -0.5741
  125SOPE  C21213369   5.383   3.837   4.021  1.0009  0.1330  0.5905
  125SOPE  H12R13370   5.284   3.813   4.064  0.4278  3.3292  1.2740
  125SOPE  H12S13371   5.394   3.946   4.035 -0.5464  0.5386 -1.0548
  125SOPE  C21313372   5.494   3.778   4.101  0.4003 -0.4690 -0.1411
  125SOPE  H13R13373   5.589   3.831   4.079 -0.4544  0.6372 -1.3340
  125SOPE  H13S13374   5.511   3.670   4.077  2.9984 -0.1080 -0.2355
  125SOPE  C21413375   5.457   3.797   4.254 -0.1772  0.4626  0.0729
  125SOPE  H14R13376   5.554   3.785   4.306 -0.4017 -0.7358  0.2498
  125SOPE  H14S13377   5.383   3.717   4.275  1.0502 -0.6432  0.2654
  125SOPE  C21513378   5.398   3.932   4.294  0.2985 -0.2788  0.5859
  125SOPE  H15R13379   5.298   3.955   4.254 -0.1714 -1.2878  1.1287
  125SOPE  H15S13380   5.462   4.012   4.251 -1.2040  0.9351  0.5485
  125SOPE  C21613381   5.367   3.956   4.445 -0.3401 -0.2191 -0.2544
  125SOPE  H16R13382   5.279   3.897   4.478 -0.6808  0.8692  0.8248
  125SOPE  H16S13383   5.352   4.062   4.474  0.6367 -0.4819  1.2967
  125SOPE  C21713384   5.480   3.913   4.540 -0.2156  0.4838  0.9331
  125SOPE  H17R13385   5.575   3.959   4.506  0.7221 -2.6697 -1.1652
  125SOPE  H17S13386   5.500   3.805   4.524 -0.3646  0.8839 -2.6264
  125SOPE  C21813387   5.458   3.931   4.686 -0.9528  0.1386 -0.5991
  125SOPE  H18R13388   5.548   3.895   4.740 -0.3202  0.0641 -1.6662
  125SOPE  H18S13389   5.372   3.877   4.729  0.0001 -0.5911  0.4592
  125SOPE  H18T13390   5.427   4.037   4.698 -0.1633  0.5575 -2.0180
  125SOPE   C3313391   5.289   4.807   2.779 -0.1443 -0.1967  0.3810
  125SOPE   H3X13392   5.243   4.849   2.687 -1.6195 -2.5367 -0.0533
  125SOPE   H3Y13393   5.370   4.876   2.811 -1.0375  1.7919 -1.3722
  125SOPE   C3413394   5.180   4.813   2.894 -0.3715  0.2831  0.5874
  125SOPE   H4X13395   5.094   4.754   2.854  0.1637 -0.8392  1.0601
  125SOPE   H4Y13396   5.145   4.916   2.920 -2.5617 -0.1171 -0.5182
  125SOPE   C3513397   5.222   4.735   3.020  0.1349  0.3134  0.2685
  125SOPE   H5X13398   5.324   4.763   3.053  1.0850 -2.4354 -0.0918
  125SOPE   H5Y13399   5.219   4.630   2.983 -1.8670  0.6137 -0.5764
  125SOPE   C3613400   5.110   4.764   3.127  0.3732  0.1047  0.8171
  125SOPE   H6X13401   5.009   4.761   3.080  0.7390  1.4710 -0.1269
  125SOPE   H6Y13402   5.123   4.862   3.178 -0.3989  0.6878 -0.0828
  125SOPE   C3713403   5.117   4.666   3.239  0.6244 -0.0943  0.1858
  125SOPE   H7X13404   5.221   4.643   3.271  0.7667  0.7923  0.4056
  125SOPE   H7Y13405   5.076   4.569   3.206 -0.4823  0.5692 -0.4471
  125SOPE   C3813406   5.049   4.715   3.369  0.6441  0.3014  0.3343
  125SOPE   H8X13407   4.944   4.746   3.352  0.5958  0.1449  0.3433
  125SOPE   H8Y13408   5.115   4.801   3.392  0.6781  0.2131  0.5671
  125SOPE   C3913409   5.071   4.615   3.481 -0.1397 -0.4197  0.9996
  125SOPE   H9X13410   5.181   4.604   3.497 -0.2872 -2.1283  1.0387
  125SOPE   H9Y13411   5.027   4.516   3.457  1.6454 -1.0288  0.0445
  125SOPE  C31013412   5.013   4.654   3.625  0.5308 -0.7067 -0.9745
  125SOPE  H10X13413   4.972   4.564   3.676  1.7669 -1.3505 -1.0692
  125SOPE  H10Y13414   4.920   4.711   3.602  0.4939 -0.4776 -0.2785
  125SOPE  C31113415   5.099   4.745   3.712 -0.6857  0.5020 -0.1373
  125SOPE  H11X13416   5.112   4.847   3.668  1.7913 -0.0544 -0.8904
  125SOPE  H11Y13417   5.199   4.702   3.690 -1.0308 -0.8263  0.7772
  125SOPE  C31213418   5.057   4.777   3.858  0.4338  0.1437  0.0902
  125SOPE  H12X13419   5.079   4.682   3.912 -1.4898  0.4965  1.5833
  125SOPE  H12Y13420   4.948   4.795   3.869  0.2055 -1.4234  0.6433
  125SOPE  C31313421   5.128   4.901   3.916 -0.1967  0.3967  0.5620
  125SOPE  H13X13422   5.138   4.975   3.834 -0.6593 -1.4592 -1.2464
  125SOPE  H13Y13423   5.230   4.863   3.939 -0.6035 -2.5916 -1.8303
  125SOPE  C31413424   5.067   4.971   4.041 -0.3357  0.1136 -0.1651
  125SOPE  H14X13425   4.965   5.011   4.020 -0.1113 -0.3623 -2.4753
  125SOPE  H14Y13426   5.120   5.061   4.078 -2.3853  1.8637 -1.2091
  125SOPE  C31513427   5.064   4.871   4.157  0.3384 -0.0311  1.1939
  125SOPE  H15X13428   5.168   4.842   4.182  1.4593  0.6036 -2.2468
  125SOPE  H15Y13429   4.993   4.789   4.130 -1.9030  2.0732  0.3433
  125SOPE  C31613430   5.013   4.942   4.292 -0.5472 -0.2467 -0.0528
  125SOPE  H16X13431   4.913   4.983   4.268 -0.7330 -0.1826  0.8116
  125SOPE  H16Y13432   5.070   5.035   4.311  0.9933 -0.3121 -3.6016
  125SOPE  C31713433   5.006   4.848   4.407 -0.4717  0.8444 -0.0267
  125SOPE  H17X13434   5.112   4.832   4.438 -0.2098  1.3453 -0.6279
  125SOPE  H17Y13435   4.979   4.746   4.373  1.3133  0.4647 -0.4203
  125SOPE  C31813436   4.924   4.890   4.524 -0.1500  0.0835 -0.8118
  125SOPE  H18X13437   4.824   4.913   4.481 -0.7261  0.7776  0.8183
  125SOPE  H18Y13438   4.965   4.979   4.577 -3.1792  0.5281  1.0249
  125SOPE  H18Z13439   4.897   4.811   4.598 -0.6400 -0.5275 -1.6275
  126SOPE     N13440   1.649   3.931   1.928  0.0549 -0.3272  0.4510
  126SOPE   HN113441   1.690   3.943   1.833 -1.5791 -1.3767 -0.4304
  126SOPE   HN213442   1.625   3.831   1.938 -1.7396 -0.1294 -1.2957
  126SOPE   HN313443   1.560   3.985   1.925  0.9233  1.2225  1.2376
  126SOPE   C1213444   1.741   3.980   2.039 -0.3051  0.5736 -0.1400
  126SOPE  H12A13445   1.795   4.064   1.990  1.1104 -0.9871 -1.3784
  126SOPE  H12B13446   1.809   3.894   2.056 -1.9032 -0.2961  2.3279
  126SOPE   C1113447   1.660   4.014   2.165 -0.2284 -0.7901 -0.4570
  126SOPE  H11A13448   1.737   4.054   2.234 -1.3371 -0.0549  0.3869
  126SOPE  H11B13449   1.628   3.915   2.206 -0.6081 -1.6753 -2.7624
  126SOPE     P13450   1.519   4.229   2.216  0.0095  0.4021  0.3634
  126SOPE   O1313451   1.407   4.299   2.151 -0.0537  0.6546 -0.3504
  126SOPE   O1413452   1.649   4.302   2.233  0.6673 -0.5779 -0.3697
  126SOPE   O1213453   1.550   4.097   2.139 -0.0810 -0.2464 -0.7291
  126SOPE   O1113454   1.469   4.176   2.354  0.3241  0.0735 -0.3112
  126SOPE    C113455   1.429   4.269   2.457  0.0329  0.0023 -0.5873
  126SOPE    HA13456   1.358   4.216   2.524 -0.3961 -0.3134 -1.2799
  126SOPE    HB13457   1.363   4.349   2.417 -0.9169 -0.5630 -0.1972
  126SOPE    C213458   1.553   4.316   2.540 -0.4928 -0.0104 -0.2508
  126SOPE    HS13459   1.607   4.386   2.473  0.2104 -0.1397  0.1686
  126SOPE   O2113460   1.628   4.201   2.572  0.3725 -0.0769  0.3513
  126SOPE   C2113461   1.761   4.221   2.574  0.0091  0.3764  0.7934
  126SOPE   O2213462   1.819   4.324   2.549 -0.2379 -0.6204  0.4531
  126SOPE   C2213463   1.833   4.090   2.607  0.2101  0.4891  0.4598
  126SOPE   H2R13464   1.941   4.115   2.609 -0.1408  2.1128  0.3775
  126SOPE   H2S13465   1.809   4.009   2.535  0.2291  0.3198  0.6404
  126SOPE    C313466   1.512   4.388   2.674 -0.3828  0.1960 -0.3434
  126SOPE    HX13467   1.463   4.483   2.643 -0.4238  0.2857 -0.0044
  126SOPE    HY13468   1.613   4.413   2.711 -0.1794  1.5372 -1.6933
  126SOPE   O3113469   1.431   4.305   2.764  0.2299 -0.6815  0.1029
  126SOPE   C3113470   1.297   4.317   2.764 -0.3281 -0.3004  1.0279
  126SOPE   O3213471   1.235   4.391   2.686 -0.2568 -0.2357  0.9337
  126SOPE   C3213472   1.226   4.234   2.864  0.2019  0.5196  0.9040
  126SOPE   H2X13473   1.298   4.176   2.925  0.5431  0.9811  0.9455
  126SOPE   H2Y13474   1.150   4.172   2.812  1.8208 -0.5487 -0.2450
  126SOPE   C2313475   1.776   4.036   2.741  0.4621 -0.1926 -0.8611
  126SOPE   H3R13476   1.680   3.985   2.715  0.7678 -0.7006 -1.0160
  126SOPE   H3S13477   1.758   4.120   2.810  0.2937 -0.1950 -0.9006
  126SOPE   C2413478   1.871   3.931   2.804 -0.1187 -0.5254 -0.0466
  126SOPE   H4R13479   1.890   3.872   2.711 -0.9000  1.0728 -1.2557
  126SOPE   H4S13480   1.961   3.992   2.829 -2.8707  3.6517  0.4829
  126SOPE   C2513481   1.829   3.857   2.924  0.5029  0.4758 -0.7805
  126SOPE   H5R13482   1.775   3.913   3.003  0.8816  0.3645 -0.4408
  126SOPE   H5S13483   1.762   3.773   2.896  0.3319 -0.1211  1.2701
  126SOPE   C2613484   1.940   3.765   2.986 -0.1571 -0.3026  0.7337
  126SOPE   H6R13485   1.980   3.710   2.898 -0.1674  3.1901 -1.6626
  126SOPE   H6S13486   2.016   3.842   3.013  1.0472  0.2810 -3.6414
  126SOPE   C2713487   1.910   3.687   3.106 -0.5780 -0.0814 -0.0134
  126SOPE   H7R13488   1.858   3.755   3.177  0.2111 -0.1254  0.6245
  126SOPE   H7S13489   1.835   3.609   3.080  0.1003 -1.4994  2.0324
  126SOPE   C2813490   2.026   3.631   3.184  0.8009 -0.2550  0.0474
  126SOPE   H8R13491   2.091   3.720   3.204 -0.3766  0.9191 -1.1441
  126SOPE   H8S13492   2.000   3.585   3.282  0.1653 -3.1338 -1.3892
  126SOPE   C2913493   2.108   3.533   3.105 -0.3867 -0.4620 -0.2992
  126SOPE   H9113494   2.135   3.568   3.005  0.1340 -0.1943 -0.0652
  126SOPE  C21013495   2.159   3.418   3.159  0.0962 -0.1715  0.3378
  126SOPE  H10113496   2.232   3.365   3.096  2.1999  0.8012  1.8356
  126SOPE  C21113497   2.148   3.374   3.305  0.0889  0.6159  0.1349
  126SOPE  H11R13498   2.142   3.459   3.376 -1.0014  2.8168 -2.4267
  126SOPE  H11S13499   2.240   3.317   3.333  0.5752  2.3622  2.3730
  126SOPE  C21213500   2.012   3.307   3.319 -0.1968  0.4803 -0.1399
  126SOPE  H12R13501   2.011   3.218   3.252 -0.9768 -0.8160  1.5065
  126SOPE  H12S13502   1.933   3.373   3.279  1.1250  2.2740  0.1067
  126SOPE  C21313503   1.964   3.262   3.456  0.8773  0.6142 -1.3811
  126SOPE  H13R13504   2.040   3.203   3.511  2.3185  1.8108 -2.0032
  126SOPE  H13S13505   1.869   3.206   3.445  0.7010  0.9586 -1.6669
  126SOPE  C21413506   1.920   3.377   3.551  0.0303  0.2865 -0.2601
  126SOPE  H14R13507   1.824   3.417   3.513 -0.1369  1.0266  0.8883
  126SOPE  H14S13508   2.000   3.454   3.544 -0.7675  1.1760  0.1393
  126SOPE  C21513509   1.917   3.346   3.702  0.2074  0.3221  0.0535
  126SOPE  H15R13510   1.842   3.267   3.724 -0.2275  0.7536  0.1470
  126SOPE  H15S13511   1.888   3.438   3.757  2.0797  0.6252  0.5958
  126SOPE  C21613512   2.052   3.298   3.759 -0.2558  0.0917 -0.3270
  126SOPE  H16R13513   2.136   3.341   3.701  1.2378  0.8107  2.2266
  126SOPE  H16S13514   2.057   3.187   3.752  0.6882 -0.2049  3.0611
  126SOPE  C21713515   2.063   3.321   3.913 -0.0999 -0.2534  0.2828
  126SOPE  H17R13516   2.093   3.428   3.920 -1.0630  0.1181 -0.8444
  126SOPE  H17S13517   2.140   3.254   3.956 -1.6445 -3.2671 -1.3289
  126SOPE  C21813518   1.940   3.306   3.992  0.2275  0.1744 -0.5221
  126SOPE  H18R13519   1.969   3.273   4.094  0.6804  0.8394 -0.4314
  126SOPE  H18S13520   1.887   3.224   3.938  2.2854 -1.5432 -0.0741
  126SOPE  H18T13521   1.871   3.392   4.005 -1.1071 -0.5813 -2.1246
  126SOPE   C3313522   1.141   4.323   2.959  0.3593  0.5746 -0.5882
  126SOPE   H3X13523   1.100   4.406   2.897  1.5763  0.8475 -1.0481
  126SOPE   H3Y13524   1.202   4.379   3.033  0.9250  0.5274 -1.0171
  126SOPE   C3413525   1.026   4.247   3.019 -0.0881  0.4115 -0.0350
  126SOPE   H4X13526   0.990   4.172   2.945  1.6647 -2.5256  1.8541
  126SOPE   H4Y13527   0.940   4.313   3.044 -0.6813 -0.1113 -0.6546
  126SOPE   C3513528   1.059   4.160   3.138 -0.6836  0.9252 -0.3505
  126SOPE   H5X13529   1.111   4.215   3.220  0.4083  0.7528 -0.9028
  126SOPE   H5Y13530   1.138   4.085   3.112 -1.1027  0.6004 -0.6946
  126SOPE   C3613531   0.929   4.097   3.198 -0.3097 -0.3627  0.1804
  126SOPE   H6X13532   0.888   4.033   3.118  0.1529 -1.6692  0.9644
  126SOPE   H6Y13533   0.863   4.181   3.227 -1.2196 -0.8836 -0.3670
  126SOPE   C3713534   0.959   3.991   3.310  0.4047  0.2488  0.7647
  126SOPE   H7X13535   1.022   3.913   3.262  0.5064 -0.4346  1.9889
  126SOPE   H7Y13536   0.858   3.957   3.340 -0.1472  0.9075 -0.2498
  126SOPE   C3813537   1.022   4.044   3.438 -0.2908  0.5867  0.3983
  126SOPE   H8X13538   0.973   4.139   3.467 -0.9130  0.3423  0.1560
  126SOPE   H8Y13539   1.126   4.067   3.408 -0.3054  1.2782  0.8667
  126SOPE   C3913540   1.015   3.939   3.555  0.7400 -0.6703 -0.4790
  126SOPE   H9X13541   1.038   3.841   3.508  3.4679  0.7744 -2.4846
  126SOPE   H9Y13542   0.909   3.943   3.590  1.0278 -0.2703  0.3739
  126SOPE  C31013543   1.125   3.947   3.660  0.0491  0.2127  0.2997
  126SOPE  H10X13544   1.228   3.929   3.623  0.3407  0.8670  0.7925
  126SOPE  H10Y13545   1.113   3.866   3.736  2.1161  0.2813  0.7582
  126SOPE  C31113546   1.139   4.089   3.727 -0.1680 -0.4187  0.0773
  126SOPE  H11X13547   1.038   4.123   3.758 -0.6670  1.1915 -2.9439
  126SOPE  H11Y13548   1.173   4.171   3.661 -0.4178 -1.3170 -1.2163
  126SOPE  C31213549   1.219   4.080   3.862  0.4341 -0.2467  0.1290
  126SOPE  H12X13550   1.324   4.069   3.828  0.4757  1.0940 -0.2315
  126SOPE  H12Y13551   1.184   3.997   3.927  0.3640  0.8250  1.5077
  126SOPE  C31313552   1.215   4.214   3.940  0.0438  0.2770 -0.3215
  126SOPE  H13X13553   1.114   4.235   3.981  0.7771  0.2398  1.6173
  126SOPE  H13Y13554   1.251   4.290   3.867  1.8335 -0.7526 -0.5788
  126SOPE  C31413555   1.307   4.227   4.067  0.2672  0.1641 -0.3508
  126SOPE  H14X13556   1.296   4.323   4.121  0.6572  1.3482 -2.2906
  126SOPE  H14Y13557   1.414   4.228   4.035 -0.1002  2.3776 -1.7244
  126SOPE  C31513558   1.284   4.100   4.157 -0.2348  0.2793  0.1530
  126SOPE  H15X13559   1.341   4.022   4.102  0.8285  0.6273  0.7213
  126SOPE  H15Y13560   1.174   4.083   4.160 -0.6837  2.8031  0.9222
  126SOPE  C31613561   1.353   4.117   4.300 -0.0930 -0.3118  0.3493
  126SOPE  H16X13562   1.311   4.207   4.350  1.4942  0.9122 -0.4214
  126SOPE  H16Y13563   1.458   4.147   4.280 -0.8448  1.6628 -1.0127
  126SOPE  C31713564   1.332   3.996   4.385  0.4391 -0.0708  0.9299
  126SOPE  H17X13565   1.399   4.009   4.473 -0.5757 -1.8004  2.0112
  126SOPE  H17Y13566   1.381   3.910   4.335  2.5230  0.9613  1.0683
  126SOPE  C31813567   1.186   3.985   4.438  0.3104  0.6320  0.1986
  126SOPE  H18X13568   1.123   3.977   4.346  1.2836 -1.6709 -0.3594
  126SOPE  H18Y13569   1.169   4.079   4.494  2.8568  2.2666 -1.5836
  126SOPE  H18Z13570   1.176   3.886   4.489 -0.6109  0.3652 -0.4629
  127SOPE     N13571   1.599   4.575   2.173 -0.1749 -0.1631  0.0649
  127SOPE   HN113572   1.565   4.581   2.272  1.3032  0.3941  0.5635
  127SOPE   HN213573   1.530   4.599   2.099  0.7979  2.3164 -0.1374
  127SOPE   HN313574   1.637   4.480   2.157  1.3183  0.8637 -3.3325
  127SOPE   C1213575   1.696   4.688   2.146  0.9793  0.1143 -0.2056
  127SOPE  H12A13576   1.681   4.714   2.039  0.0835  1.7326  0.2839
  127SOPE  H12B13577   1.802   4.654   2.155  0.7388 -0.5487  0.1333
  127SOPE   C1113578   1.672   4.815   2.229 -0.6060 -0.1900 -0.3470
  127SOPE  H11A13579   1.753   4.886   2.198  0.8808 -2.3435 -1.6572
  127SOPE  H11B13580   1.701   4.784   2.331 -0.5420  0.3175 -0.2061
  127SOPE     P13581   1.512   5.012   2.181 -0.2608  0.1504  0.3196
  127SOPE   O1313582   1.359   5.024   2.157  0.5151  0.1573 -0.0488
  127SOPE   O1413583   1.595   5.052   2.064  0.3928 -0.3396  0.3104
  127SOPE   O1213584   1.542   4.860   2.201  0.0031 -0.0764  0.4380
  127SOPE   O1113585   1.563   5.091   2.309 -0.0298 -0.0406 -0.1929
  127SOPE    C113586   1.476   5.136   2.409  0.0648  0.6882 -0.2197
  127SOPE    HA13587   1.369   5.147   2.380 -0.6803 -3.4306  0.3712
  127SOPE    HB13588   1.525   5.231   2.439  1.1779  1.1601 -3.2067
  127SOPE    C213589   1.471   5.045   2.535  0.7539  0.7970 -0.1867
  127SOPE    HS13590   1.416   5.091   2.620  1.6181  0.8992  0.3310
  127SOPE   O2113591   1.604   5.018   2.577 -0.2257 -0.8319  0.3759
  127SOPE   C2113592   1.647   5.112   2.670 -0.1104  0.7111  0.0389
  127SOPE   O2213593   1.576   5.190   2.726 -0.0337 -0.2191  0.4327
  127SOPE   C2213594   1.791   5.085   2.700 -0.9141  0.2159  0.0690
  127SOPE   H2R13595   1.838   5.174   2.745 -2.0708  0.5868  0.5701
  127SOPE   H2S13596   1.844   5.059   2.606  1.1830  0.3093  1.1819
  127SOPE    C313597   1.403   4.914   2.507  0.0973  0.8856 -0.0617
  127SOPE    HX13598   1.472   4.853   2.445 -0.9496 -1.1059  0.6397
  127SOPE    HY13599   1.312   4.926   2.446 -0.8132 -0.2094  1.0264
  127SOPE   O3113600   1.358   4.855   2.628  0.3388  0.1376  0.2145
  127SOPE   C3113601   1.438   4.771   2.686 -0.0901 -0.4246  0.3866
  127SOPE   O3213602   1.548   4.742   2.642  0.4901 -0.1744  0.7861
  127SOPE   C3213603   1.375   4.724   2.813 -0.2855 -0.1378  0.5210
  127SOPE   H2X13604   1.341   4.619   2.799  1.0285 -0.3968 -1.0149
  127SOPE   H2Y13605   1.290   4.792   2.835 -1.0097 -1.2604  1.3227
  127SOPE   C2313606   1.812   4.970   2.806  0.1772  0.5882  0.0652
  127SOPE   H3R13607   1.921   4.957   2.795 -0.1927 -0.8587 -3.4932
  127SOPE   H3S13608   1.756   4.880   2.773 -0.1110  0.3644  1.1252
  127SOPE   C2413609   1.773   5.000   2.951  0.4685 -0.0083 -0.2720
  127SOPE   H4R13610   1.798   5.100   2.993 -1.3597  0.0754  0.7471
  127SOPE   H4S13611   1.661   4.997   2.951  0.4413  0.6862 -0.2625
  127SOPE   C2513612   1.834   4.904   3.053  0.1915 -0.2558  0.4605
  127SOPE   H5R13613   1.800   4.805   3.015 -1.8702  1.0682 -1.3524
  127SOPE   H5S13614   1.945   4.898   3.057  0.3599 -0.2845 -2.2706
  127SOPE   C2613615   1.766   4.923   3.190 -0.1574  0.0768 -0.2920
  127SOPE   H6R13616   1.793   5.015   3.248  4.3455 -1.8218  1.0384
  127SOPE   H6S13617   1.657   4.913   3.168 -0.4265  0.0967  0.9424
  127SOPE   C2713618   1.781   4.806   3.287 -0.0672 -0.2111 -0.0601
  127SOPE   H7R13619   1.685   4.798   3.343  0.0308 -0.0591  0.1296
  127SOPE   H7S13620   1.793   4.713   3.226  1.2866  0.7849 -1.3980
  127SOPE   C2813621   1.888   4.817   3.390  0.4715 -0.0443 -0.2724
  127SOPE   H8R13622   1.989   4.829   3.344 -0.0187  3.0040 -0.7497
  127SOPE   H8S13623   1.877   4.902   3.460 -0.2485  0.6693 -1.2335
  127SOPE   C2913624   1.885   4.687   3.470 -0.2674 -0.3924  0.9518
  127SOPE   H9113625   1.890   4.592   3.413 -0.2971 -0.4710  1.0811
  127SOPE  C21013626   1.869   4.675   3.600  0.1067  0.2558  0.4809
  127SOPE  H10113627   1.858   4.572   3.636  3.6461  0.6140  3.0648
  127SOPE  C21113628   1.855   4.781   3.706 -0.3893 -0.3263  0.4148
  127SOPE  H11R13629   1.750   4.817   3.702 -0.2984 -0.1627 -3.2195
  127SOPE  H11S13630   1.909   4.874   3.678 -2.9070  1.0637 -0.0721
  127SOPE  C21213631   1.880   4.736   3.855 -1.0376 -0.2841  0.6706
  127SOPE  H12R13632   1.860   4.823   3.921 -2.3134  0.7291 -0.9803
  127SOPE  H12S13633   1.989   4.712   3.860 -0.6262 -0.2040 -3.6185
  127SOPE  C21313634   1.783   4.621   3.890 -0.4482 -0.0064  0.4729
  127SOPE  H13R13635   1.774   4.538   3.817  1.4173 -0.5971  0.8624
  127SOPE  H13S13636   1.679   4.660   3.894 -1.1048 -1.6946  1.1422
  127SOPE  C21413637   1.818   4.558   4.026  0.4716 -1.0652 -0.0236
  127SOPE  H14R13638   1.828   4.647   4.092  1.1364 -0.4412 -0.9289
  127SOPE  H14S13639   1.911   4.500   4.013  1.3485  0.2594  0.0846
  127SOPE  C21513640   1.714   4.467   4.090  0.0948  0.2322  0.0101
  127SOPE  H15R13641   1.701   4.374   4.031  1.4901 -0.1867  0.3250
  127SOPE  H15S13642   1.624   4.525   4.119  0.6968  0.9235  0.5325
  127SOPE  C21613643   1.770   4.415   4.223  0.3365 -0.5021 -0.3105
  127SOPE  H16R13644   1.799   4.501   4.286  0.7498 -1.6088  1.0606
  127SOPE  H16S13645   1.861   4.355   4.203  0.6932  0.1415 -0.6725
  127SOPE  C21713646   1.661   4.333   4.292 -0.4010 -0.3947 -0.0957
  127SOPE  H17R13647   1.624   4.258   4.219 -1.8548 -0.2633  0.4778
  127SOPE  H17S13648   1.576   4.397   4.326  0.1317 -0.1088  0.7311
  127SOPE  C21813649   1.733   4.263   4.410  0.8423  0.0411  0.2218
  127SOPE  H18R13650   1.799   4.181   4.375  0.2634  0.1290 -1.1254
  127SOPE  H18S13651   1.652   4.225   4.476  0.7337  0.4045  0.2987
  127SOPE  H18T13652   1.794   4.337   4.466  1.8597 -0.2064 -0.5243
  127SOPE   C3313653   1.463   4.714   2.937 -1.0440 -0.4878 -0.1500
  127SOPE   H3X13654   1.483   4.814   2.980 -1.5529 -0.2419 -0.4661
  127SOPE   H3Y13655   1.559   4.670   2.904  0.0705  1.6558  0.0970
  127SOPE   C3413656   1.398   4.628   3.047  0.1567  0.0689 -0.1239
  127SOPE   H4X13657   1.348   4.539   3.003 -1.1354 -0.5321  2.3371
  127SOPE   H4Y13658   1.311   4.680   3.093  1.0600  0.1152  1.5996
  127SOPE   C3513659   1.495   4.593   3.160 -0.6768  0.1959 -0.3814
  127SOPE   H5X13660   1.540   4.687   3.199  2.1446 -1.4070  0.5642
  127SOPE   H5Y13661   1.570   4.532   3.106 -0.4672  0.3442 -0.2588
  127SOPE   C3613662   1.431   4.498   3.259  0.1210 -0.3649 -0.2169
  127SOPE   H6X13663   1.377   4.417   3.205  0.2600  0.1788 -1.1967
  127SOPE   H6Y13664   1.354   4.548   3.321  1.8063  0.6217  1.1708
  127SOPE   C3713665   1.543   4.430   3.342 -0.1111  0.1206 -0.0829
  127SOPE   H7X13666   1.614   4.508   3.378  1.2058 -0.2975 -1.6250
  127SOPE   H7Y13667   1.600   4.354   3.284  2.0346  1.1197  0.6142
  127SOPE   C3813668   1.493   4.368   3.474  0.3280  0.5517 -0.8392
  127SOPE   H8X13669   1.403   4.308   3.450  0.6031 -0.8352  1.3168
  127SOPE   H8Y13670   1.462   4.441   3.551  1.6818  3.4185 -2.8266
  127SOPE   C3913671   1.598   4.267   3.526 -0.6540 -0.5424  0.3824
  127SOPE   H9X13672   1.689   4.331   3.529 -1.5308  1.0183 -2.5749
  127SOPE   H9Y13673   1.623   4.186   3.454  1.3304  1.1595 -0.9860
  127SOPE  C31013674   1.564   4.220   3.667  0.0362 -0.4520 -0.0149
  127SOPE  H10X13675   1.483   4.144   3.666  0.0924 -0.5207  0.2835
  127SOPE  H10Y13676   1.525   4.304   3.729  2.4222 -0.8005  2.1041
  127SOPE  C31113677   1.690   4.160   3.739 -0.2753  0.1591  0.8918
  127SOPE  H11X13678   1.755   4.238   3.783  2.5875  0.2709 -2.9702
  127SOPE  H11Y13679   1.753   4.115   3.659  0.5341  1.4707  0.7494
  127SOPE  C31213680   1.645   4.059   3.847  0.6258 -0.2648 -0.5862
  127SOPE  H12X13681   1.579   3.984   3.799  1.2663 -1.4242  0.3022
  127SOPE  H12Y13682   1.589   4.114   3.926  0.4046  0.8675 -1.4922
  127SOPE  C31313683   1.763   3.974   3.898 -0.3544 -0.1084  0.3358
  127SOPE  H13X13684   1.833   4.046   3.946 -1.9673  1.7172  0.1214
  127SOPE  H13Y13685   1.822   3.931   3.815  0.3351 -3.1850  2.2843
  127SOPE  C31413686   1.718   3.859   3.995 -0.9221 -0.4926  0.5699
  127SOPE  H14X13687   1.800   3.785   3.989  0.6696  1.1720  0.8844
  127SOPE  H14Y13688   1.629   3.804   3.956 -0.6692 -0.5497  0.0746
  127SOPE  C31513689   1.700   3.910   4.139 -0.2872 -0.6771  0.1584
  127SOPE  H15X13690   1.633   3.999   4.134 -1.8977 -1.7987  0.9389
  127SOPE  H15Y13691   1.804   3.924   4.177  0.5889 -2.5699 -1.3873
  127SOPE  C31613692   1.623   3.802   4.218  0.0046 -0.8987 -0.1977
  127SOPE  H16X13693   1.685   3.711   4.206 -1.3273 -1.6021 -2.3472
  127SOPE  H16Y13694   1.520   3.794   4.175 -0.4886  2.2795  0.1250
  127SOPE  C31713695   1.636   3.827   4.366 -0.0773 -0.8793 -0.1002
  127SOPE  H17X13696   1.591   3.927   4.385  0.1385 -0.0987 -3.1015
  127SOPE  H17Y13697   1.746   3.825   4.380  0.2624  0.0308 -2.1832
  127SOPE  C31813698   1.563   3.719   4.451  0.2878 -0.0180 -0.4216
  127SOPE  H18X13699   1.463   3.698   4.406 -0.8870  1.0832  1.5354
  127SOPE  H18Y13700   1.544   3.766   4.549 -0.7080  0.8702 -1.0135
  127SOPE  H18Z13701   1.630   3.631   4.446  0.6951  0.3061 -0.7400
  128SOPE     N13702   5.219   2.179   2.344 -0.1443  0.0796  0.3715
  128SOPE   HN113703   5.156   2.117   2.289  1.0610  0.1898 -1.1830
  128SOPE   HN213704   5.275   2.127   2.414  3.2164  2.3544 -0.4058
  128SOPE   HN313705   5.155   2.249   2.388 -0.1207  1.5173 -1.7586
  128SOPE   C1213706   5.300   2.253   2.240  0.2619 -0.1261 -0.5344
  128SOPE  H12A13707   5.232   2.328   2.195  0.4044 -0.3956 -1.2019
  128SOPE  H12B13708   5.347   2.180   2.171  0.7782  1.3274 -1.7793
  128SOPE   C1113709   5.425   2.315   2.308 -0.1552 -0.6146 -0.7570
  128SOPE  H11A13710   5.383   2.393   2.375 -0.5804 -1.8057  0.3911
  128SOPE  H11B13711   5.487   2.372   2.234  0.8643 -1.9978 -1.0142
  128SOPE     P13712   5.614   2.142   2.324 -0.0138 -0.2316 -0.2569
  128SOPE   O1313713   5.653   2.206   2.196 -0.0553 -0.2130  0.0677
  128SOPE   O1413714   5.566   2.001   2.310 -0.5849  0.9691 -0.0615
  128SOPE   O1213715   5.494   2.220   2.384 -0.1866 -0.6984 -0.4946
  128SOPE   O1113716   5.720   2.160   2.426 -0.8579 -0.2059 -0.0037
  128SOPE    C113717   5.790   2.286   2.448  0.0601  0.4229  0.1237
  128SOPE    HA13718   5.747   2.371   2.390 -0.2046 -1.3192 -2.4036
  128SOPE    HB13719   5.893   2.280   2.407 -0.0452  0.0395 -0.0906
  128SOPE    C213720   5.797   2.317   2.593  0.7303  0.1716  0.4337
  128SOPE    HS13721   5.878   2.392   2.605  1.5885 -0.5074 -0.9371
  128SOPE   O2113722   5.827   2.202   2.670  0.0286  0.0597 -0.6989
  128SOPE   C2113723   5.950   2.156   2.664 -0.1869  0.3240 -0.5453
  128SOPE   O2213724   6.041   2.195   2.592  0.7882 -0.0184 -0.5772
  128SOPE   C2213725   5.978   2.047   2.765  0.1782  0.1653 -0.0341
  128SOPE   H2R13726   5.936   1.956   2.719  0.3909  0.2820 -0.4637
  128SOPE   H2S13727   5.929   2.066   2.863  1.3864  0.8973  0.4610
  128SOPE    C313728   5.677   2.380   2.649  0.7734 -0.2890  0.5732
  128SOPE    HX13729   5.600   2.300   2.645  0.5578 -0.0392 -1.5718
  128SOPE    HY13730   5.641   2.458   2.578  2.9587  0.0352 -0.2441
  128SOPE   O3113731   5.694   2.434   2.781  0.4759 -0.1469 -0.2529
  128SOPE   C3113732   5.732   2.553   2.794  0.0840 -0.1575 -0.2007
  128SOPE   O3213733   5.742   2.633   2.702  0.5631  0.8985  0.1668
  128SOPE   C3213734   5.779   2.573   2.934  0.2705  0.2473 -0.1817
  128SOPE   H2X13735   5.832   2.670   2.939 -0.3415  0.5835 -0.2694
  128SOPE   H2Y13736   5.863   2.501   2.951  0.7684  0.7485 -0.4664
  128SOPE   C2313737   6.133   2.029   2.800 -0.0629 -0.4979  0.0596
  128SOPE   H3R13738   6.179   2.117   2.850  1.2946 -0.0552 -1.8714
  128SOPE   H3S13739   6.185   2.007   2.704  0.6165 -1.0899  0.5445
  128SOPE   C2413740   6.161   1.906   2.893  0.0673 -0.6366  0.0246
  128SOPE   H4R13741   6.061   1.859   2.906 -0.4895  0.8153  1.2437
  128SOPE   H4S13742   6.240   1.844   2.845  0.4017 -0.3033  0.1408
  128SOPE   C2513743   6.221   1.941   3.030  0.0332 -0.4276 -0.4096
  128SOPE   H5R13744   6.304   2.015   3.035  0.5662 -1.0844  2.9513
  128SOPE   H5S13745   6.143   2.003   3.081  0.8363 -0.3802  0.8055
  128SOPE   C2613746   6.242   1.829   3.138 -0.1066 -0.4994 -0.1903
  128SOPE   H6R13747   6.144   1.780   3.156 -1.0598  0.6025 -2.1135
  128SOPE   H6S13748   6.310   1.751   3.097  0.3265 -1.8695  2.8468
  128SOPE   C2713749   6.300   1.894   3.265  0.8659  1.1912 -0.1564
  128SOPE   H7R13750   6.403   1.930   3.249  0.6115  1.7505 -0.5394
  128SOPE   H7S13751   6.228   1.973   3.297 -1.1687 -0.9269  0.8563
  128SOPE   C2813752   6.316   1.792   3.384  0.0568 -0.4336  1.0001
  128SOPE   H8R13753   6.220   1.739   3.406 -1.3813  1.4158 -0.4240
  128SOPE   H8S13754   6.381   1.708   3.352 -0.3135 -0.2681 -0.2410
  128SOPE   C2913755   6.390   1.854   3.499  0.7821 -0.4685  0.2434
  128SOPE   H9113756   6.493   1.885   3.478  0.9402  0.9518  2.7677
  128SOPE  C21013757   6.340   1.874   3.622 -0.1202  0.0808 -0.2382
  128SOPE  H10113758   6.412   1.929   3.684  2.2318 -2.8180 -0.2297
  128SOPE  C21113759   6.200   1.853   3.671 -0.2216 -0.8173  0.8388
  128SOPE  H11R13760   6.134   1.825   3.586  1.8114 -0.3581 -0.9799
  128SOPE  H11S13761   6.171   1.947   3.721  2.0874 -1.0275  2.7199
  128SOPE  C21213762   6.197   1.734   3.769  0.0986  0.4057  0.2965
  128SOPE  H12R13763   6.268   1.656   3.736  0.2729  1.5567 -2.3361
  128SOPE  H12S13764   6.090   1.702   3.772  0.7117 -1.7323  1.0519
  128SOPE  C21313765   6.246   1.781   3.905  0.2211  0.4820  0.1838
  128SOPE  H13R13766   6.171   1.854   3.943  1.5695  2.8454 -1.4400
  128SOPE  H13S13767   6.344   1.834   3.906  0.9751 -0.8786 -0.3966
  128SOPE  C21413768   6.272   1.666   4.000 -0.0175 -0.0613  0.7905
  128SOPE  H14R13769   6.370   1.615   3.986 -1.1773 -1.6802 -2.7036
  128SOPE  H14S13770   6.195   1.586   3.998 -0.5478  0.4504  0.2405
  128SOPE  C21513771   6.287   1.720   4.147  0.3741  0.1159 -0.6575
  128SOPE  H15R13772   6.188   1.728   4.196  0.1917  0.2687 -1.0402
  128SOPE  H15S13773   6.339   1.818   4.139 -1.4255  0.9722 -5.1338
  128SOPE  C21613774   6.368   1.613   4.225 -0.2921 -0.7952 -0.6920
  128SOPE  H16R13775   6.476   1.612   4.199  0.0168 -0.8794  0.5531
  128SOPE  H16S13776   6.322   1.516   4.199  0.1137 -0.8688 -1.1488
  128SOPE  C21713777   6.354   1.621   4.379 -0.1280  0.0564  0.0651
  128SOPE  H17R13778   6.431   1.556   4.426 -0.6050  0.3889  1.3513
  128SOPE  H17S13779   6.257   1.592   4.423 -0.0111 -0.6111 -0.1133
  128SOPE  C21813780   6.389   1.760   4.439  0.3196 -0.8801  0.5692
  128SOPE  H18R13781   6.417   1.753   4.546 -1.0594 -0.4454  0.9800
  128SOPE  H18S13782   6.306   1.832   4.424  0.5344 -1.0228 -1.6679
  128SOPE  H18T13783   6.475   1.805   4.385  0.1875  0.8342  1.7163
  128SOPE   C3313784   5.671   2.551   3.047  0.3315  0.4573 -0.1631
  128SOPE   H3X13785   5.650   2.443   3.059  0.5736  0.0507 -2.8449
  128SOPE   H3Y13786   5.578   2.601   3.012 -0.5467  0.1102  1.5533
  128SOPE   C3413787   5.708   2.619   3.176 -0.3551  0.4767  0.2237
  128SOPE   H4X13788   5.610   2.642   3.223 -0.7984 -0.7285 -0.0990
  128SOPE   H4Y13789   5.753   2.721   3.168 -2.0168  1.3888  1.6929
  128SOPE   C3513790   5.785   2.529   3.274 -0.4988  0.0266 -0.4751
  128SOPE   H5X13791   5.881   2.507   3.223  0.0277 -0.7354  0.7733
  128SOPE   H5Y13792   5.730   2.434   3.291  1.7223 -1.4629 -1.1453
  128SOPE   C3613793   5.806   2.601   3.411  0.3803 -0.3269  0.2415
  128SOPE   H6X13794   5.718   2.584   3.476  0.8858 -0.7519  0.8210
  128SOPE   H6Y13795   5.799   2.710   3.391 -1.6254 -0.5238 -0.2652
  128SOPE   C3713796   5.945   2.572   3.474 -0.3722 -0.7394 -1.1435
  128SOPE   H7X13797   5.950   2.623   3.572 -0.1632 -0.9329 -1.0506
  128SOPE   H7Y13798   6.033   2.603   3.413  0.2074  0.3111  0.1828
  128SOPE   C3813799   5.945   2.425   3.517  0.1269  0.9016 -0.5538
  128SOPE   H8X13800   6.046   2.388   3.546 -0.9918  0.4581  3.3976
  128SOPE   H8Y13801   5.916   2.362   3.430  0.2568  1.4747 -1.0169
  128SOPE   C3913802   5.841   2.389   3.637 -0.2357 -0.6185 -0.3688
  128SOPE   H9X13803   5.737   2.397   3.598 -0.7446 -2.7564  0.4244
  128SOPE   H9Y13804   5.857   2.445   3.732 -2.1883 -3.4552  1.8048
  128SOPE  C31013805   5.859   2.241   3.663 -0.3643  0.6717  0.8578
  128SOPE  H10X13806   5.968   2.222   3.679  0.1101 -0.4832 -2.7512
  128SOPE  H10Y13807   5.833   2.186   3.571  0.4482  0.1814  0.9108
  128SOPE  C31113808   5.791   2.202   3.792 -0.0330  0.5938 -0.7536
  128SOPE  H11X13809   5.688   2.244   3.789  0.2415  1.2279 -3.6292
  128SOPE  H11Y13810   5.829   2.256   3.881 -0.7699 -0.9670  0.5881
  128SOPE  C31213811   5.785   2.053   3.831  0.0171  0.2037  0.6782
  128SOPE  H12X13812   5.880   2.005   3.797 -0.5245  0.8245 -1.9204
  128SOPE  H12Y13813   5.695   2.012   3.781  0.6442 -1.3142  0.7049
  128SOPE  C31313814   5.777   2.011   3.980  0.1294 -0.3225 -0.5388
  128SOPE  H13X13815   5.858   2.051   4.044 -0.4182  0.6705 -0.4436
  128SOPE  H13Y13816   5.773   1.900   3.985 -1.0780 -0.2247  1.9124
  128SOPE  C31413817   5.646   2.049   4.041 -0.2898  0.7132 -0.1653
  128SOPE  H14X13818   5.560   2.011   3.982  1.5938 -0.9454 -1.9895
  128SOPE  H14Y13819   5.646   2.160   4.044 -0.8907  0.6990  1.7003
  128SOPE  C31513820   5.626   2.009   4.189  0.0529  0.0514  0.0315
  128SOPE  H15X13821   5.725   2.028   4.234 -0.5325  0.5084  1.1709
  128SOPE  H15Y13822   5.608   1.899   4.198  0.6546 -0.2362 -1.8555
  128SOPE  C31613823   5.514   2.096   4.256 -0.0750  0.0423  1.4477
  128SOPE  H16X13824   5.438   2.126   4.181  2.5679  1.3839 -0.9161
  128SOPE  H16Y13825   5.551   2.194   4.294 -1.9128  1.3159  0.1029
  128SOPE  C31713826   5.450   2.030   4.376 -0.0454  0.3426 -0.0825
  128SOPE  H17X13827   5.526   2.018   4.455 -1.4378  2.0725  1.6095
  128SOPE  H17Y13828   5.425   1.924   4.355  1.7108 -0.4270  1.4403
  128SOPE  C31813829   5.337   2.112   4.433  0.3136 -0.0095  0.3972
  128SOPE  H18X13830   5.290   2.077   4.528 -0.1209 -2.5117 -0.6520
  128SOPE  H18Y13831   5.271   2.147   4.351  2.5869 -1.7352 -2.3847
  128SOPE  H18Z13832   5.379   2.210   4.463 -2.0940  1.2531 -0.1104
  129OSM      N13833   1.471   1.425   6.659 -0.4549 -0.7655 -0.4107
  129OSM    C1513834   1.603   1.445   6.592  0.5690  0.0442  0.1663
  129OSM   H15A13835   1.679   1.400   6.654 -0.2786 -3.1863 -0.9202
  129OSM   H15B13836   1.626   1.550   6.587  2.7436 -0.3993 -0.3564
  129OSM   H15C13837   1.600   1.394   6.497 -0.1940  0.4098 -0.0101
  129OSM    C1413838   1.360   1.481   6.574  0.0904  0.2189 -0.2011
  129OSM   H14A13839   1.259   1.461   6.607  0.4302 -1.2733  0.0151
  129OSM   H14B13840   1.363   1.437   6.476 -3.4055  1.4972 -1.0532
  129OSM   H14C13841   1.370   1.589   6.575  0.6402  0.2223  2.6486
  129OSM    C1313842   1.447   1.278   6.670 -0.3090 -0.0329  0.0872
  129OSM   H13A13843   1.434   1.245   6.568  1.8097 -0.7831  0.0104
  129OSM   H13B13844   1.359   1.258   6.729 -0.1408 -1.5192 -0.1361
  129OSM   H13C13845   1.528   1.221   6.712  1.4564  2.6222  0.5599
  129OSM    C1213846   1.473   1.488   6.798 -0.4715  0.8778 -0.9514
  129OSM   H12A13847   1.562   1.449   6.845 -1.3774 -0.3463 -0.2080
  129OSM   H12B13848   1.388   1.459   6.858  2.1446  1.0848  3.2766
  129OSM    C1113849   1.487   1.641   6.803  0.0894  0.3198 -0.1972
  129OSM   H11A13850   1.474   1.682   6.905 -1.5515  0.8944 -0.6015
  129OSM   H11B13851   1.410   1.686   6.736 -2.3451 -1.5792  1.1230
  129OSM      P13852   1.672   1.818   6.776  0.1855  0.0290 -0.0339
  129OSM    O1313853   1.603   1.879   6.887  0.6972  0.0890 -0.0436
  129OSM    O1413854   1.816   1.820   6.778 -0.4031  0.8451  0.3625
  129OSM    O1113855   1.611   1.883   6.643  0.2593  0.4096 -0.3738
  129OSM    O1213856   1.623   1.672   6.763 -0.1045  0.1313 -0.6587
  129OSM    C1S13857   1.495   1.964   6.637  0.1302  0.1955 -0.8033
  129OSM    H1S13858   1.518   2.066   6.675  0.7807 -0.3744  0.3584
  129OSM    H1T13859   1.417   1.918   6.702  0.8692 -0.0453 -0.0765
  129OSM     NF13860   1.320   2.067   6.484  0.0885 -0.0315 -0.4652
  129OSM    HNF13861   1.233   2.020   6.477 -0.0912  0.4274 -1.4133
  129OSM    C2S13862   1.432   1.974   6.498  0.8263  0.1090  0.7254
  129OSM    H2S13863   1.517   2.019   6.441  0.4793 -0.4770 -0.2824
  129OSM    C3S13864   1.402   1.837   6.426 -0.1652 -0.2832  0.5608
  129OSM    H3S13865   1.316   1.784   6.472 -0.4317 -0.6681 -0.3615
  129OSM     O313866   1.506   1.744   6.434 -0.2783  0.2789 -0.7981
  129OSM    HO313867   1.569   1.788   6.492 -0.3253 -3.1861  2.2742
  129OSM    C4S13868   1.367   1.866   6.284 -0.3547  0.2444 -0.3625
  129OSM    H4S13869   1.402   1.965   6.251  1.0618 -0.6164 -1.5789
  129OSM    C5S13870   1.288   1.784   6.205  0.3282 -0.1665 -1.0336
  129OSM    H5S13871   1.267   1.682   6.239 -0.5946 -0.9078 -3.5846
  129OSM    C6S13872   1.237   1.815   6.070  0.4675  0.1753 -0.1219
  129OSM    H6S13873   1.138   1.767   6.050  1.3290 -0.7395 -2.4817
  129OSM    H6T13874   1.300   1.767   5.993 -0.1746 -0.8133 -0.0531
  129OSM    C7S13875   1.208   1.959   6.037  0.0353 -0.2241  0.4729
  129OSM    H7S13876   1.302   2.017   6.028 -1.4917  2.1371 -1.2224
  129OSM    H7T13877   1.148   2.009   6.115 -1.7899 -3.1860  1.1344
  129OSM    C8S13878   1.137   1.982   5.904  0.4074 -0.1491  0.5265
  129OSM    H8S13879   1.085   2.080   5.910 -0.0517 -0.2329 -1.4179
  129OSM    H8T13880   1.055   1.910   5.881 -0.0022  0.4378  0.1333
  129OSM    C9S13881   1.232   1.986   5.779  0.1479  0.3400 -0.1594
  129OSM    H9S13882   1.323   1.924   5.797  0.1585  0.6108  0.7922
  129OSM    H9T13883   1.274   2.089   5.787  2.1909 -0.5771  3.0273
  129OSM   C10S13884   1.170   1.959   5.646 -0.0365 -0.1096  0.2312
  129OSM   H10S13885   1.064   1.989   5.657 -0.6840 -2.5484  1.2958
  129OSM   H10T13886   1.163   1.849   5.638  1.1664 -0.1667 -0.1957
  129OSM   C11S13887   1.236   2.028   5.526 -0.7386 -0.1099  0.3992
  129OSM   H11S13888   1.341   1.994   5.519 -0.5695  0.3020  0.8787
  129OSM   H11T13889   1.233   2.139   5.531 -0.7184 -0.0645 -0.3973
  129OSM   C12S13890   1.157   1.988   5.394 -0.2318 -0.0014  0.9864
  129OSM   H12S13891   1.052   2.023   5.407  0.3191  0.8849  3.7976
  129OSM   H12T13892   1.149   1.878   5.386 -0.1293  0.1290 -2.1532
  129OSM   C13S13893   1.217   2.048   5.265 -0.4754 -0.3026 -0.4854
  129OSM   H13S13894   1.320   2.006   5.256  0.0227  1.0031 -1.0841
  129OSM   H13T13895   1.213   2.159   5.275  0.9825 -0.1566 -1.2708
  129OSM   C14S13896   1.131   2.014   5.140  0.0782  0.5241 -0.8192
  129OSM   H14S13897   1.023   2.039   5.143 -0.0474  0.1468 -1.6969
  129OSM   H14T13898   1.131   1.903   5.137  0.7911  0.3879  1.8365
  129OSM   C15S13899   1.182   2.077   5.014 -0.4167  0.0526 -0.1640
  129OSM   H15S13900   1.289   2.048   5.005 -0.2093  0.8509 -0.2738
  129OSM   H15T13901   1.172   2.187   5.015 -1.6611 -0.0441  0.1773
  129OSM   C16S13902   1.112   2.034   4.885  0.1592  0.3763 -0.5068
  129OSM   H16S13903   1.014   2.084   4.874 -0.9381 -1.9363 -1.7138
  129OSM   H16T13904   1.084   1.927   4.896 -0.8120  0.7300  0.7806
  129OSM   C17S13905   1.190   2.050   4.759 -0.6112 -0.6328  0.0839
  129OSM   H17S13906   1.296   2.022   4.776  0.2451  1.3791 -1.4787
  129OSM   H17T13907   1.204   2.158   4.738  1.8832 -1.0620 -0.8140
  129OSM   C18S13908   1.136   1.985   4.628  0.1006 -0.5897  0.5752
  129OSM   H18S13909   1.035   2.007   4.588  1.7097  2.4222 -2.3445
  129OSM   H18T13910   1.140   1.874   4.629 -1.3489 -0.6735 -0.2396
  129OSM   H18U13911   1.208   2.009   4.546  0.8511 -0.9948  1.1051
  129OSM    C1F13912   1.325   2.202   6.500 -0.0622  1.1086  0.7986
  129OSM     OF13913   1.430   2.254   6.538 -0.3851  0.6026 -0.1249
  129OSM    C2F13914   1.198   2.275   6.479  0.0015  0.3236 -1.1551
  129OSM    H2F13915   1.205   2.379   6.518 -2.5906 -0.3620  1.5075
  129OSM    H2G13916   1.115   2.216   6.523  1.7816 -2.6521 -1.4876
  129OSM    C3F13917   1.167   2.284   6.329  0.8453 -0.0746 -0.1524
  129OSM    H3F13918   1.075   2.346   6.326  0.3144 -0.7135  1.7218
  129OSM    H3G13919   1.139   2.183   6.294 -2.7782  0.6218  0.2921
  129OSM    C4F13920   1.265   2.340   6.233 -0.0341  0.7242 -0.0253
  129OSM    H4F13921   1.339   2.267   6.194 -0.2043 -0.6021  2.0056
  129OSM    H4G13922   1.320   2.427   6.275  2.5765 -0.4420 -0.7911
  129OSM    C5F13923   1.186   2.399   6.117 -0.6562  0.5195 -0.6178
  129OSM    H5F13924   1.163   2.505   6.143  0.5285  0.4920  0.6564
  129OSM    H5G13925   1.092   2.345   6.096  1.0988 -2.5451 -1.1810
  129OSM    C6F13926   1.276   2.398   5.989  0.0936  0.5637 -0.4874
  129OSM    H6F13927   1.300   2.291   5.975  0.9028  0.2699  2.4938
  129OSM    H6G13928   1.370   2.457   5.999 -0.8980  2.5068 -1.8844
  129OSM    C7F13929   1.202   2.459   5.872 -0.4147 -0.0834  0.8277
  129OSM    H7F13930   1.191   2.568   5.890 -3.1703 -0.5090  2.1901
  129OSM    H7G13931   1.097   2.423   5.879 -0.7128  0.5000 -0.2668
  129OSM    C8F13932   1.275   2.431   5.731 -0.4863  0.5113  0.1355
  129OSM    H8F13933   1.306   2.324   5.722  0.9978  0.8851  0.4935
  129OSM    H8G13934   1.367   2.494   5.728 -0.2021  0.1370  0.6439
  129OSM    C9F13935   1.180   2.473   5.624  0.7203 -0.5950  0.3586
  129OSM    H9F13936   1.079   2.499   5.658  1.1882 -0.3002  1.5708
  129OSM   C10F13937   1.206   2.485   5.496 -0.5835 -0.2234  0.6988
  129OSM   H10F13938   1.125   2.524   5.433 -1.5396  0.3530  2.2408
  129OSM   C11F13939   1.341   2.442   5.431 -0.2046 -0.2809  0.1301
  129OSM   H11F13940   1.322   2.340   5.390 -1.6212  0.0609 -0.1439
  129OSM   H11G13941   1.427   2.443   5.501  0.4217 -2.1793 -0.5590
  129OSM   C12F13942   1.387   2.531   5.313  0.1029  0.2389 -1.2262
  129OSM   H12F13943   1.498   2.526   5.310  0.5149  1.5039  3.5100
  129OSM   H12G13944   1.366   2.636   5.341 -3.0505 -0.7491  0.6324
  129OSM   C13F13945   1.320   2.495   5.183  0.1444 -0.5347  0.1557
  129OSM   H13F13946   1.215   2.473   5.214 -0.4815  2.1415  0.1697
  129OSM   H13G13947   1.362   2.394   5.162 -1.4765 -1.6222  1.7219
  129OSM   C14F13948   1.314   2.600   5.070  0.2003 -0.0095 -0.5378
  129OSM   H14F13949   1.421   2.626   5.060  0.5821 -1.1825  0.3348
  129OSM   H14G13950   1.246   2.684   5.098 -2.1413 -2.0419  0.2153
  129OSM   C15F13951   1.277   2.547   4.931  1.1016 -0.5882  0.4447
  129OSM   H15F13952   1.168   2.527   4.940  0.7606  0.3070 -1.3036
  129OSM   H15G13953   1.333   2.452   4.921  1.5899 -0.3093  0.4653
  129OSM   C16F13954   1.298   2.650   4.811  0.2076  0.8798 -0.2509
  129OSM   H16F13955   1.236   2.629   4.722 -0.9770  0.9731  0.5299
  129OSM   H16G13956   1.402   2.645   4.772  0.0423  0.2273 -0.6085
  129OSM   C17F13957   1.280   2.798   4.851  0.2295 -0.0706 -0.3616
  129OSM   H17F13958   1.355   2.815   4.932 -1.8117 -0.8354  1.7868
  129OSM   H17G13959   1.180   2.808   4.897  1.0533  0.2829  1.4538
  129OSM   C18F13960   1.311   2.897   4.735  0.4276  0.9160 -0.5228
  129OSM   H18F13961   1.243   2.871   4.651  0.8800 -1.0402 -0.3265
  129OSM   H18G13962   1.419   2.886   4.712  0.6981  0.0893  1.0054
  129OSM   H18H13963   1.298   3.004   4.764  1.9113  0.9064  0.2380
  130OSM      N13964   1.560   5.111   6.913 -0.0799 -0.0396  0.3802
  130OSM    C1513965   1.595   5.063   7.048  0.3216 -0.1077  0.1725
  130OSM   H15A13966   1.502   5.049   7.100 -0.1889 -2.6920 -1.2765
  130OSM   H15B13967   1.652   5.140   7.098 -2.4553  1.4643  1.1261
  130OSM   H15C13968   1.653   4.972   7.048 -1.2828 -1.1763  1.1879
  130OSM    C1413969   1.468   5.230   6.943 -0.8412  0.0400 -0.0727
  130OSM   H14A13970   1.399   5.201   7.020  0.6368 -0.3694  1.1432
  130OSM   H14B13971   1.422   5.271   6.854 -0.6326 -0.9724 -0.6598
  130OSM   H14C13972   1.520   5.310   6.995 -0.0420 -0.8783  0.5704
  130OSM    C1313973   1.673   5.152   6.838 -0.6546  0.4674 -0.4504
  130OSM   H13A13974   1.644   5.181   6.738  0.2023  3.2467 -0.0002
  130OSM   H13B13975   1.746   5.072   6.836 -1.3047 -0.1768  0.7479
  130OSM   H13C13976   1.718   5.242   6.877  0.0335  0.1957 -0.5939
  130OSM    C1213977   1.484   4.998   6.844  0.0731  0.0658 -0.1647
  130OSM   H12A13978   1.416   4.968   6.922  1.8196 -0.0138  1.3954
  130OSM   H12B13979   1.550   4.915   6.829  0.4582  0.0047  1.6249
  130OSM    C1113980   1.414   5.025   6.715  0.3452 -0.7395  0.2711
  130OSM   H11A13981   1.408   4.938   6.646 -0.3703 -0.1664 -0.4082
  130OSM   H11B13982   1.484   5.094   6.664 -0.5605  0.1577  0.2081
  130OSM      P13983   1.153   5.005   6.702 -0.1017 -0.3726 -0.7939
  130OSM    O1313984   1.183   4.864   6.724  0.2330  0.5045 -0.4762
  130OSM    O1413985   1.050   5.057   6.794 -0.1967 -0.6072  0.7951
  130OSM    O1113986   1.114   5.031   6.556 -0.0543 -0.0731  0.4020
  130OSM    O1213987   1.286   5.092   6.737 -0.6231 -0.7223  0.0867
  130OSM    C1S13988   1.205   5.029   6.444  0.0904  0.2675  0.1075
  130OSM    H1S13989   1.265   4.937   6.453  2.2412  1.4700 -1.2162
  130OSM    H1T13990   1.273   5.115   6.462 -0.5309  0.7644  0.1509
  130OSM     NF13991   1.201   5.001   6.185 -0.3233  0.2533  0.0589
  130OSM    HNF13992   1.246   5.073   6.134  0.2725  0.7952  1.3224
  130OSM    C2S13993   1.123   5.041   6.301  0.3629 -0.4068  0.6127
  130OSM    H2S13994   1.040   4.967   6.298  0.9746 -1.0734 -0.6570
  130OSM    C3S13995   1.048   5.176   6.289  0.0586 -0.0428 -0.3062
  130OSM    H3S13996   1.120   5.261   6.288 -0.5387  0.4783 -1.8443
  130OSM     O313997   0.978   5.208   6.408  0.2321 -0.5474 -0.1542
  130OSM    HO313998   0.999   5.140   6.472 -1.0859 -0.4909  0.3599
  130OSM    C4S13999   0.971   5.186   6.166 -0.2060 -0.2482 -0.2078
  130OSM    H4S14000   1.034   5.211   6.080 -2.4672 -1.3517 -2.3033
  130OSM    C5S14001   0.840   5.152   6.155  0.0988  0.6250  0.3572
  130OSM    H5S14002   0.784   5.113   6.241 -2.2411  0.6141 -1.1059
  130OSM    C6S14003   0.775   5.164   6.015  0.3307 -0.1926 -0.2218
  130OSM    H6S14004   0.668   5.186   6.035 -0.1549 -2.4775 -0.0946
  130OSM    H6T14005   0.784   5.069   5.958  0.5984 -0.1685 -0.2209
  130OSM    C7S14006   0.826   5.284   5.926 -0.0967  0.4851  0.1827
  130OSM    H7S14007   0.936   5.277   5.909 -0.3383 -1.1008 -0.9653
  130OSM    H7T14008   0.807   5.383   5.973  0.8873  0.5079  0.5643
  130OSM    C8S14009   0.755   5.292   5.791 -1.0787 -0.3487 -0.3317
  130OSM    H8S14010   0.783   5.389   5.744  0.0687  0.1127  1.2278
  130OSM    H8T14011   0.645   5.294   5.806 -0.7690 -1.3284  2.8512
  130OSM    C9S14012   0.799   5.181   5.689  0.3596 -0.5812  0.2965
  130OSM    H9S14013   0.737   5.095   5.722 -0.4435  0.5615  1.9191
  130OSM    H9T14014   0.909   5.164   5.692  0.4274 -0.2200 -0.1198
  130OSM   C10S14015   0.765   5.232   5.549  0.1416 -0.0298  0.1299
  130OSM   H10S14016   0.836   5.312   5.517 -0.5694  0.5296 -0.0956
  130OSM   H10T14017   0.661   5.272   5.548  0.0055 -0.3149 -1.6501
  130OSM   C11S14018   0.785   5.123   5.440 -0.3991 -0.3205 -0.2301
  130OSM   H11S14019   0.750   5.022   5.471  0.3348 -0.2314  0.9634
  130OSM   H11T14020   0.894   5.111   5.425 -0.7059 -1.4905 -1.7019
  130OSM   C12S14021   0.729   5.168   5.305  0.2102 -0.0898 -0.3565
  130OSM   H12S14022   0.761   5.271   5.281  0.5172  0.3514  1.7599
  130OSM   H12T14023   0.618   5.171   5.309  0.1621  2.7000 -1.7811
  130OSM   C13S14024   0.778   5.068   5.190  0.1538  0.1587 -0.1585
  130OSM   H13S14025   0.732   4.969   5.211  0.5915  0.1829  1.0062
  130OSM   H13T14026   0.887   5.053   5.180 -0.0605 -0.2931 -2.2640
  130OSM   C14S14027   0.721   5.118   5.059  1.1305  0.0350 -0.3954
  130OSM   H14S14028   0.766   5.215   5.029  0.5424  0.6794  0.7271
  130OSM   H14T14029   0.611   5.115   5.068  0.9861  1.3532 -1.3562
  130OSM   C15S14030   0.771   5.016   4.951  1.2482 -0.3513  0.2057
  130OSM   H15S14031   0.735   4.917   4.986 -0.1365  0.6682  1.8541
  130OSM   H15T14032   0.882   5.014   4.952  1.2330 -1.6642  0.7371
  130OSM   C16S14033   0.727   5.057   4.809  0.1798 -0.8154  0.4075
  130OSM   H16S14034   0.794   5.017   4.729 -1.8612  2.0276 -3.0019
  130OSM   H16T14035   0.757   5.163   4.798  0.8028 -1.0289 -0.0272
  130OSM   C17S14036   0.584   5.020   4.762 -0.2016  0.2707 -0.7190
  130OSM   H17S14037   0.504   5.076   4.815  0.1374  0.1760 -0.0927
  130OSM   H17T14038   0.574   4.913   4.794 -1.9815 -0.2364 -2.7300
  130OSM   C18S14039   0.564   5.044   4.620  0.8635 -0.5843 -0.5600
  130OSM   H18S14040   0.470   4.995   4.587  0.3509 -0.0258  0.0392
  130OSM   H18T14041   0.649   5.001   4.563  0.6896  0.4899 -1.6749
  130OSM   H18U14042   0.550   5.153   4.602  1.7770 -0.4064 -0.1895
  130OSM    C1F14043   1.241   4.878   6.164  0.4609 -0.4023 -0.9752
  130OSM     OF14044   1.217   4.787   6.241  0.0217  0.1244 -0.6346
  130OSM    C2F14045   1.314   4.861   6.037  0.0367 -0.3070 -0.3015
  130OSM    H2F14046   1.405   4.925   6.043 -0.0846 -0.2869  3.6665
  130OSM    H2G14047   1.259   4.907   5.952  0.7604  0.6080 -0.2956
  130OSM    C3F14048   1.342   4.718   6.009 -1.2150  0.5847  0.5565
  130OSM    H3F14049   1.252   4.655   5.989 -0.2524 -1.3251  1.9689
  130OSM    H3G14050   1.402   4.674   6.091  2.3166 -1.3954 -2.7513
  130OSM    C4F14051   1.438   4.694   5.886 -0.5626  0.5799 -0.0687
  130OSM    H4F14052   1.461   4.586   5.885 -0.9001  0.4741  1.3357
  130OSM    H4G14053   1.536   4.746   5.900 -0.5943  0.1622  2.0684
  130OSM    C5F14054   1.381   4.728   5.747  1.0135  0.0395 -0.1282
  130OSM    H5F14055   1.332   4.827   5.748  2.7177  0.9184  0.0539
  130OSM    H5G14056   1.298   4.657   5.729  0.7341  0.3469 -0.0549
  130OSM    C6F14057   1.485   4.732   5.638 -0.3636 -0.0524  0.0075
  130OSM    H6F14058   1.569   4.660   5.643 -1.6089 -1.7198 -1.8331
  130OSM    H6G14059   1.536   4.828   5.663 -1.3564 -0.0318  2.2098
  130OSM    C7F14060   1.414   4.735   5.501 -0.3504 -0.4103 -0.0027
  130OSM    H7F14061   1.340   4.817   5.490  0.3365  0.1918 -0.1977
  130OSM    H7G14062   1.353   4.642   5.504 -0.4304 -0.3403  1.2571
  130OSM    C8F14063   1.513   4.731   5.383 -0.2088 -1.2342  0.6969
  130OSM    H8F14064   1.590   4.653   5.403  0.1519 -0.3269  3.1109
  130OSM    H8G14065   1.563   4.828   5.364  0.2282 -1.8251 -1.4992
  130OSM    C9F14066   1.442   4.690   5.254  0.5721 -0.2264  0.0659
  130OSM    H9F14067   1.396   4.589   5.257  0.1414 -0.0848 -1.0774
  130OSM   C10F14068   1.416   4.761   5.145  0.6151 -0.4814 -0.7092
  130OSM   H10F14069   1.368   4.707   5.062 -3.6468  3.1764 -1.0402
  130OSM   C11F14070   1.464   4.898   5.118  0.3329 -0.2341  0.3133
  130OSM   H11F14071   1.561   4.922   5.167  0.4294  0.0543 -0.0141
  130OSM   H11G14072   1.390   4.972   5.154  0.0496  0.6516 -1.9243
  130OSM   C12F14073   1.484   4.943   4.972  0.2381 -0.3175 -0.0295
  130OSM   H12F14074   1.386   4.952   4.919 -0.1479 -3.8928 -0.1824
  130OSM   H12G14075   1.539   4.866   4.915 -0.3832 -2.2590  1.8287
  130OSM   C13F14076   1.563   5.069   4.955 -0.6009  0.6396 -0.3881
  130OSM   H13F14077   1.669   5.055   4.984 -0.5064  0.8667 -0.6167
  130OSM   H13G14078   1.525   5.153   5.018  1.2305  1.6020 -0.4856
  130OSM   C14F14079   1.574   5.118   4.805 -0.2534 -0.1799  0.3414
  130OSM   H14F14080   1.624   5.041   4.741  1.3421 -0.2794  1.6572
  130OSM   H14G14081   1.634   5.210   4.818  1.3435 -1.0310 -0.6583
  130OSM   C15F14082   1.436   5.154   4.754  0.2297  0.0100 -0.4752
  130OSM   H15F14083   1.393   5.233   4.819 -0.0943 -1.3658  1.0396
  130OSM   H15G14084   1.369   5.066   4.754  0.2049 -0.0698 -3.0854
  130OSM   C16F14085   1.449   5.193   4.608 -0.3661  0.0280  0.8244
  130OSM   H16F14086   1.493   5.106   4.555 -1.1043  0.2479 -0.1768
  130OSM   H16G14087   1.517   5.280   4.590 -0.1263 -0.5316 -1.3208
  130OSM   C17F14088   1.319   5.225   4.538  0.1951 -0.2989  1.1412
  130OSM   H17F14089   1.305   5.334   4.549  0.0484 -0.0464 -1.0371
  130OSM   H17G14090   1.232   5.163   4.569 -1.5544 -1.5329 -4.9403
  130OSM   C18F14091   1.347   5.201   4.386  0.2012 -0.1998  0.4800
  130OSM   H18F14092   1.252   5.228   4.336 -0.6264  1.5777  2.8620
  130OSM   H18G14093   1.354   5.093   4.360 -1.9923 -1.1032  3.1888
  130OSM   H18H14094   1.428   5.264   4.343  0.4704 -1.1103 -0.4055
  131OSM      N14095   2.414   2.512   6.886  0.3257  0.1829 -0.0053
  131OSM    C1514096   2.309   2.582   6.966  0.5571  0.4485 -0.0936
  131OSM   H15A14097   2.285   2.681   6.930 -0.9740 -0.3310 -1.3590
  131OSM   H15B14098   2.340   2.596   7.068 -1.0320  0.0847  0.4744
  131OSM   H15C14099   2.220   2.520   6.969  0.5171  0.4551 -0.8944
  131OSM    C1414100   2.552   2.580   6.890 -0.0074 -0.4143  0.1585
  131OSM   H14A14101   2.636   2.515   6.865  0.8914  0.3787  1.0538
  131OSM   H14B14102   2.571   2.622   6.987 -0.0366  0.7842 -0.3386
  131OSM   H14C14103   2.547   2.656   6.814  0.1431 -1.5032 -0.9908
  131OSM    C1314104   2.419   2.366   6.929  0.1863 -0.6570 -0.2454
  131OSM   H13A14105   2.481   2.310   6.861  1.3646 -1.8414  1.6921
  131OSM   H13B14106   2.326   2.312   6.925 -0.2646 -0.3176  2.8836
  131OSM   H13C14107   2.445   2.362   7.034 -1.5711  2.8248  0.4667
  131OSM    C1214108   2.376   2.504   6.737  0.7751 -0.0468 -0.0771
  131OSM   H12A14109   2.288   2.442   6.727 -0.6322  1.9686 -0.7753
  131OSM   H12B14110   2.454   2.448   6.687  3.0321  0.4694  2.5927
  131OSM    C1114111   2.333   2.636   6.672 -0.4055 -0.2361  0.7144
  131OSM   H11A14112   2.345   2.622   6.563  0.0763 -0.9314  0.8530
  131OSM   H11B14113   2.394   2.713   6.724 -1.2647 -0.2517  1.7869
  131OSM      P14114   2.073   2.601   6.642 -0.2429 -0.5367 -0.3740
  131OSM    O1314115   1.973   2.585   6.748  0.3729  0.0738  0.1926
  131OSM    O1414116   2.034   2.670   6.520 -0.2675 -0.0803  0.4265
  131OSM    O1114117   2.140   2.460   6.597 -0.5926  0.4749 -0.0725
  131OSM    O1214118   2.202   2.665   6.707 -0.0789  0.0124  0.2523
  131OSM    C1S14119   2.045   2.350   6.556  0.6249  0.0420 -0.2928
  131OSM    H1S14120   1.940   2.359   6.589 -0.5184 -2.6497 -2.7458
  131OSM    H1T14121   2.075   2.257   6.608  1.0407  0.3847  0.0954
  131OSM     NF14122   1.965   2.209   6.354  0.0396 -0.2196  0.6174
  131OSM    HNF14123   2.014   2.142   6.299  0.6749 -1.5258  2.6646
  131OSM    C2S14124   2.055   2.313   6.400 -0.1191  0.3226  0.0061
  131OSM    H2S14125   2.022   2.404   6.345  2.7194  1.6043  0.1967
  131OSM    C3S14126   2.204   2.293   6.362  0.3908  0.4336  0.2325
  131OSM    H3S14127   2.255   2.202   6.400  1.4106 -0.0836 -2.1649
  131OSM     O314128   2.289   2.406   6.390  0.3604  0.4433  0.3325
  131OSM    HO314129   2.245   2.457   6.459  3.5686  0.7857  2.3528
  131OSM    C4S14130   2.204   2.258   6.208  0.2430 -0.0293  0.0450
  131OSM    H4S14131   2.221   2.152   6.184 -0.2809 -0.2058  0.4172
  131OSM    C5S14132   2.205   2.344   6.105  0.2596  0.5069 -0.3304
  131OSM    H5S14133   2.208   2.450   6.135  0.2871  0.1409  0.9945
  131OSM    C6S14134   2.233   2.315   5.958  0.4913 -0.4437  1.3812
  131OSM    H6S14135   2.260   2.209   5.937  0.7815 -0.3957  1.5013
  131OSM    H6T14136   2.313   2.379   5.916  0.9681 -2.0441 -0.2933
  131OSM    C7S14137   2.098   2.352   5.887 -0.1403 -0.1781 -0.0556
  131OSM    H7S14138   2.074   2.459   5.908 -0.0219 -0.3029  0.7618
  131OSM    H7T14139   2.017   2.289   5.929 -1.1315  1.0298 -0.0956
  131OSM    C8S14140   2.098   2.332   5.738  0.1437  0.8184  1.0086
  131OSM    H8S14141   1.993   2.337   5.700 -0.7349 -2.0657  2.7365
  131OSM    H8T14142   2.117   2.227   5.705 -2.5412  0.7012 -0.4611
  131OSM    C9S14143   2.184   2.428   5.657  0.9123 -1.2584 -0.6712
  131OSM    H9S14144   2.285   2.422   5.702 -0.0784  1.7691  2.3977
  131OSM    H9T14145   2.145   2.528   5.685 -0.1808 -2.1938  1.3831
  131OSM   C10S14146   2.184   2.396   5.503  0.0670  0.2780  0.1125
  131OSM   H10S14147   2.206   2.288   5.488 -0.4809  0.1405  0.2670
  131OSM   H10T14148   2.275   2.444   5.460  1.8178 -3.0319 -0.1947
  131OSM   C11S14149   2.053   2.432   5.433 -0.0419  0.3551 -0.3903
  131OSM   H11S14150   2.030   2.539   5.453  1.8510  0.3715  2.0475
  131OSM   H11T14151   1.966   2.378   5.477  0.1975 -0.5804 -1.0306
  131OSM   C12S14152   2.050   2.388   5.292 -0.0371 -0.0292  0.2703
  131OSM   H12S14153   1.947   2.405   5.252  0.2910  2.3035  0.2652
  131OSM   H12T14154   2.063   2.280   5.274  1.0873  0.3348 -1.2124
  131OSM   C13S14155   2.129   2.470   5.193  0.1744 -0.0422  0.2045
  131OSM   H13S14156   2.236   2.445   5.210 -0.1811 -0.1808  2.6667
  131OSM   H13T14157   2.123   2.572   5.235  0.1574  0.3300 -0.6718
  131OSM   C14S14158   2.095   2.459   5.045 -0.2334  1.1394  0.2517
  131OSM   H14S14159   2.087   2.356   5.004  0.2231  0.5961  1.4691
  131OSM   H14T14160   2.179   2.513   4.997 -0.0301  0.8872  0.3268
  131OSM   C15S14161   1.963   2.535   5.010  0.2818 -0.0121  0.5785
  131OSM   H15S14162   1.983   2.642   5.027 -0.1594  0.0208  0.9023
  131OSM   H15T14163   1.879   2.501   5.075 -0.1701  0.9409  0.5155
  131OSM   C16S14164   1.922   2.530   4.860 -0.4851  0.1806 -0.6184
  131OSM   H16S14165   1.825   2.582   4.851  0.1111  1.8560  1.8581
  131OSM   H16T14166   1.912   2.423   4.831 -2.2415 -0.1505  1.0143
  131OSM   C17S14167   2.033   2.598   4.780  0.4809 -0.5560 -0.1444
  131OSM   H17S14168   1.994   2.591   4.676 -2.4364  2.5377  0.5619
  131OSM   H17T14169   2.132   2.547   4.787  2.7746  3.2815 -1.1731
  131OSM   C18S14170   2.063   2.743   4.809  0.3394 -1.0086 -0.3598
  131OSM   H18S14171   2.101   2.749   4.913  0.8797 -0.9697 -0.5573
  131OSM   H18T14172   1.966   2.798   4.811  0.2649 -1.1536  0.3379
  131OSM   H18U14173   2.134   2.793   4.739 -0.5180 -0.2398 -0.7102
  131OSM    C1F14174   1.835   2.207   6.368 -0.3270 -0.6056 -0.2393
  131OSM     OF14175   1.769   2.295   6.426  0.0583 -0.2797 -0.1722
  131OSM    C2F14176   1.777   2.082   6.317  0.8622  0.4995 -0.6762
  131OSM    H2F14177   1.729   2.021   6.396 -0.2949  0.5502 -1.3278
  131OSM    H2G14178   1.853   2.027   6.257  1.9433  1.5296 -0.3144
  131OSM    C3F14179   1.661   2.115   6.217  0.0564  0.1465  0.1946
  131OSM    H3F14180   1.585   2.175   6.272 -0.0104  0.4497 -0.2302
  131OSM    H3G14181   1.612   2.017   6.197 -2.2082  1.5706 -1.7823
  131OSM    C4F14182   1.720   2.171   6.088  0.2171 -0.2846  0.1488
  131OSM    H4F14183   1.771   2.087   6.036  1.0531  0.3146 -0.0231
  131OSM    H4G14184   1.803   2.245   6.096  1.8693 -2.0073 -0.3345
  131OSM    C5F14185   1.607   2.215   5.993 -0.0414 -0.7286  0.1140
  131OSM    H5F14186   1.531   2.275   6.047  0.2740  0.0044 -0.2360
  131OSM    H5G14187   1.554   2.119   5.975 -0.5324 -0.6257  0.9804
  131OSM    C6F14188   1.627   2.273   5.851 -0.0357  0.5874  0.6246
  131OSM    H6F14189   1.679   2.371   5.857  0.8047  0.2235 -0.3311
  131OSM    H6G14190   1.529   2.291   5.802  1.0437  0.1650 -1.8137
  131OSM    C7F14191   1.687   2.185   5.742  0.4452 -0.1807  0.2797
  131OSM    H7F14192   1.640   2.084   5.737 -2.6159  1.1598  0.2162
  131OSM    H7G14193   1.792   2.178   5.779  0.4932  0.7122  0.3267
  131OSM    C8F14194   1.699   2.240   5.602  0.0304  0.2326  0.4618
  131OSM    H8F14195   1.736   2.344   5.618  1.0248  0.4407 -2.5359
  131OSM    H8G14196   1.602   2.244   5.549  1.0801 -1.3109 -1.7074
  131OSM    C9F14197   1.810   2.168   5.514 -0.0624  0.0226 -1.1222
  131OSM    H9F14198   1.905   2.139   5.560  1.0019  0.8357 -2.7238
  131OSM   C10F14199   1.799   2.157   5.381  0.3838  0.8554  0.1332
  131OSM   H10F14200   1.879   2.103   5.328  1.6729  1.2088  1.6365
  131OSM   C11F14201   1.680   2.200   5.301  0.3528  0.0187 -0.0682
  131OSM   H11F14202   1.675   2.311   5.312  2.2413  0.4107 -2.3401
  131OSM   H11G14203   1.582   2.162   5.336  2.1271 -3.0012  2.1026
  131OSM   C12F14204   1.703   2.177   5.151  0.2273 -0.4497  0.4135
  131OSM   H12F14205   1.704   2.071   5.116 -0.2847  0.0243 -1.1642
  131OSM   H12G14206   1.806   2.209   5.126 -0.0255  0.8041  0.9294
  131OSM   C13F14207   1.606   2.271   5.059 -0.3166  0.4295  0.4685
  131OSM   H13F14208   1.591   2.376   5.094 -1.6168  0.0741  1.0084
  131OSM   H13G14209   1.503   2.234   5.044  0.3853 -0.7400 -1.8377
  131OSM   C14F14210   1.668   2.265   4.916  0.5396 -0.5036 -0.2042
  131OSM   H14F14211   1.659   2.164   4.871 -1.1257  0.0126 -1.1255
  131OSM   H14G14212   1.778   2.282   4.921  0.3580  0.3234  1.8178
  131OSM   C15F14213   1.608   2.371   4.821  0.4275 -0.2022 -0.0088
  131OSM   H15F14214   1.622   2.475   4.858 -1.1402  0.6544 -1.6893
  131OSM   H15G14215   1.497   2.359   4.818 -0.1497  3.7657 -0.3979
  131OSM   C16F14216   1.657   2.356   4.679 -0.2105 -0.3246 -0.3861
  131OSM   H16F14217   1.645   2.253   4.639 -0.5709 -0.7536  0.7862
  131OSM   H16G14218   1.767   2.365   4.681 -0.0879 -1.3675  2.7268
  131OSM   C17F14219   1.596   2.454   4.576 -0.1607 -0.2464 -0.4196
  131OSM   H17F14220   1.486   2.448   4.593  0.2725 -2.3594  2.6171
  131OSM   H17G14221   1.635   2.414   4.481  1.1822 -1.2923  0.5306
  131OSM   C18F14222   1.638   2.602   4.582  0.4353  0.1730 -0.3339
  131OSM   H18F14223   1.578   2.667   4.514 -1.6300  1.7224  2.6919
  131OSM   H18G14224   1.746   2.615   4.559  0.3257 -0.8444 -1.5504
  131OSM   H18H14225   1.613   2.645   4.682 -3.0070  1.0525 -1.4026
  132OSM      N14226   2.557   4.422   6.826 -0.3987  0.3528 -0.0459
  132OSM    C1514227   2.455   4.382   6.926 -0.3769  0.7053  0.2891
  132OSM   H15A14228   2.469   4.278   6.950  0.1283  0.6950 -0.0199
  132OSM   H15B14229   2.355   4.408   6.895 -0.9502 -0.0112  1.4735
  132OSM   H15C14230   2.471   4.426   7.024  2.0413  0.2819  0.1612
  132OSM    C1414231   2.532   4.572   6.796 -0.1468  0.5794 -0.3410
  132OSM   H14A14232   2.568   4.635   6.876  2.5816 -0.5214 -0.5772
  132OSM   H14B14233   2.425   4.587   6.790 -0.4388 -1.1778 -0.0973
  132OSM   H14C14234   2.587   4.601   6.707  1.2001  0.5836  0.4622
  132OSM    C1314235   2.694   4.418   6.892 -0.7602 -0.7095 -0.2032
  132OSM   H13A14236   2.723   4.321   6.928  0.1207  0.0140  1.1198
  132OSM   H13B14237   2.699   4.484   6.977  1.3913 -2.1709  0.8619
  132OSM   H13C14238   2.772   4.447   6.822 -1.1318 -2.3972 -1.3729
  132OSM    C1214239   2.544   4.338   6.710 -0.3279 -0.7910 -0.0198
  132OSM   H12A14240   2.611   4.375   6.632 -1.6333  0.8946 -0.4119
  132OSM   H12B14241   2.453   4.359   6.656 -0.1933  3.6713  1.0264
  132OSM    C1114242   2.572   4.186   6.735 -0.0486  1.0088  0.4171
  132OSM   H11A14243   2.660   4.159   6.798 -0.9000 -1.8304  0.5422
  132OSM   H11B14244   2.605   4.142   6.639 -0.5322  0.0471  0.6779
  132OSM      P14245   2.341   4.077   6.728  0.5911 -0.0711 -0.3637
  132OSM    O1314246   2.331   3.930   6.725  0.5517 -0.3637 -0.6495
  132OSM    O1414247   2.231   4.154   6.797  0.0072 -0.1995  0.1251
  132OSM    O1114248   2.351   4.125   6.584 -0.3913 -0.1618  0.6342
  132OSM    O1214249   2.472   4.109   6.803 -0.4041 -0.2298  0.4034
  132OSM    C1S14250   2.284   4.054   6.482 -0.2517 -0.7813  0.8124
  132OSM    H1S14251   2.178   4.087   6.496 -0.6036 -1.6409  0.2615
  132OSM    H1T14252   2.308   3.945   6.476  1.5537 -0.3526 -0.3465
  132OSM     NF14253   2.266   4.029   6.242 -0.4371 -0.2134  0.1673
  132OSM    HNF14254   2.332   3.976   6.189 -0.3529 -0.7971  0.8518
  132OSM    C2S14255   2.323   4.114   6.337  0.6815  0.1642  0.6083
  132OSM    H2S14256   2.270   4.211   6.323 -2.6063 -1.6495 -0.6205
  132OSM    C3S14257   2.476   4.147   6.317  0.2232  0.1561  0.2539
  132OSM    H3S14258   2.529   4.050   6.331 -1.9167 -1.0023  0.7536
  132OSM     O314259   2.526   4.231   6.417  0.0974 -0.3103 -0.0514
  132OSM    HO314260   2.458   4.231   6.485 -0.5700  0.0075 -0.6986
  132OSM    C4S14261   2.493   4.209   6.182  0.1797 -0.3442  1.1673
  132OSM    H4S14262   2.456   4.310   6.158  1.8322 -0.2513 -1.2871
  132OSM    C5S14263   2.569   4.152   6.088 -0.2225 -0.1195  0.0121
  132OSM    H5S14264   2.586   4.044   6.102 -3.2003 -0.5046  1.4436
  132OSM    C6S14265   2.604   4.214   5.957  0.5336 -0.1595  0.1369
  132OSM    H6S14266   2.699   4.161   5.936 -0.5229 -1.4108 -1.7825
  132OSM    H6T14267   2.618   4.324   5.969  1.0330 -0.2765  0.6725
  132OSM    C7S14268   2.500   4.167   5.849 -0.4065 -0.7610 -0.8621
  132OSM    H7S14269   2.401   4.213   5.868 -0.3420 -0.2112 -1.7755
  132OSM    H7T14270   2.495   4.057   5.862 -0.4453 -0.6201  0.4731
  132OSM    C8S14271   2.548   4.206   5.710 -0.0795  0.2497  0.6522
  132OSM    H8S14272   2.656   4.202   5.685 -0.1545  0.8891  0.2102
  132OSM    H8T14273   2.526   4.314   5.708  2.7585  0.9202  0.8674
  132OSM    C9S14274   2.471   4.144   5.597  0.0337  0.1985  0.3271
  132OSM    H9S14275   2.365   4.174   5.611 -0.6217 -1.5070 -0.6420
  132OSM    H9T14276   2.465   4.033   5.589  0.5676 -0.0028  2.0795
  132OSM   C10S14277   2.526   4.213   5.469 -0.3689 -0.2793 -0.0080
  132OSM   H10S14278   2.625   4.167   5.447 -0.1836  0.1653 -0.1084
  132OSM   H10T14279   2.536   4.323   5.484  0.7512 -0.5603  1.6276
  132OSM   C11S14280   2.445   4.187   5.346  0.0784 -0.1105  0.8616
  132OSM   H11S14281   2.345   4.231   5.366 -0.3319  0.5192 -2.0652
  132OSM   H11T14282   2.423   4.080   5.329 -0.3567  0.1119 -0.0730
  132OSM   C12S14283   2.512   4.258   5.229 -0.0961 -0.1994  0.2974
  132OSM   H12S14284   2.607   4.204   5.208  1.0174  1.3368  1.2563
  132OSM   H12T14285   2.533   4.364   5.255 -0.9834  0.0643 -0.0131
  132OSM   C13S14286   2.420   4.240   5.102 -0.0664 -0.0434 -0.4172
  132OSM   H13S14287   2.437   4.322   5.029  0.0236 -0.2157 -0.5897
  132OSM   H13T14288   2.320   4.254   5.147 -0.0427 -0.1544 -0.3285
  132OSM   C14S14289   2.443   4.106   5.045 -0.4733  0.0149 -0.3097
  132OSM   H14S14290   2.467   4.025   5.116 -3.6180 -0.8093 -0.0085
  132OSM   H14T14291   2.532   4.112   4.979 -0.2178 -2.3913 -0.2524
  132OSM   C15S14292   2.324   4.052   4.968  0.1140 -0.1779 -0.3557
  132OSM   H15S14293   2.237   4.029   5.032  1.3054 -1.5236  0.8445
  132OSM   H15T14294   2.351   3.951   4.930  0.2907 -0.1764 -0.2371
  132OSM   C16S14295   2.285   4.132   4.847 -0.4333 -0.6400  0.1999
  132OSM   H16S14296   2.366   4.136   4.771 -0.0493  0.0047  0.6349
  132OSM   H16T14297   2.263   4.239   4.868  1.1047 -0.2258 -0.1406
  132OSM   C17S14298   2.176   4.067   4.757 -0.2223 -0.2723 -0.0428
  132OSM   H17S14299   2.084   4.055   4.819  0.9570 -0.9136  1.6456
  132OSM   H17T14300   2.203   3.966   4.719 -1.5519 -1.9126  3.0125
  132OSM   C18S14301   2.133   4.148   4.637 -0.1877  0.0502 -0.2013
  132OSM   H18S14302   2.110   4.255   4.658  1.7814  0.5763 -0.5096
  132OSM   H18T14303   2.046   4.101   4.586 -0.7543 -1.2507  1.8466
  132OSM   H18U14304   2.207   4.163   4.556 -1.9861  2.3793 -1.5840
  132OSM    C1F14305   2.135   4.006   6.224 -0.5836 -0.3884  0.3194
  132OSM     OF14306   2.050   4.085   6.275  0.2204  0.0896  0.5778
  132OSM    C2F14307   2.099   3.882   6.145 -0.5750  0.0930  0.2697
  132OSM    H2F14308   2.129   3.791   6.200  0.2011 -0.5518 -1.1781
  132OSM    H2G14309   2.157   3.889   6.051  0.9298 -1.9691  0.9794
  132OSM    C3F14310   1.955   3.868   6.115 -0.4566 -0.1757  0.5032
  132OSM    H3F14311   1.909   3.960   6.074  0.2132 -0.4125 -0.8213
  132OSM    H3G14312   1.905   3.829   6.206  0.7972 -2.3286  0.3338
  132OSM    C4F14313   1.936   3.757   6.008  0.0900  0.2544 -0.8949
  132OSM    H4F14314   1.834   3.717   6.022  1.0598 -1.2922  3.0123
  132OSM    H4G14315   2.005   3.670   6.019 -1.4984 -1.0240 -0.7488
  132OSM    C5F14316   1.955   3.818   5.865 -0.2635  0.1615  0.3325
  132OSM    H5F14317   2.055   3.866   5.868 -1.1133  1.9733  2.1447
  132OSM    H5G14318   1.869   3.886   5.845 -3.1012 -2.5967  2.1066
  132OSM    C6F14319   1.958   3.721   5.748  0.0547  0.2785 -0.2838
  132OSM    H6F14320   1.865   3.663   5.735  0.8010 -1.1636  0.5473
  132OSM    H6G14321   2.040   3.646   5.761  0.5135  0.4961 -1.7812
  132OSM    C7F14322   1.975   3.794   5.616  0.0308 -0.1854 -0.3557
  132OSM    H7F14323   2.069   3.849   5.638 -1.2414  1.2111  2.0310
  132OSM    H7G14324   1.896   3.872   5.610  0.9597  0.9621  1.5536
  132OSM    C8F14325   1.986   3.711   5.492  0.6804  0.7760 -0.3239
  132OSM    H8F14326   1.925   3.618   5.487 -0.6708  1.6676 -1.1246
  132OSM    H8G14327   2.088   3.669   5.483 -0.6832 -2.7602 -0.9487
  132OSM    C9F14328   1.975   3.789   5.367  0.4695 -0.6876 -0.0345
  132OSM    H9F14329   2.023   3.888   5.370 -0.7556 -0.0863  0.6303
  132OSM   C10F14330   1.908   3.768   5.251 -0.4352  0.8907  0.4011
  132OSM   H10F14331   1.915   3.837   5.166 -1.4337  1.6885  0.9503
  132OSM   C11F14332   1.817   3.648   5.222 -0.1786 -0.0387 -0.0891
  132OSM   H11F14333   1.747   3.681   5.141 -1.0874 -1.5874  0.0165
  132OSM   H11G14334   1.751   3.625   5.308  0.7754  0.9214  0.9156
  132OSM   C12F14335   1.895   3.525   5.170 -0.1601 -0.0557  0.5498
  132OSM   H12F14336   1.825   3.439   5.176 -2.2299  1.5422  0.5636
  132OSM   H12G14337   1.971   3.509   5.250  0.4404 -1.2972 -0.2375
  132OSM   C13F14338   1.953   3.522   5.039  0.0885 -0.2091 -0.2410
  132OSM   H13F14339   2.014   3.429   5.029  0.3366 -0.0736 -0.0027
  132OSM   H13G14340   2.018   3.612   5.030 -1.5221  0.9176 -1.1577
  132OSM   C14F14341   1.853   3.509   4.921  0.3852  0.0514  0.3192
  132OSM   H14F14342   1.782   3.595   4.923  2.1028  1.5089  1.7469
  132OSM   H14G14343   1.790   3.418   4.932 -0.3683  0.4403 -0.6383
  132OSM   C15F14344   1.911   3.522   4.781  0.0817  0.0707  0.5905
  132OSM   H15F14345   1.986   3.441   4.767 -1.7453 -1.1959 -3.1249
  132OSM   H15G14346   1.963   3.619   4.763 -1.5686  0.5704 -2.0523
  132OSM   C16F14347   1.806   3.507   4.670  0.9386  0.8050 -0.1657
  132OSM   H16F14348   1.743   3.597   4.686  1.9562  1.4448  0.3044
  132OSM   H16G14349   1.747   3.417   4.697  1.2712  0.4391 -0.6325
  132OSM   C17F14350   1.875   3.484   4.526  0.1822  0.7216  0.2538
  132OSM   H17F14351   1.807   3.525   4.448 -0.3494  0.3793  0.5335
  132OSM   H17G14352   1.874   3.375   4.501 -2.6499  0.9960 -1.2076
  132OSM   C18F14353   2.011   3.550   4.497 -0.1195  0.0885  0.0982
  132OSM   H18F14354   1.994   3.658   4.519 -1.0644 -0.2987  1.3484
  132OSM   H18G14355   2.049   3.548   4.392 -2.2137  2.8103 -0.8333
  132OSM   H18H14356   2.093   3.518   4.565  1.7249  2.2734 -0.9536
  133OSM      N14357   0.881   4.622   6.764  0.4683  0.0360  0.4097
  133OSM    C1514358   1.006   4.577   6.836 -0.0247  0.5314  0.3247
  133OSM   H15A14359   1.032   4.658   6.903  1.8225  1.6485 -1.6382
  133OSM   H15B14360   1.084   4.548   6.768 -0.6680 -2.3704  0.6707
  133OSM   H15C14361   0.979   4.486   6.889 -1.7412  1.6354  1.4611
  133OSM    C1414362   0.761   4.632   6.856 -0.4007 -0.6566 -0.2646
  133OSM   H14A14363   0.679   4.675   6.802  1.5068  4.2528  0.2313
  133OSM   H14B14364   0.776   4.695   6.943 -0.3244 -1.5582  0.3994
  133OSM   H14C14365   0.724   4.534   6.885 -2.5588  0.4725  1.0516
  133OSM    C1314366   0.905   4.752   6.704 -0.1805  0.4584  0.1373
  133OSM   H13A14367   1.005   4.758   6.664  0.1517 -1.4909  0.5908
  133OSM   H13B14368   0.890   4.836   6.771  0.8843  0.7694  0.0114
  133OSM   H13C14369   0.847   4.770   6.614 -0.2851  0.0594  0.1262
  133OSM    C1214370   0.849   4.518   6.656  0.1047 -0.4168 -0.2236
  133OSM   H12A14371   0.914   4.531   6.572 -1.0403  1.9005 -0.8343
  133OSM   H12B14372   0.751   4.544   6.619 -0.5398 -1.3305  0.7749
  133OSM    C1114373   0.838   4.373   6.691  0.2474  0.6778 -0.7853
  133OSM   H11A14374   0.932   4.340   6.740  0.6112 -0.6979 -2.2922
  133OSM   H11B14375   0.835   4.305   6.603  1.2143  1.2178 -1.2535
  133OSM      P14376   0.612   4.249   6.783  0.2033  0.0055  0.5046
  133OSM    O1314377   0.670   4.132   6.842 -0.1405  0.4914 -0.0998
  133OSM    O1414378   0.487   4.287   6.852 -0.2640  0.5631 -0.3248
  133OSM    O1114379   0.580   4.219   6.629  0.3017  0.5105 -0.4721
  133OSM    O1214380   0.723   4.353   6.779  0.0137 -0.3290 -0.0691
  133OSM    C1S14381   0.503   4.304   6.544 -0.8344  0.9823 -0.2369
  133OSM    H1S14382   0.532   4.408   6.571 -2.6735  0.6872  3.6898
  133OSM    H1T14383   0.398   4.278   6.569 -0.4861 -1.1343 -0.8486
  133OSM     NF14384   0.465   4.372   6.321  0.3147  0.4223 -0.2267
  133OSM    HNF14385   0.386   4.330   6.276  0.3267  0.8808 -0.6922
  133OSM    C2S14386   0.539   4.277   6.402  0.4320  0.5074  0.4043
  133OSM    H2S14387   0.649   4.290   6.396  0.7213 -0.3347  2.8078
  133OSM    C3S14388   0.508   4.127   6.369  0.2790 -0.3415 -0.5630
  133OSM    H3S14389   0.401   4.107   6.393 -0.1684 -1.4200 -3.1232
  133OSM     O314390   0.587   4.034   6.443 -0.1499  0.0740  0.0921
  133OSM    HO314391   0.596   4.080   6.527  1.2793  0.3236 -0.1744
  133OSM    C4S14392   0.523   4.094   6.233  0.6921  0.4588 -0.1110
  133OSM    H4S14393   0.624   4.091   6.191  0.6532  0.6979 -0.2244
  133OSM    C5S14394   0.420   4.083   6.147  0.8600  0.1275 -0.1077
  133OSM    H5S14395   0.316   4.111   6.170 -0.1737 -1.9561 -1.9060
  133OSM    C6S14396   0.442   4.055   5.998  0.0925 -0.8244  0.0093
  133OSM    H6S14397   0.346   4.039   5.944 -0.1118  1.3798 -0.3848
  133OSM    H6T14398   0.497   3.962   5.972  3.9154  1.3707 -0.4244
  133OSM    C7S14399   0.516   4.168   5.923  0.3122  0.3746  0.2002
  133OSM    H7S14400   0.619   4.176   5.963 -0.6424  0.8917  2.7933
  133OSM    H7T14401   0.464   4.264   5.945 -1.3090 -0.1085 -1.2494
  133OSM    C8S14402   0.512   4.150   5.768  0.4599  0.0082 -0.4745
  133OSM    H8S14403   0.408   4.148   5.730  0.8804  0.3823 -1.7072
  133OSM    H8T14404   0.571   4.059   5.742  2.6630  1.0551  0.6021
  133OSM    C9S14405   0.576   4.276   5.708 -0.1206  0.7159 -0.0672
  133OSM    H9S14406   0.672   4.284   5.763  0.8123  2.9804 -1.9097
  133OSM    H9T14407   0.521   4.366   5.742  0.7180  0.5240  1.9531
  133OSM   C10S14408   0.593   4.275   5.557  0.2975 -0.7938 -0.4722
  133OSM   H10S14409   0.668   4.206   5.513 -0.7428 -1.8381 -0.6676
  133OSM   H10T14410   0.635   4.375   5.535 -3.0046  0.7469 -0.3777
  133OSM   C11S14411   0.463   4.257   5.464 -0.4000 -0.5435 -1.0442
  133OSM   H11S14412   0.402   4.348   5.475  2.0723  1.2090 -0.9673
  133OSM   H11T14413   0.426   4.155   5.487  0.4584 -1.0165 -1.7070
  133OSM   C12S14414   0.503   4.244   5.320 -0.7506  0.2335 -0.3732
  133OSM   H12S14415   0.409   4.214   5.269 -1.2750  1.1688  0.0046
  133OSM   H12T14416   0.584   4.168   5.317  0.6337  1.5243  1.8684
  133OSM   C13S14417   0.563   4.376   5.274  0.0032 -0.6005  0.0525
  133OSM   H13S14418   0.665   4.383   5.319 -0.4131  0.0162  0.9410
  133OSM   H13T14419   0.503   4.454   5.325 -0.4504  0.6748 -2.2878
  133OSM   C14S14420   0.559   4.388   5.116  0.2990  0.0002 -0.6695
  133OSM   H14S14421   0.450   4.370   5.101 -0.0061  1.2241 -0.0368
  133OSM   H14T14422   0.620   4.304   5.076  1.7665 -0.6414  2.6132
  133OSM   C15S14423   0.585   4.531   5.069 -0.3342  0.0981  0.1017
  133OSM   H15S14424   0.694   4.553   5.068 -0.1517 -0.7690  0.1657
  133OSM   H15T14425   0.526   4.591   5.140 -1.2737 -1.6139  0.8372
  133OSM   C16S14426   0.530   4.559   4.927  0.5902 -0.4042  0.0680
  133OSM   H16S14427   0.536   4.668   4.913  0.1964 -0.4489 -0.4722
  133OSM   H16T14428   0.429   4.514   4.913  1.5179 -2.4643 -0.4667
  133OSM   C17S14429   0.622   4.494   4.819 -0.7739 -0.1656  0.3444
  133OSM   H17S14430   0.620   4.383   4.814  1.7962 -0.2121 -0.9194
  133OSM   H17T14431   0.726   4.509   4.855 -1.0678 -1.2930  1.7786
  133OSM   C18S14432   0.589   4.550   4.674  0.1746  0.7491 -0.2696
  133OSM   H18S14433   0.613   4.658   4.664  0.5565  0.9247  1.9359
  133OSM   H18T14434   0.484   4.524   4.646  0.4110 -0.7498  0.1368
  133OSM   H18U14435   0.648   4.487   4.605 -2.0519 -1.1429 -0.5684
  133OSM    C1F14436   0.478   4.501   6.319 -0.0957 -0.4717 -0.2401
  133OSM     OF14437   0.590   4.552   6.342 -0.1888 -0.1928 -0.3448
  133OSM    C2F14438   0.358   4.585   6.299  0.3302 -0.2286 -0.2947
  133OSM    H2F14439   0.346   4.668   6.373 -1.2743  1.4249 -2.2817
  133OSM    H2G14440   0.264   4.527   6.308  0.8618 -1.4007 -1.9575
  133OSM    C3F14441   0.350   4.655   6.166 -0.1397 -0.4159  0.3607
  133OSM    H3F14442   0.431   4.730   6.162 -0.4567 -0.0975 -0.5208
  133OSM    H3G14443   0.254   4.709   6.153  0.1356 -0.3897 -2.0545
  133OSM    C4F14444   0.355   4.555   6.045  0.3190 -0.3634  0.2679
  133OSM    H4F14445   0.444   4.488   6.042  0.0691 -0.6711 -0.4373
  133OSM    H4G14446   0.367   4.629   5.963  1.4369  1.5158  2.0388
  133OSM    C5F14447   0.221   4.487   6.025 -0.2722 -0.3298  0.3244
  133OSM    H5F14448   0.141   4.561   6.048 -0.3597 -0.3636  0.1304
  133OSM    H5G14449   0.231   4.402   6.095  1.7581 -0.7351 -0.3637
  133OSM    C6F14450   0.206   4.437   5.875 -0.1097  0.6167 -1.0690
  133OSM    H6F14451   0.106   4.390   5.859 -0.6777  1.6872 -0.7626
  133OSM    H6G14452   0.277   4.358   5.845 -0.3611 -1.0990  2.4442
  133OSM    C7F14453   0.206   4.548   5.769 -0.6263  0.6863 -0.3415
  133OSM    H7F14454   0.313   4.570   5.748 -0.0711 -1.2358  0.2764
  133OSM    H7G14455   0.166   4.649   5.794 -0.1156  0.6129  0.8156
  133OSM    C8F14456   0.143   4.496   5.637  0.2969  0.1810  0.1781
  133OSM    H8F14457   0.033   4.484   5.652  0.4388 -0.5780  0.6713
  133OSM    H8G14458   0.189   4.397   5.618  1.5601  0.2198  2.6213
  133OSM    C9F14459   0.170   4.582   5.510 -0.5836  0.2785 -0.0108
  133OSM    H9F14460   0.206   4.685   5.526  1.8420 -0.6103  0.5984
  133OSM   C10F14461   0.154   4.544   5.381  0.2692 -0.1799 -0.1036
  133OSM   H10F14462   0.171   4.628   5.312 -0.5633 -0.7472 -1.0058
  133OSM   C11F14463   0.107   4.412   5.323 -0.3902 -0.6112  0.0625
  133OSM   H11F14464   0.039   4.363   5.396 -0.6369 -0.6615 -0.1966
  133OSM   H11G14465   0.186   4.337   5.303  0.4156 -0.4911  2.4934
  133OSM   C12F14466   0.050   4.444   5.188 -0.6317  0.7726  0.0615
  133OSM   H12F14467  -0.018   4.532   5.193 -0.9264  0.4960  1.2647
  133OSM   H12G14468  -0.022   4.362   5.167 -0.4078  0.1278  1.6424
  133OSM   C13F14469   0.166   4.458   5.078  0.3698 -0.6015 -1.0501
  133OSM   H13F14470   0.216   4.359   5.081 -1.0528 -1.3616  2.0993
  133OSM   H13G14471   0.243   4.533   5.108 -0.1586 -0.6899  0.6302
  133OSM   C14F14472   0.109   4.473   4.931  0.2040  0.6738  0.3469
  133OSM   H14F14473   0.088   4.579   4.906 -0.5416  0.4090 -0.1943
  133OSM   H14G14474   0.008   4.429   4.926  0.1353  0.9426 -1.4526
  133OSM   C15F14475   0.172   4.400   4.812 -0.0362  0.8711 -0.1806
  133OSM   H15F14476   0.175   4.290   4.830 -1.1043  0.7712 -0.5404
  133OSM   H15G14477   0.280   4.428   4.805  0.9206 -1.6860  2.2980
  133OSM   C16F14478   0.105   4.433   4.676 -0.0181  0.1841 -0.0783
  133OSM   H16F14479  -0.001   4.401   4.683 -1.5143  4.2804 -1.0938
  133OSM   H16G14480   0.150   4.362   4.604  0.3105 -1.1287  1.3588
  133OSM   C17F14481   0.116   4.582   4.644  0.3449  0.7250  0.4581
  133OSM   H17F14482   0.222   4.608   4.625 -0.0951  2.3180  0.0729
  133OSM   H17G14483   0.075   4.643   4.727  0.8063  3.4800 -1.2048
  133OSM   C18F14484   0.028   4.611   4.520  0.1639 -0.8429  0.7543
  133OSM   H18F14485   0.018   4.720   4.502  1.7207 -0.9059 -0.7822
  133OSM   H18G14486  -0.067   4.555   4.531  0.4790 -2.1010 -1.9839
  133OSM   H18H14487   0.078   4.574   4.427 -0.2011  0.5786 -0.0306
  134OSM      N14488   0.102   3.080   7.324 -0.1072 -0.0677 -0.7485
  134OSM    C1514489   0.198   3.186   7.367  0.0741  0.3693  0.0485
  134OSM   H15A14490   0.220   3.167   7.471 -0.1809 -1.1015 -0.1525
  134OSM   H15B14491   0.154   3.284   7.354 -1.0210 -0.0829  0.2396
  134OSM   H15C14492   0.293   3.171   7.318  0.3547 -0.1899  0.7678
  134OSM    C1414493   0.150   2.953   7.375  0.3773  0.4222  0.0756
  134OSM   H14A14494   0.090   2.867   7.347 -1.2201 -0.0284  4.1223
  134OSM   H14B14495   0.143   2.959   7.483 -1.2086  0.8152 -0.0271
  134OSM   H14C14496   0.255   2.947   7.352  0.7649  0.6022  1.6506
  134OSM    C1314497  -0.028   3.109   7.378  0.5431 -0.5670 -0.2756
  134OSM   H13A14498  -0.102   3.035   7.351 -1.6746  2.1929 -2.4206
  134OSM   H13B14499  -0.067   3.198   7.331 -0.4455 -1.2493 -0.8005
  134OSM   H13C14500  -0.033   3.123   7.485  0.8828  2.0401 -0.5329
  134OSM    C1214501   0.097   3.067   7.170 -0.3665  0.0861  0.5844
  134OSM   H12A14502   0.017   2.996   7.155  0.8294 -1.0764 -0.5009
  134OSM   H12B14503   0.185   3.015   7.137  0.4333  1.3639  0.6506
  134OSM    C1114504   0.095   3.190   7.064  0.2621  0.7343  0.1879
  134OSM   H11A14505   0.100   3.150   6.961 -0.5458  1.9839 -0.3455
  134OSM   H11B14506   0.182   3.255   7.087  1.5514 -0.4007 -1.2477
  134OSM      P14507  -0.148   3.246   7.026 -0.1847  0.1941 -0.1276
  134OSM    O1314508  -0.208   3.137   7.102 -1.0199 -0.1771  0.2836
  134OSM    O1414509  -0.228   3.369   7.020  0.0795 -0.4144 -0.3329
  134OSM    O1114510  -0.109   3.199   6.875  0.7745 -0.7283 -0.6471
  134OSM    O1214511  -0.009   3.277   7.092  0.0553  0.1509  0.1736
  134OSM    C1S14512  -0.112   3.287   6.766 -0.4159 -0.3991 -0.2309
  134OSM    H1S14513  -0.065   3.384   6.792 -1.6128 -0.4743  2.6382
  134OSM    H1T14514  -0.220   3.306   6.749 -0.8872 -0.2648  2.4956
  134OSM     NF14515  -0.070   3.322   6.530  0.2862  0.5880 -0.1902
  134OSM    HNF14516  -0.135   3.323   6.453 -3.1827  4.3115  2.3586
  134OSM    C2S14517  -0.060   3.221   6.637 -0.1833 -0.3452  0.0552
  134OSM    H2S14518   0.049   3.203   6.642 -0.4807 -2.0365  1.2871
  134OSM    C3S14519  -0.148   3.093   6.602 -0.0493  0.2034 -0.3349
  134OSM    H3S14520  -0.258   3.109   6.599 -0.7836 -3.0678  2.4234
  134OSM     O314521  -0.152   2.989   6.702  0.6112 -0.0178  0.9558
  134OSM    HO314522  -0.118   3.040   6.776  1.6656 -0.6060  0.8818
  134OSM    C4S14523  -0.097   3.035   6.469 -0.2353  0.2657 -0.6029
  134OSM    H4S14524  -0.149   3.087   6.387  0.1605  1.6617  0.0012
  134OSM    C5S14525  -0.011   2.931   6.450  0.0636 -0.8440  0.5062
  134OSM    H5S14526   0.029   2.882   6.540 -0.6131 -0.4865  1.0124
  134OSM    C6S14527   0.030   2.867   6.315  0.4848  0.4295 -0.4720
  134OSM    H6S14528  -0.002   2.761   6.324  0.0519  0.4958 -1.1933
  134OSM    H6T14529   0.140   2.869   6.299  1.3083 -0.9925  3.6498
  134OSM    C7S14530  -0.039   2.915   6.182 -0.9436  0.0152 -0.1123
  134OSM    H7S14531  -0.060   3.024   6.186  1.6268  0.6921 -2.0160
  134OSM    H7T14532  -0.134   2.860   6.162 -2.0060  1.9689 -0.7380
  134OSM    C8S14533   0.048   2.901   6.059  0.2770 -0.9858 -0.2269
  134OSM    H8S14534   0.073   2.793   6.050  0.1570 -1.0811  0.4881
  134OSM    H8T14535   0.140   2.959   6.081  0.2990 -0.9284 -0.4650
  134OSM    C9S14536  -0.021   2.935   5.931  0.5037  0.0987  0.5864
  134OSM    H9S14537  -0.060   3.037   5.953  3.3283  1.5866 -0.7564
  134OSM    H9T14538  -0.106   2.866   5.910  0.8735 -0.4074  0.7408
  134OSM   C10S14539   0.074   2.947   5.812 -0.0052  0.2577 -0.3267
  134OSM   H10S14540   0.121   2.851   5.782 -0.9052 -0.1502 -0.4562
  134OSM   H10T14541   0.155   3.020   5.833  0.1181 -0.5891  2.5463
  134OSM   C11S14542   0.017   3.017   5.693  0.9588 -0.8197 -0.0790
  134OSM   H11S14543  -0.021   3.116   5.727  1.5141 -1.1668  1.6924
  134OSM   H11T14544  -0.072   2.958   5.663 -1.5622  0.9886  3.1833
  134OSM   C12S14545   0.107   3.046   5.572  0.2958  0.2645 -0.7105
  134OSM   H12S14546   0.154   2.954   5.534 -1.9333 -1.5597  0.6576
  134OSM   H12T14547   0.196   3.098   5.613  0.9099 -1.3037  0.0107
  134OSM   C13S14548   0.048   3.128   5.460  0.3032 -0.2971 -0.4407
  134OSM   H13S14549   0.028   3.233   5.490  2.3578  0.0923 -0.3182
  134OSM   H13T14550  -0.053   3.088   5.437 -0.4935  1.8379 -0.8991
  134OSM   C14S14551   0.131   3.137   5.335 -0.0392 -0.2790  0.3480
  134OSM   H14S14552   0.188   3.041   5.329  1.1647  0.4126  0.4542
  134OSM   H14T14553   0.217   3.206   5.346 -2.3790  2.5222  2.3002
  134OSM   C15S14554   0.056   3.172   5.203  0.1418 -0.1186  0.1017
  134OSM   H15S14555  -0.007   3.263   5.201 -0.1305 -0.2678  1.1888
  134OSM   H15T14556  -0.012   3.084   5.199 -1.4753  1.0266  1.0067
  134OSM   C16S14557   0.145   3.156   5.089 -0.8302  0.9940  0.2424
  134OSM   H16S14558   0.222   3.081   5.117 -1.2457  0.6560  0.4895
  134OSM   H16T14559   0.202   3.251   5.079  0.2707  0.2860 -0.4752
  134OSM   C17S14560   0.082   3.121   4.953 -0.1540  0.6913 -0.6479
  134OSM   H17S14561   0.024   3.027   4.966 -1.6080  1.4521 -1.3704
  134OSM   H17T14562   0.158   3.095   4.876 -0.7952 -1.2135 -0.6789
  134OSM   C18S14563  -0.021   3.218   4.898 -0.2221 -0.9819 -0.9122
  134OSM   H18S14564   0.018   3.319   4.878  1.5899 -1.2980  0.7018
  134OSM   H18T14565  -0.104   3.234   4.971  0.4323  1.1106 -0.5720
  134OSM   H18U14566  -0.071   3.179   4.807 -1.3385  0.2520 -0.8609
  134OSM    C1F14567  -0.008   3.435   6.526 -0.3989 -0.4857 -0.0866
  134OSM     OF14568   0.063   3.465   6.613 -0.8278 -0.2832 -0.0979
  134OSM    C2F14569  -0.050   3.531   6.422 -0.2381  0.3761 -0.4653
  134OSM    H2F14570  -0.152   3.566   6.450 -0.2552 -0.9980  1.4189
  134OSM    H2G14571  -0.075   3.483   6.325 -0.1225  1.0864 -0.8514
  134OSM    C3F14572   0.040   3.654   6.410  0.6425  0.2107 -0.3835
  134OSM    H3F14573   0.137   3.616   6.371 -0.6477 -1.2919 -2.3429
  134OSM    H3G14574   0.057   3.712   6.503  1.2631 -1.6144  0.7047
  134OSM    C4F14575  -0.007   3.741   6.300 -0.0531 -0.4940  0.2041
  134OSM    H4F14576   0.041   3.841   6.311  1.2189 -1.1027  0.2876
  134OSM    H4G14577  -0.116   3.747   6.323  0.2622 -1.3364  2.0605
  134OSM    C5F14578   0.020   3.704   6.150 -0.2260 -0.1284 -1.3879
  134OSM    H5F14579  -0.008   3.598   6.130  0.2097 -0.2101 -1.5667
  134OSM    H5G14580   0.130   3.713   6.142 -0.0607 -0.4369  0.1320
  134OSM    C6F14581  -0.060   3.786   6.050  0.8609 -0.5497 -0.5090
  134OSM    H6F14582  -0.157   3.824   6.088  0.8328 -0.3851 -0.7400
  134OSM    H6G14583  -0.074   3.726   5.957  1.4068 -0.6306 -0.5390
  134OSM    C7F14584   0.030   3.908   5.998  0.2568  0.2078  0.3122
  134OSM    H7F14585   0.132   3.871   5.972  0.0674 -0.9985  1.1719
  134OSM    H7G14586   0.040   3.983   6.079 -2.3741  2.1510 -1.0100
  134OSM    C8F14587  -0.024   3.976   5.873 -0.0457 -0.5630  0.3405
  134OSM    H8F14588  -0.108   4.043   5.900  1.1980  1.5292 -0.7282
  134OSM    H8G14589  -0.058   3.906   5.794 -2.3991  1.0705 -0.2106
  134OSM    C9F14590   0.079   4.073   5.816  0.1874 -1.4620 -0.9271
  134OSM    H9F14591   0.106   4.153   5.886 -0.8516 -0.9491 -1.0969
  134OSM   C10F14592   0.125   4.083   5.685 -0.2873 -0.0257 -0.5526
  134OSM   H10F14593   0.202   4.159   5.666  0.4530 -0.9052 -1.1649
  134OSM   C11F14594   0.086   3.996   5.565  0.8716  0.1463  0.7869
  134OSM   H11F14595  -0.025   3.997   5.561  0.8384  0.4927  1.5780
  134OSM   H11G14596   0.116   3.891   5.587  1.4296  0.1025 -0.1283
  134OSM   C12F14597   0.164   4.043   5.435 -0.3690  0.1547 -0.0816
  134OSM   H12F14598   0.273   4.026   5.450  0.1333  2.9076 -0.0249
  134OSM   H12G14599   0.143   4.152   5.429 -1.0376  0.0111 -0.4696
  134OSM   C13F14600   0.114   3.968   5.311  0.1791  0.1547  0.0231
  134OSM   H13F14601   0.005   3.986   5.294  0.4786  0.2878 -1.9353
  134OSM   H13G14602   0.133   3.859   5.312 -0.0380  0.1030  1.3018
  134OSM   C14F14603   0.186   4.028   5.184 -0.0222  0.4881 -1.1286
  134OSM   H14F14604   0.295   4.017   5.206 -0.9804 -4.0920  3.3337
  134OSM   H14G14605   0.151   4.133   5.178 -0.5339  0.2633 -2.4803
  134OSM   C15F14606   0.157   3.961   5.052 -0.0797  0.4796 -0.6161
  134OSM   H15F14607   0.189   3.855   5.050 -1.6473 -0.0486  0.2411
  134OSM   H15G14608   0.219   4.010   4.974  1.4189 -1.2039 -0.5259
  134OSM   C16F14609   0.009   3.977   5.011 -0.2635 -0.3012 -0.7372
  134OSM   H16F14610  -0.013   4.086   5.016 -1.2070 -0.4529 -1.3566
  134OSM   H16G14611  -0.056   3.933   5.089  1.2291 -2.3803 -0.5856
  134OSM   C17F14612  -0.035   3.941   4.871 -0.7567  0.1142  0.6943
  134OSM   H17F14613  -0.031   3.834   4.841  0.0145  0.5398 -0.7886
  134OSM   H17G14614   0.027   3.994   4.796 -1.1104 -0.7099 -0.2145
  134OSM   C18F14615  -0.176   3.991   4.834  0.5526 -0.1576  0.4021
  134OSM   H18F14616  -0.218   3.937   4.747 -0.5993 -0.3039  1.0265
  134OSM   H18G14617  -0.181   4.102   4.827 -0.9057 -0.2579 -0.5945
  134OSM   H18H14618  -0.235   3.956   4.922  0.7302 -1.2884  0.0836
  135OSM      N14619   0.605   0.914   6.921  0.5991 -0.3488 -0.6816
  135OSM    C1514620   0.603   0.766   6.962  0.0035 -0.0344 -0.0913
  135OSM   H15A14621   0.510   0.725   6.925  0.6334 -1.0808 -0.5623
  135OSM   H15B14622   0.632   0.744   7.063  0.1585  3.6095  0.8158
  135OSM   H15C14623   0.679   0.715   6.904  0.4733  0.0395  0.4537
  135OSM    C1414624   0.500   0.978   7.006  0.1041 -0.3507 -0.2344
  135OSM   H14A14625   0.488   1.085   6.999 -0.0712 -0.1389  2.3746
  135OSM   H14B14626   0.523   0.973   7.111  0.2655  1.8448 -0.1159
  135OSM   H14C14627   0.398   0.947   6.988  0.2238 -0.7565 -0.2179
  135OSM    C1314628   0.745   0.971   6.949  0.3664 -0.1270  0.3520
  135OSM   H13A14629   0.759   0.983   7.055  1.3884  1.4561  0.0801
  135OSM   H13B14630   0.767   1.063   6.897  0.2419  0.4275  1.2551
  135OSM   H13C14631   0.829   0.911   6.919  0.6456  0.6886 -0.5791
  135OSM    C1214632   0.577   0.934   6.776 -0.2518 -0.5299 -0.6658
  135OSM   H12A14633   0.672   0.939   6.726  0.1071  2.7271  0.1762
  135OSM   H12B14634   0.536   1.033   6.768 -1.9608 -1.1943 -0.6528
  135OSM    C1114635   0.464   0.845   6.708  0.0605  0.3807 -0.1285
  135OSM   H11A14636   0.492   0.738   6.706 -2.8107 -0.4609 -2.1345
  135OSM   H11B14637   0.473   0.867   6.599  1.3694 -1.2868 -0.3898
  135OSM      P14638   0.223   0.976   6.748 -0.3624 -0.0103 -0.1385
  135OSM    O1314639   0.105   0.949   6.666  0.2468 -0.1299 -0.1143
  135OSM    O1414640   0.197   1.005   6.889  1.0342  0.0088 -0.1357
  135OSM    O1114641   0.301   1.099   6.686 -0.1560 -1.1813  0.7340
  135OSM    O1214642   0.328   0.854   6.740  0.1445  0.0645 -0.1087
  135OSM    C1S14643   0.326   1.099   6.537  0.1968 -0.0897 -0.0542
  135OSM    H1S14644   0.324   0.997   6.494 -2.4864 -0.6471  1.2097
  135OSM    H1T14645   0.422   1.150   6.511  0.0400 -0.4127 -1.3226
  135OSM     NF14646   0.243   1.173   6.318  0.2802 -0.2646  0.6389
  135OSM    HNF14647   0.273   1.254   6.270 -0.0521  1.2021  2.7586
  135OSM    C2S14648   0.215   1.187   6.462 -0.8596  0.6801  0.9080
  135OSM    H2S14649   0.113   1.154   6.488 -0.0151 -1.5076  1.6168
  135OSM    C3S14650   0.229   1.330   6.512 -1.1709 -0.5334 -0.9776
  135OSM    H3S14651   0.338   1.351   6.513 -1.0305 -1.1040 -2.0163
  135OSM     O314652   0.177   1.358   6.643  0.1404  0.2816 -0.3147
  135OSM    HO314653   0.167   1.275   6.691  1.9592  0.7598  0.9918
  135OSM    C4S14654   0.155   1.425   6.421  0.9090  0.0997 -0.1889
  135OSM    H4S14655   0.046   1.411   6.422  1.0411 -1.1058 -0.5113
  135OSM    C5S14656   0.206   1.521   6.335  1.1328 -0.4247 -0.0779
  135OSM    H5S14657   0.313   1.544   6.323  0.6022  1.4755 -1.7274
  135OSM    C6S14658   0.128   1.598   6.235  0.2698 -0.4561  0.3591
  135OSM    H6S14659   0.187   1.685   6.197 -0.3850  0.0685  0.5320
  135OSM    H6T14660   0.032   1.644   6.267 -0.2016  1.1495 -2.8721
  135OSM    C7S14661   0.112   1.514   6.104 -0.2061  0.2170 -0.4722
  135OSM    H7S14662   0.051   1.423   6.119 -0.7090  0.8136  1.2944
  135OSM    H7T14663   0.216   1.500   6.065 -0.1006 -1.6658  0.3877
  135OSM    C8S14664   0.050   1.598   5.994  0.2608  0.0060 -0.3325
  135OSM    H8S14665   0.119   1.669   5.943  0.1968 -0.1014 -0.5693
  135OSM    H8T14666  -0.032   1.658   6.040 -0.3883 -2.1625  1.5070
  135OSM    C9S14667  -0.001   1.506   5.881 -0.1978 -0.5397  0.2260
  135OSM    H9S14668  -0.109   1.533   5.870  0.6926  2.6589 -2.3155
  135OSM    H9T14669   0.014   1.404   5.923  0.9610 -0.6403 -0.3843
  135OSM   C10S14670   0.072   1.512   5.751 -0.6436 -0.0196 -0.3459
  135OSM   H10S14671   0.168   1.465   5.782 -0.8471 -1.1611 -1.3566
  135OSM   H10T14672   0.100   1.611   5.710 -0.0222  1.8411  3.9716
  135OSM   C11S14673   0.019   1.413   5.646  0.1319  0.4798  0.1404
  135OSM   H11S14674  -0.084   1.443   5.617  0.4157  0.9308 -0.4197
  135OSM   H11T14675  -0.002   1.320   5.703 -2.1649  0.8923  0.0652
  135OSM   C12S14676   0.114   1.391   5.523  0.1702  0.2690 -0.7753
  135OSM   H12S14677   0.084   1.294   5.478  0.8473 -1.4469  2.1939
  135OSM   H12T14678   0.219   1.380   5.557  0.9248 -1.7037 -3.4052
  135OSM   C13S14679   0.117   1.506   5.423  0.2201  0.1517  0.1448
  135OSM   H13S14680   0.135   1.600   5.479 -0.6604 -0.6445  1.8644
  135OSM   H13T14681   0.017   1.506   5.375  0.0694  3.7684  0.2079
  135OSM   C14S14682   0.216   1.492   5.308 -0.2670 -0.4785 -0.0774
  135OSM   H14S14683   0.197   1.397   5.255 -2.7050  0.5462 -1.2203
  135OSM   H14T14684   0.314   1.490   5.360 -2.0313  0.0017  3.6051
  135OSM   C15S14685   0.212   1.614   5.217  0.5172 -0.0482  0.5661
  135OSM   H15S14686   0.220   1.702   5.284 -0.9858  1.8826 -1.6300
  135OSM   H15T14687   0.107   1.621   5.184  0.9803  0.7825 -0.8382
  135OSM   C16S14688   0.305   1.616   5.092  0.3721 -0.6481 -0.1513
  135OSM   H16S14689   0.409   1.622   5.130  0.0303  1.8227  0.5526
  135OSM   H16T14690   0.273   1.707   5.036  2.0090 -0.1556 -0.3412
  135OSM   C17S14691   0.302   1.509   4.983  0.6677 -0.4760 -0.3700
  135OSM   H17S14692   0.200   1.480   4.948 -0.5236  1.1516  1.5650
  135OSM   H17T14693   0.356   1.420   5.021  1.4141  1.1073  2.5687
  135OSM   C18S14694   0.386   1.554   4.863  0.3739  0.3188 -0.1300
  135OSM   H18S14695   0.342   1.646   4.817  0.0302  0.3790  0.3139
  135OSM   H18T14696   0.384   1.478   4.782 -0.9688  0.4924 -0.2924
  135OSM   H18U14697   0.490   1.581   4.890 -0.3581  1.1440  2.0557
  135OSM    C1F14698   0.214   1.064   6.253 -1.0422  0.1530 -0.4909
  135OSM     OF14699   0.170   0.965   6.314  0.2746  0.1974 -0.2611
  135OSM    C2F14700   0.217   1.073   6.103 -0.2472 -0.2593 -0.1186
  135OSM    H2F14701   0.285   0.992   6.068  1.0777  0.1619  1.3678
  135OSM    H2G14702   0.270   1.167   6.078 -1.3521  0.4733  0.2224
  135OSM    C3F14703   0.072   1.056   6.045 -0.2332  0.1561 -0.2273
  135OSM    H3F14704   0.007   1.135   6.089 -0.7316  0.1152 -0.8717
  135OSM    H3G14705   0.019   0.960   6.059 -0.6069  0.1921 -1.2813
  135OSM    C4F14706   0.069   1.079   5.890 -0.3956  0.1859  0.2952
  135OSM    H4F14707  -0.036   1.076   5.854 -0.8256  0.7640  1.4955
  135OSM    H4G14708   0.099   1.184   5.869 -1.4136  0.3027 -0.7169
  135OSM    C5F14709   0.164   0.998   5.807 -0.2170 -0.4610 -0.0571
  135OSM    H5F14710   0.125   0.895   5.824 -0.4478 -0.4394 -0.4512
  135OSM    H5G14711   0.270   1.000   5.840 -0.1453  0.6374 -0.3246
  135OSM    C6F14712   0.161   1.037   5.652 -0.0849 -0.6503 -0.2861
  135OSM    H6F14713   0.217   1.131   5.635  0.2039 -0.4449  1.5402
  135OSM    H6G14714   0.054   1.058   5.630  0.0279 -0.9403 -1.1328
  135OSM    C7F14715   0.201   0.924   5.553  0.1809 -0.1349  1.1295
  135OSM    H7F14716   0.120   0.847   5.560  0.7674 -0.6720  2.6274
  135OSM    H7G14717   0.302   0.895   5.590  1.5649  1.4436 -1.2032
  135OSM    C8F14718   0.218   0.972   5.407 -0.4286 -0.4237  0.0339
  135OSM    H8F14719   0.262   0.898   5.337  0.3824 -1.0249  1.1348
  135OSM    H8G14720   0.301   1.046   5.417  0.2299 -1.3333  1.6709
  135OSM    C9F14721   0.097   1.023   5.339  0.1771 -0.0922  0.5109
  135OSM    H9F14722   0.008   1.054   5.396 -1.4835 -4.5681  0.6804
  135OSM   C10F14723   0.079   1.034   5.205 -0.8142 -0.6606  0.4619
  135OSM   H10F14724  -0.017   1.072   5.167 -0.4300 -0.3068 -0.1666
  135OSM   C11F14725   0.180   0.989   5.100 -0.4016 -0.8199  0.6979
  135OSM   H11F14726   0.122   0.924   5.031  0.1413  0.0381 -0.5952
  135OSM   H11G14727   0.263   0.929   5.142  1.0081 -0.3655 -1.3401
  135OSM   C12F14728   0.236   1.105   5.010  0.4488 -0.2039 -0.2129
  135OSM   H12F14729   0.301   1.173   5.069  0.4840  1.1707 -1.7629
  135OSM   H12G14730   0.159   1.176   4.973  0.5862 -0.3972 -0.8830
  135OSM   C13F14731   0.318   1.051   4.890  0.3772 -0.5510 -0.1920
  135OSM   H13F14732   0.272   0.955   4.857  1.2116 -0.4581 -1.7247
  135OSM   H13G14733   0.420   1.027   4.926  0.2105 -1.9530 -0.6068
  135OSM   C14F14734   0.332   1.155   4.777 -0.5313  0.0949  0.4956
  135OSM   H14F14735   0.375   1.252   4.811  0.9608 -0.1853 -0.4825
  135OSM   H14G14736   0.234   1.177   4.729 -0.2288  1.8733  0.6353
  135OSM   C15F14737   0.421   1.108   4.656  0.1528 -0.2080 -0.3052
  135OSM   H15F14738   0.367   1.026   4.605 -0.1166  0.9505 -1.9859
  135OSM   H15G14739   0.519   1.079   4.698 -0.6067 -0.4994  1.3804
  135OSM   C16F14740   0.443   1.226   4.563  0.4402 -0.3581  0.6209
  135OSM   H16F14741   0.509   1.296   4.618 -0.7677  1.1263  0.2330
  135OSM   H16G14742   0.346   1.274   4.541  0.2818 -0.4765  1.0351
  135OSM   C17F14743   0.508   1.189   4.431 -0.0753 -0.2923  1.1722
  135OSM   H17F14744   0.604   1.136   4.453  0.5115 -0.1233 -0.7821
  135OSM   H17G14745   0.524   1.278   4.367 -4.7664  1.9829  2.7437
  135OSM   C18F14746   0.423   1.086   4.339  0.2112  0.7694 -0.0321
  135OSM   H18F14747   0.328   1.132   4.305  0.6885  1.9432  0.1827
  135OSM   H18G14748   0.406   0.988   4.390 -0.2983  0.4672 -0.7565
  135OSM   H18H14749   0.477   1.070   4.243 -0.6859  2.3207 -0.8251
  136OSM      N14750   2.007   3.748   6.703  0.1616  0.2284 -0.1841
  136OSM    C1514751   2.049   3.654   6.809 -0.7955  0.5070 -0.7824
  136OSM   H15A14752   1.972   3.624   6.879  0.9080 -0.3338  0.8282
  136OSM   H15B14753   2.125   3.706   6.867 -0.7280  0.4574 -0.8264
  136OSM   H15C14754   2.082   3.561   6.765 -1.0967 -0.2721  0.5579
  136OSM    C1414755   1.875   3.709   6.646 -0.2326  0.3747  0.0933
  136OSM   H14A14756   1.845   3.765   6.559 -0.3558  0.5266  0.2317
  136OSM   H14B14757   1.791   3.706   6.715 -2.5163  1.8384 -2.4386
  136OSM   H14C14758   1.893   3.607   6.616  1.3075  0.7541 -0.3508
  136OSM    C1314759   1.988   3.891   6.756  0.2348 -0.3250 -0.2360
  136OSM   H13A14760   1.921   3.887   6.840  0.9282 -0.5573  0.3186
  136OSM   H13B14761   1.947   3.949   6.675 -1.3325 -0.7855  0.1889
  136OSM   H13C14762   2.087   3.926   6.779  0.5999 -0.7602 -1.0699
  136OSM    C1214763   2.117   3.756   6.593  0.8059 -0.5998  0.0162
  136OSM   H12A14764   2.210   3.789   6.637 -0.7129 -1.1963  4.1914
  136OSM   H12B14765   2.071   3.829   6.528  0.5347 -1.7306 -1.1126
  136OSM    C1114766   2.148   3.631   6.503  0.0876  0.3729 -0.5069
  136OSM   H11A14767   2.227   3.665   6.433 -0.4594  1.7109 -0.5016
  136OSM   H11B14768   2.059   3.605   6.443 -0.1744  2.0628 -0.9074
  136OSM      P14769   2.325   3.453   6.597  0.4170  0.0587 -0.3175
  136OSM    O1314770   2.417   3.559   6.653  0.3658  0.1814 -0.4074
  136OSM    O1414771   2.316   3.328   6.671 -0.7332  0.2042 -0.1141
  136OSM    O1114772   2.373   3.420   6.449  0.1529 -0.2071  0.0652
  136OSM    O1214773   2.182   3.519   6.585  0.3801  0.9866 -0.3802
  136OSM    C1S14774   2.293   3.344   6.354  0.2067  0.0913 -0.9145
  136OSM    H1S14775   2.201   3.404   6.339 -0.4251 -0.0107  2.0292
  136OSM    H1T14776   2.253   3.247   6.392 -0.4535  0.9231  0.5528
  136OSM     NF14777   2.272   3.284   6.111 -0.1858  0.0188  0.0446
  136OSM    HNF14778   2.280   3.188   6.086 -0.8970  0.1626 -0.7843
  136OSM    C2S14779   2.358   3.331   6.220 -0.2259 -0.1230  0.5246
  136OSM    H2S14780   2.380   3.434   6.185 -0.0066  0.3059  1.8947
  136OSM    C3S14781   2.497   3.260   6.233  0.2247  0.4665 -0.4236
  136OSM    H3S14782   2.481   3.156   6.268 -0.3557  0.5591 -0.4085
  136OSM     O314783   2.580   3.319   6.331  0.8289 -0.2869  0.0738
  136OSM    HO314784   2.520   3.371   6.384 -0.4862  1.8360 -3.1849
  136OSM    C4S14785   2.568   3.251   6.099  0.1821  0.1747 -0.4550
  136OSM    H4S14786   2.570   3.151   6.053  0.2031 -0.4995  0.9688
  136OSM    C5S14787   2.648   3.346   6.047  0.1029 -1.1458  0.5365
  136OSM    H5S14788   2.661   3.443   6.096 -0.8195 -0.6304 -0.1906
  136OSM    C6S14789   2.718   3.311   5.915 -0.2058 -0.0463 -0.3214
  136OSM    H6S14790   2.749   3.206   5.900  0.0214  0.0873 -0.8226
  136OSM    H6T14791   2.809   3.374   5.923 -1.3398  1.4613  2.0110
  136OSM    C7S14792   2.641   3.353   5.786  0.0760  0.2433 -0.7046
  136OSM    H7S14793   2.573   3.440   5.803 -0.4791 -0.4077  0.5656
  136OSM    H7T14794   2.575   3.271   5.754 -1.7123  0.8029  1.3455
  136OSM    C8S14795   2.747   3.371   5.667  0.0850 -0.6725 -0.3126
  136OSM    H8S14796   2.823   3.296   5.699  1.2140 -0.4443 -2.2748
  136OSM    H8T14797   2.795   3.472   5.669 -2.5462  0.7002 -1.3109
  136OSM    C9S14798   2.704   3.340   5.525  0.6220  0.1366  0.2762
  136OSM    H9S14799   2.612   3.399   5.503  1.3451  1.5910  0.9949
  136OSM    H9T14800   2.668   3.236   5.517 -2.3900  1.1103 -0.2920
  136OSM   C10S14801   2.807   3.364   5.416  0.1206  0.1924 -0.0658
  136OSM   H10S14802   2.894   3.297   5.431  0.2333  0.4352  0.3866
  136OSM   H10T14803   2.845   3.469   5.418  1.4347 -0.2792  0.7485
  136OSM   C11S14804   2.732   3.331   5.292 -0.2675  0.3861 -0.1587
  136OSM   H11S14805   2.638   3.390   5.288 -0.3571  0.4963  2.2130
  136OSM   H11T14806   2.690   3.229   5.303  0.1399  0.2895  0.5367
  136OSM   C12S14807   2.815   3.358   5.165  0.3384 -0.2371  0.2199
  136OSM   H12S14808   2.920   3.322   5.178 -0.1548 -2.2492 -0.8006
  136OSM   H12T14809   2.820   3.468   5.153 -0.6407 -0.1661  0.3560
  136OSM   C13S14810   2.767   3.295   5.036  0.2134 -0.5847  0.2630
  136OSM   H13S14811   2.664   3.330   5.016  0.5078 -0.6357 -1.4859
  136OSM   H13T14812   2.762   3.184   5.035 -0.0856 -0.5752 -0.9394
  136OSM   C14S14813   2.856   3.335   4.916 -0.0379 -0.0917 -0.2622
  136OSM   H14S14814   2.954   3.283   4.920 -0.3016 -0.5514  0.1875
  136OSM   H14T14815   2.872   3.444   4.930 -0.4274 -0.1259  0.4660
  136OSM   C15S14816   2.788   3.328   4.780  0.4665  0.2757  0.5793
  136OSM   H15S14817   2.685   3.369   4.788 -0.6856 -2.3445  0.2831
  136OSM   H15T14818   2.775   3.218   4.783  2.6905 -0.1958 -2.4013
  136OSM   C16S14819   2.874   3.383   4.668  0.6419  0.4891  0.0807
  136OSM   H16S14820   2.973   3.333   4.677 -0.0751 -1.0786 -0.3276
  136OSM   H16T14821   2.882   3.493   4.683 -0.2626  0.7097 -0.9200
  136OSM   C17S14822   2.802   3.371   4.527 -0.1422  0.1867  0.1424
  136OSM   H17S14823   2.881   3.410   4.459  0.3667 -1.0540 -0.0145
  136OSM   H17T14824   2.714   3.438   4.522 -1.2998 -1.3419 -2.1902
  136OSM   C18S14825   2.765   3.227   4.489  0.4061 -0.4825  0.3964
  136OSM   H18S14826   2.685   3.186   4.554  0.2979 -0.3031  0.3765
  136OSM   H18T14827   2.849   3.156   4.496  0.8752  0.0701  0.4546
  136OSM   H18U14828   2.728   3.231   4.384  0.2657 -1.3035  0.4132
  136OSM    C1F14829   2.179   3.367   6.052 -0.1464  0.8537  0.7347
  136OSM     OF14830   2.132   3.469   6.108 -0.2875  0.2422 -1.0856
  136OSM    C2F14831   2.128   3.316   5.918 -0.3441  0.5514 -0.6556
  136OSM    H2F14832   2.061   3.396   5.878 -0.3196 -0.0180 -1.8626
  136OSM    H2G14833   2.061   3.232   5.946  0.5592 -0.2291 -0.7979
  136OSM    C3F14834   2.237   3.283   5.816  0.4282  0.2625 -0.0420
  136OSM    H3F14835   2.304   3.205   5.860  0.5559  2.0328  3.1334
  136OSM    H3G14836   2.303   3.371   5.798  1.1637 -0.7392 -2.9926
  136OSM    C4F14837   2.186   3.244   5.674  0.1340 -0.5206  0.0749
  136OSM    H4F14838   2.119   3.319   5.627 -0.1767 -1.4300 -0.9928
  136OSM    H4G14839   2.135   3.145   5.675 -0.7395 -0.1121 -1.1386
  136OSM    C5F14840   2.308   3.239   5.577  0.0729 -0.1060  0.4708
  136OSM    H5F14841   2.373   3.152   5.603  1.2083  0.8237  0.8010
  136OSM    H5G14842   2.365   3.334   5.580  0.2274 -0.1928  2.8614
  136OSM    C6F14843   2.256   3.206   5.438  0.7346 -0.7896 -0.0595
  136OSM    H6F14844   2.157   3.256   5.428  1.1556 -0.2365 -1.7926
  136OSM    H6G14845   2.253   3.096   5.426  0.3138 -0.9965  1.6515
  136OSM    C7F14846   2.336   3.273   5.329  0.0572  0.0458 -0.5464
  136OSM    H7F14847   2.443   3.245   5.338  0.0618  0.5600  1.4652
  136OSM    H7G14848   2.328   3.382   5.347 -1.6745  0.0412 -1.1117
  136OSM    C8F14849   2.281   3.242   5.191  0.6842 -0.6653 -0.2834
  136OSM    H8F14850   2.189   3.303   5.179  0.4968 -0.8981 -0.0570
  136OSM    H8G14851   2.253   3.135   5.201 -1.6902 -0.2538 -1.7206
  136OSM    C9F14852   2.374   3.260   5.082 -0.0261  0.5496  0.8559
  136OSM    H9F14853   2.461   3.325   5.102  0.1114  0.2563  1.2251
  136OSM   C10F14854   2.361   3.210   4.958  0.2520  0.7788  0.6545
  136OSM   H10F14855   2.434   3.238   4.880  1.2764  2.5003  2.1412
  136OSM   C11F14856   2.254   3.123   4.909 -0.1149 -0.0218  0.8333
  136OSM   H11F14857   2.162   3.186   4.912 -0.3397 -0.3238  0.4723
  136OSM   H11G14858   2.236   3.040   4.980 -2.4097  0.5596  1.0203
  136OSM   C12F14859   2.284   3.068   4.766 -0.1192 -0.8059 -0.1674
  136OSM   H12F14860   2.198   3.005   4.736  0.1814 -0.4713 -1.8448
  136OSM   H12G14861   2.381   3.015   4.778 -0.1645 -0.3650  2.6727
  136OSM   C13F14862   2.295   3.185   4.660  0.0602 -0.0346 -0.4145
  136OSM   H13F14863   2.380   3.257   4.668  0.0454  0.0613 -1.0650
  136OSM   H13G14864   2.206   3.251   4.655  0.9137  1.1123 -0.9469
  136OSM   C14F14865   2.318   3.115   4.527  0.2461  0.4310 -0.3583
  136OSM   H14F14866   2.220   3.089   4.481 -0.0553  0.4331  0.2783
  136OSM   H14G14867   2.381   3.025   4.547 -1.2647 -0.2742  1.4327
  136OSM   C15F14868   2.389   3.216   4.424  0.8560  0.0558 -0.3440
  136OSM   H15F14869   2.489   3.236   4.466  0.5616 -1.9038  1.4625
  136OSM   H15G14870   2.319   3.302   4.430 -2.0219 -2.1076 -0.6528
  136OSM   C16F14871   2.390   3.163   4.288  0.0779 -0.1875  0.2276
  136OSM   H16F14872   2.299   3.108   4.256 -0.5046 -0.1468  1.7492
  136OSM   H16G14873   2.468   3.085   4.275  0.0884 -0.0225 -0.8124
  136OSM   C17F14874   2.418   3.277   4.191 -0.4667 -0.9177  0.1007
  136OSM   H17F14875   2.490   3.351   4.231  0.4221 -0.8730 -1.4757
  136OSM   H17G14876   2.331   3.345   4.186 -1.3047 -1.8851  0.9673
  136OSM   C18F14877   2.451   3.231   4.052 -0.6513  0.0065  0.2284
  136OSM   H18F14878   2.369   3.171   4.007 -0.3286  1.1259 -2.0075
  136OSM   H18G14879   2.535   3.159   4.053 -1.4456 -0.9501  1.3844
  136OSM   H18H14880   2.467   3.324   3.994 -0.1509 -0.6472 -0.7079
  137OSM      N14881   6.409   0.109   7.045  0.0962 -0.5975 -0.5696
  137OSM    C1514882   6.367  -0.024   7.100 -0.4945 -0.1839  0.9743
  137OSM   H15A14883   6.456  -0.073   7.138  1.2731  3.1395  1.4348
  137OSM   H15B14884   6.329  -0.087   7.021  1.4413  1.1534 -1.1448
  137OSM   H15C14885   6.286  -0.026   7.171 -1.3250  1.4377  0.1236
  137OSM    C1414886   6.446   0.193   7.162 -0.2634 -0.1960  0.2633
  137OSM   H14A14887   6.358   0.204   7.224  0.0544  2.3727  0.3792
  137OSM   H14B14888   6.468   0.297   7.142 -4.6718  0.9997  0.5005
  137OSM   H14C14889   6.528   0.159   7.223  0.6881 -0.2084 -0.9922
  137OSM    C1314890   6.526   0.094   6.961 -0.1908 -0.4381 -0.1330
  137OSM   H13A14891   6.616   0.084   7.021 -0.3371  0.5158  0.2613
  137OSM   H13B14892   6.536   0.185   6.904  0.5784  0.1003  0.8237
  137OSM   H13C14893   6.526   0.006   6.898  1.4817  1.1324 -2.4719
  137OSM    C1214894   6.293   0.171   6.965 -0.0868  0.1380  0.5286
  137OSM   H12A14895   6.278   0.100   6.884 -1.1033 -1.8484  2.3328
  137OSM   H12B14896   6.313   0.271   6.930 -1.0778  0.0293 -0.4186
  137OSM    C1114897   6.164   0.172   7.052  1.0112  1.0311  0.8822
  137OSM   H11A14898   6.143   0.066   7.079  1.3068  1.1178  1.4591
  137OSM   H11B14899   6.076   0.199   6.990  0.4521  0.4085  1.3849
  137OSM      P14900   6.069   0.379   7.213 -0.0472 -0.6093  0.4930
  137OSM    O1314901   5.973   0.319   7.313 -0.0866 -0.2175  0.0496
  137OSM    O1414902   6.167   0.491   7.252  0.3489  0.0294 -0.7273
  137OSM    O1114903   5.993   0.431   7.085 -0.3943 -0.3551 -0.8102
  137OSM    O1214904   6.163   0.260   7.162 -0.7343  0.1298  0.0015
  137OSM    C1S14905   6.057   0.514   6.991  0.5732 -0.1884  0.4483
  137OSM    H1S14906   6.168   0.514   6.996  0.5946 -0.8937  0.1725
  137OSM    H1T14907   6.012   0.615   6.993  1.5503  0.3085 -0.8450
  137OSM     NF14908   6.092   0.545   6.746  0.2662  0.3425 -0.2205
  137OSM    HNF14909   6.037   0.588   6.675 -0.9842  1.8044  1.5557
  137OSM    C2S14910   6.017   0.460   6.845  0.3191  0.3636  0.3073
  137OSM    H2S14911   6.047   0.355   6.825 -0.3970  0.7814 -3.9466
  137OSM    C3S14912   5.863   0.453   6.831  0.6540 -0.1177  0.9691
  137OSM    H3S14913   5.836   0.559   6.815 -2.0274 -0.7665  0.6925
  137OSM     O314914   5.780   0.426   6.944 -0.2926  0.4824  0.4100
  137OSM    HO314915   5.833   0.442   7.023  0.3848  1.0584 -0.1402
  137OSM    C4S14916   5.825   0.374   6.704 -0.2085 -0.1144 -0.0784
  137OSM    H4S14917   5.849   0.421   6.608  1.2473 -1.2168 -0.2754
  137OSM    C5S14918   5.775   0.249   6.703  0.2817 -0.5229  0.7591
  137OSM    H5S14919   5.738   0.211   6.799 -0.6006  1.9508  1.4646
  137OSM    C6S14920   5.747   0.161   6.586 -0.1789 -0.3737  0.1501
  137OSM    H6S14921   5.639   0.134   6.587 -0.1598 -0.4478  0.2769
  137OSM    H6T14922   5.808   0.072   6.610  0.4572  0.0829  0.2530
  137OSM    C7S14923   5.777   0.211   6.445  0.3403  0.2593 -0.1366
  137OSM    H7S14924   5.888   0.219   6.438  0.7175 -3.0785  0.4016
  137OSM    H7T14925   5.727   0.308   6.425 -0.8719 -0.0952  1.0655
  137OSM    C8S14926   5.735   0.110   6.328  0.6384  0.0959 -0.7231
  137OSM    H8S14927   5.625   0.094   6.328  0.5871  0.3939  0.1883
  137OSM    H8T14928   5.789   0.014   6.344 -1.0279 -0.6021  1.1354
  137OSM    C9S14929   5.772   0.165   6.192 -0.0342 -0.1725  0.6790
  137OSM    H9S14930   5.881   0.182   6.200  0.2750 -0.3231 -2.0725
  137OSM    H9T14931   5.740   0.271   6.192 -1.8530 -0.6560 -0.8796
  137OSM   C10S14932   5.731   0.068   6.073 -0.8354  0.5942 -0.4176
  137OSM   H10S14933   5.621   0.085   6.065 -0.2836  4.5998 -2.2986
  137OSM   H10T14934   5.781  -0.025   6.107 -0.0040  1.1415 -0.1125
  137OSM   C11S14935   5.792   0.128   5.950  0.5230  0.5660  0.2650
  137OSM   H11S14936   5.903   0.124   5.947  0.4992 -0.5305  0.7524
  137OSM   H11T14937   5.754   0.233   5.943  0.9705  0.8183  1.4062
  137OSM   C12S14938   5.737   0.063   5.821  0.2027 -0.2604 -0.5553
  137OSM   H12S14939   5.627   0.062   5.814  0.2699  0.9345 -2.8079
  137OSM   H12T14940   5.758  -0.046   5.810 -0.3806 -0.2112 -2.4996
  137OSM   C13S14941   5.795   0.125   5.697 -0.1127 -0.2219  0.2002
  137OSM   H13S14942   5.904   0.142   5.705 -0.4324  1.7940  0.9714
  137OSM   H13T14943   5.761   0.228   5.676  1.7627  0.1077 -1.4829
  137OSM   C14S14944   5.761   0.030   5.584  0.5174 -0.3906 -0.3291
  137OSM   H14S14945   5.654   0.039   5.557  1.3461 -1.7099 -4.9337
  137OSM   H14T14946   5.796  -0.074   5.603  0.8656 -0.5821 -1.8723
  137OSM   C15S14947   5.842   0.070   5.461  0.3444 -0.3328 -0.4730
  137OSM   H15S14948   5.950   0.076   5.488 -0.0249  0.3067  0.9479
  137OSM   H15T14949   5.827   0.178   5.437  1.4739  0.2459  1.1744
  137OSM   C16S14950   5.825  -0.020   5.339  0.6584  0.6390  0.1549
  137OSM   H16S14951   5.720  -0.019   5.302 -0.2707  1.0562  2.6596
  137OSM   H16T14952   5.847  -0.127   5.359 -0.4560  0.3630 -0.0274
  137OSM   C17S14953   5.900   0.034   5.213 -0.2929 -0.0260  0.9834
  137OSM   H17S14954   5.835   0.114   5.170 -0.8804 -1.0977 -0.1668
  137OSM   H17T14955   5.903  -0.048   5.139  1.4680  1.1535 -0.3436
  137OSM   C18S14956   6.037   0.094   5.241 -0.1922  0.4872  0.2493
  137OSM   H18S14957   6.064   0.172   5.167 -0.7229 -0.5246 -1.0522
  137OSM   H18T14958   6.112   0.013   5.235 -2.8638 -2.2200  0.5597
  137OSM   H18U14959   6.040   0.152   5.335  0.0237  0.5446  0.2059
  137OSM    C1F14960   6.225   0.551   6.734 -0.4113  0.1194 -0.0490
  137OSM     OF14961   6.293   0.465   6.793  0.8179 -0.0622  0.9481
  137OSM    C2F14962   6.281   0.654   6.637 -0.4033 -0.9418  0.1699
  137OSM    H2F14963   6.355   0.721   6.685 -2.3818  1.2976  0.2488
  137OSM    H2G14964   6.195   0.712   6.597  0.2215  0.0626  0.2388
  137OSM    C3F14965   6.351   0.583   6.523  0.1469  0.3532 -0.2625
  137OSM    H3F14966   6.268   0.526   6.475 -1.7783 -0.1424  3.2436
  137OSM    H3G14967   6.436   0.520   6.556  0.2063  0.8020  0.4562
  137OSM    C4F14968   6.392   0.686   6.417 -0.0262 -0.2562  0.1071
  137OSM    H4F14969   6.459   0.761   6.464 -0.2398  0.1698 -0.2629
  137OSM    H4G14970   6.295   0.725   6.378 -1.1112 -1.9781  0.9380
  137OSM    C5F14971   6.460   0.610   6.303  0.0098 -0.2642  0.0430
  137OSM    H5F14972   6.403   0.517   6.285  0.8224 -1.3700  2.7400
  137OSM    H5G14973   6.565   0.585   6.328  0.9436  0.4012 -2.8344
  137OSM    C6F14974   6.471   0.685   6.168 -0.2576 -0.5558  0.0700
  137OSM    H6F14975   6.537   0.771   6.194 -0.1837 -0.5853 -0.0158
  137OSM    H6G14976   6.372   0.724   6.137  0.4356 -0.2656 -1.9774
  137OSM    C7F14977   6.526   0.593   6.064 -0.4814 -0.1420  0.7801
  137OSM    H7F14978   6.449   0.523   6.025 -0.8590  1.3037 -1.2812
  137OSM    H7G14979   6.608   0.534   6.109 -0.5241 -1.9677 -1.3891
  137OSM    C8F14980   6.584   0.664   5.936 -0.2730  0.2155  0.4416
  137OSM    H8F14981   6.672   0.730   5.951  0.1364 -0.2575  0.1419
  137OSM    H8G14982   6.508   0.729   5.886  1.6886  2.0099 -0.3869
  137OSM    C9F14983   6.630   0.550   5.842 -0.2196  0.1863  0.2916
  137OSM    H9F14984   6.695   0.472   5.884 -1.1081 -0.8505 -0.1886
  137OSM   C10F14985   6.587   0.527   5.716  0.1641 -0.1499 -0.3452
  137OSM   H10F14986   6.620   0.443   5.653 -1.1531  0.9992 -2.7302
  137OSM   C11F14987   6.471   0.609   5.641  0.1339  0.0314  0.0793
  137OSM   H11F14988   6.457   0.707   5.691  1.0741 -0.1321  0.7027
  137OSM   H11G14989   6.379   0.547   5.646 -0.1095  0.2335 -1.4956
  137OSM   C12F14990   6.499   0.643   5.491 -0.6988 -0.9235 -0.4036
  137OSM   H12F14991   6.585   0.714   5.490 -3.0884  2.1634 -1.4115
  137OSM   H12G14992   6.418   0.713   5.464  2.1377  2.8317  0.0154
  137OSM   C13F14993   6.515   0.521   5.411 -0.1161  0.4666 -0.0401
  137OSM   H13F14994   6.454   0.442   5.459 -2.9229  1.5443 -1.5918
  137OSM   H13G14995   6.623   0.496   5.406 -0.1879  0.1548 -0.0676
  137OSM   C14F14996   6.480   0.540   5.260 -0.6671 -0.8582 -0.0965
  137OSM   H14F14997   6.382   0.592   5.251  0.2598  1.1875  0.8523
  137OSM   H14G14998   6.477   0.439   5.215 -0.2648 -2.6568  3.4853
  137OSM   C15F14999   6.580   0.628   5.182 -0.3116  0.0960  1.1779
  137OSM   H15F15000   6.683   0.588   5.194 -0.8252 -1.1076  1.8319
  137OSM   H15G15001   6.587   0.731   5.223  3.6385  0.5868 -0.3466
  137OSM   C16F15002   6.544   0.646   5.032 -0.5719  0.1632  0.4517
  137OSM   H16F15003   6.434   0.660   5.024 -0.6559  0.1588  1.3980
  137OSM   H16G15004   6.572   0.560   4.967  1.6541  1.2441 -0.1307
  137OSM   C17F15005   6.607   0.768   4.962  0.5759 -0.7059 -0.0359
  137OSM   H17F15006   6.718   0.761   4.968  0.4298 -1.8196  2.4700
  137OSM   H17G15007   6.569   0.859   5.012  0.8245 -1.5433  1.7373
  137OSM   C18F15008   6.577   0.770   4.813  0.3253  0.5165  0.3194
  137OSM   H18F15009   6.612   0.865   4.769 -2.1327  0.9237 -0.9175
  137OSM   H18G15010   6.467   0.763   4.810  0.3777 -0.2841 -0.2994
  137OSM   H18H15011   6.622   0.683   4.761 -1.9080  1.0754 -2.7836
  138OSM      N15012   2.023   1.630   6.507 -0.0139  0.1405  0.8005
  138OSM    C1515013   2.125   1.631   6.404  0.6501 -0.1385  0.5203
  138OSM   H15A15014   2.135   1.731   6.365 -1.6545  0.4623  1.2927
  138OSM   H15B15015   2.108   1.559   6.326  0.2517  2.0504 -1.4976
  138OSM   H15C15016   2.223   1.612   6.447  0.6951  0.6767  0.7928
  138OSM    C1415017   1.887   1.672   6.451 -0.1127  0.2944 -0.3524
  138OSM   H14A15018   1.888   1.773   6.412 -2.7875 -0.1991 -1.9597
  138OSM   H14B15019   1.807   1.669   6.523  0.1727 -0.3950 -0.0625
  138OSM   H14C15020   1.853   1.608   6.371 -0.2689 -1.1309  0.8097
  138OSM    C1315021   2.004   1.492   6.549 -0.1004  0.3571 -0.1384
  138OSM   H13A15022   2.090   1.461   6.606 -0.3278  1.2692  0.7390
  138OSM   H13B15023   1.994   1.424   6.466 -0.2170  0.6251 -0.3457
  138OSM   H13C15024   1.922   1.472   6.617 -0.2495 -0.7455 -0.6224
  138OSM    C1215025   2.067   1.715   6.628 -0.3677  0.1259  0.6677
  138OSM   H12A15026   1.995   1.697   6.707 -1.4721 -0.9249 -0.5293
  138OSM   H12B15027   2.053   1.820   6.606 -0.5509  0.1322  0.8102
  138OSM    C1115028   2.214   1.707   6.685 -0.3059  0.0508  0.1470
  138OSM   H11A15029   2.240   1.600   6.691  0.2523  0.2773  2.8863
  138OSM   H11B15030   2.226   1.735   6.792 -0.0904 -0.9999  0.3996
  138OSM      P15031   2.323   1.925   6.592  0.1933  0.0090  0.0554
  138OSM    O1315032   2.189   1.986   6.570 -0.4893 -0.1098 -0.3082
  138OSM    O1415033   2.403   1.981   6.704  0.4312 -0.3879 -0.0312
  138OSM    O1115034   2.400   1.941   6.454 -0.1481 -0.1541 -0.4675
  138OSM    O1215035   2.310   1.771   6.608 -0.3317 -0.8228  0.1671
  138OSM    C1S15036   2.515   1.866   6.422 -0.4493 -0.2643  1.0859
  138OSM    H1S15037   2.498   1.757   6.436 -1.3330 -0.0713  1.5703
  138OSM    H1T15038   2.604   1.891   6.482  0.7738  1.8001 -1.3800
  138OSM     NF15039   2.648   1.805   6.218 -0.4964  0.3355 -0.2812
  138OSM    HNF15040   2.744   1.822   6.240 -0.3588 -1.5407  0.7267
  138OSM    C2S15041   2.563   1.904   6.274  0.0781  0.1306 -0.2842
  138OSM    H2S15042   2.470   1.913   6.215  1.1702 -2.5909 -2.6115
  138OSM    C3S15043   2.626   2.045   6.276  0.2913 -0.2749 -0.7058
  138OSM    H3S15044   2.729   2.026   6.315  0.1164  0.0098 -0.0969
  138OSM     O315045   2.573   2.132   6.373  1.1324  0.5186  0.0732
  138OSM    HO315046   2.500   2.086   6.414  1.0588  1.4756  1.0962
  138OSM    C4S15047   2.654   2.103   6.145  0.4234 -0.2633 -1.1676
  138OSM    H4S15048   2.758   2.088   6.113  0.4605  0.3033 -1.3239
  138OSM    C5S15049   2.575   2.186   6.067  0.1836  0.8763  0.5368
  138OSM    H5S15050   2.476   2.208   6.110 -1.1978 -0.7860 -1.6081
  138OSM    C6S15051   2.617   2.249   5.938 -0.5293 -0.2320 -0.0647
  138OSM    H6S15052   2.726   2.238   5.921 -0.9284  0.0932 -3.6982
  138OSM    H6T15053   2.603   2.359   5.927 -1.8668 -0.3992 -0.2731
  138OSM    C7S15054   2.566   2.172   5.813  0.6110  0.5536  0.0574
  138OSM    H7S15055   2.455   2.165   5.817  0.6502 -0.6929 -0.7370
  138OSM    H7T15056   2.589   2.064   5.819  0.4359  0.4858 -0.4576
  138OSM    C8S15057   2.598   2.228   5.676  0.2914 -0.8845 -0.3084
  138OSM    H8S15058   2.703   2.193   5.659  0.6795 -0.1204  0.4670
  138OSM    H8T15059   2.601   2.338   5.667 -5.0828 -0.4349  0.4648
  138OSM    C9S15060   2.520   2.177   5.551  0.4295  0.3910 -0.8701
  138OSM    H9S15061   2.412   2.183   5.579  0.6430 -2.6010  0.9644
  138OSM    H9T15062   2.543   2.068   5.546 -2.3178 -0.3726  0.8894
  138OSM   C10S15063   2.555   2.243   5.411 -0.0003  0.2279  0.3940
  138OSM   H10S15064   2.657   2.216   5.378  0.6207  1.2962  1.4066
  138OSM   H10T15065   2.540   2.352   5.403  1.4073  0.3811 -0.4611
  138OSM   C11S15066   2.468   2.193   5.299  0.0176 -0.7018  0.3477
  138OSM   H11S15067   2.363   2.226   5.315  0.1373  0.3925 -0.9431
  138OSM   H11T15068   2.472   2.082   5.293 -0.4340 -0.7022 -0.1110
  138OSM   C12S15069   2.493   2.253   5.167 -0.1329 -0.4146  0.1257
  138OSM   H12S15070   2.601   2.248   5.144  0.0943  1.4915  0.5629
  138OSM   H12T15071   2.462   2.360   5.176  3.3172  0.7230 -0.0310
  138OSM   C13S15072   2.417   2.185   5.049 -0.4225  0.0192 -0.3899
  138OSM   H13S15073   2.314   2.201   5.088  0.3600 -1.4399  2.5391
  138OSM   H13T15074   2.435   2.076   5.043  0.6832  0.1329  0.4924
  138OSM   C14S15075   2.435   2.269   4.915 -0.1180  0.1173 -0.0245
  138OSM   H14S15076   2.408   2.374   4.941 -1.6522  0.1230 -1.4611
  138OSM   H14T15077   2.358   2.249   4.838  0.4005  3.1947 -1.4800
  138OSM   C15S15078   2.575   2.249   4.860  0.0396  0.6068 -0.0990
  138OSM   H15S15079   2.586   2.155   4.801 -0.5516 -0.0703  0.8459
  138OSM   H15T15080   2.647   2.231   4.943  0.7567 -0.7802 -0.9672
  138OSM   C16S15081   2.620   2.373   4.774  0.8307 -0.9375  0.2815
  138OSM   H16S15082   2.614   2.463   4.839  1.0334 -0.8541  0.1827
  138OSM   H16T15083   2.548   2.394   4.692 -0.0041 -0.8798  1.0141
  138OSM   C17S15084   2.756   2.351   4.707  0.6365  0.3058  0.2229
  138OSM   H17S15085   2.777   2.448   4.659 -2.3019  0.6017 -0.6717
  138OSM   H17T15086   2.754   2.263   4.639  2.9458  0.0940  0.3440
  138OSM   C18S15087   2.866   2.320   4.809 -0.0716 -0.5695 -0.6916
  138OSM   H18S15088   2.851   2.220   4.854 -0.4624 -0.2117  0.0005
  138OSM   H18T15089   2.862   2.400   4.887  0.1006 -0.9398 -0.3030
  138OSM   H18U15090   2.963   2.324   4.756  1.2688  1.3620  1.6752
  138OSM    C1F15091   2.605   1.692   6.160 -0.0575  0.0893 -0.4408
  138OSM     OF15092   2.486   1.668   6.154 -0.6863  0.1422 -0.9238
  138OSM    C2F15093   2.701   1.606   6.097  0.0375 -0.2675 -0.4469
  138OSM    H2F15094   2.687   1.505   6.141 -0.6603 -1.1672 -2.5695
  138OSM    H2G15095   2.803   1.642   6.123  1.1790 -2.4499 -1.5600
  138OSM    C3F15096   2.702   1.599   5.944  0.0089 -0.1585 -0.0762
  138OSM    H3F15097   2.606   1.560   5.904 -0.3241 -0.2422  0.7837
  138OSM    H3G15098   2.783   1.534   5.906  0.6858 -0.5666  1.9600
  138OSM    C4F15099   2.741   1.730   5.874  0.1837 -0.1647  0.1914
  138OSM    H4F15100   2.838   1.766   5.914  0.1661  0.8730 -0.6559
  138OSM    H4G15101   2.669   1.810   5.902  1.3409  1.1017 -0.3301
  138OSM    C5F15102   2.755   1.735   5.720  0.4229 -0.8356 -0.7179
  138OSM    H5F15103   2.858   1.708   5.690  1.1952  0.5507  0.5651
  138OSM    H5G15104   2.718   1.835   5.691 -1.3208 -0.4266  2.4776
  138OSM    C6F15105   2.674   1.630   5.648  0.5947 -0.2244  0.5699
  138OSM    H6F15106   2.565   1.645   5.662  0.4423  0.4643 -1.1205
  138OSM    H6G15107   2.685   1.529   5.694 -2.5286 -0.5307  0.8614
  138OSM    C7F15108   2.709   1.627   5.503 -0.0825  0.2036  0.0362
  138OSM    H7F15109   2.686   1.520   5.481  0.1105  0.3759 -1.0405
  138OSM    H7G15110   2.818   1.625   5.478 -0.2843 -2.8432 -1.0075
  138OSM    C8F15111   2.624   1.709   5.407 -0.0655  0.4569  0.1286
  138OSM    H8F15112   2.524   1.725   5.453  0.7397 -1.3822  2.7479
  138OSM    H8G15113   2.618   1.643   5.318  2.7799 -0.4227  0.4806
  138OSM    C9F15114   2.686   1.843   5.374  0.3179  0.1096 -0.4310
  138OSM    H9F15115   2.700   1.908   5.462  1.0203 -1.1111  0.3694
  138OSM   C10F15116   2.716   1.892   5.260 -0.0963 -0.6879  0.2602
  138OSM   H10F15117   2.751   1.996   5.260 -1.3173 -0.1660 -2.8317
  138OSM   C11F15118   2.715   1.812   5.133 -0.0339 -0.2253  0.5300
  138OSM   H11F15119   2.622   1.752   5.132 -0.5912  0.6220  0.5550
  138OSM   H11G15120   2.796   1.736   5.122  0.1903  0.1473 -0.5083
  138OSM   C12F15121   2.720   1.906   5.013  0.5283 -0.5378 -1.0416
  138OSM   H12F15122   2.802   1.980   5.010  0.3705 -0.3662 -1.1681
  138OSM   H12G15123   2.625   1.963   5.011  0.2244 -1.0434 -1.3243
  138OSM   C13F15124   2.730   1.840   4.870 -0.8290  0.0656  0.7862
  138OSM   H13F15125   2.826   1.784   4.880 -0.8729 -0.1845 -0.0914
  138OSM   H13G15126   2.723   1.919   4.792 -0.6147  1.3525  2.0389
  138OSM   C14F15127   2.633   1.727   4.833  0.6921  0.5049 -0.2450
  138OSM   H14F15128   2.634   1.654   4.917 -2.5300 -0.2334 -0.7144
  138OSM   H14G15129   2.668   1.675   4.742 -2.2310  2.1429 -2.4830
  138OSM   C15F15130   2.494   1.775   4.803  0.0051  0.0168  0.6330
  138OSM   H15F15131   2.492   1.838   4.712  0.3365 -2.4960 -1.2132
  138OSM   H15G15132   2.477   1.853   4.880  0.8195 -0.0893  0.9353
  138OSM   C16F15133   2.384   1.663   4.795 -0.2018 -0.1403  0.0468
  138OSM   H16F15134   2.284   1.707   4.777  0.1766  0.9292  0.4700
  138OSM   H16G15135   2.376   1.605   4.889 -0.6701  2.7642  1.9331
  138OSM   C17F15136   2.405   1.572   4.668  0.2332 -0.0235  0.3181
  138OSM   H17F15137   2.509   1.533   4.668  0.2016 -0.1120  0.6119
  138OSM   H17G15138   2.401   1.642   4.582  0.1271  1.5295  1.5427
  138OSM   C18F15139   2.305   1.461   4.670 -0.5402 -0.1423  0.4000
  138OSM   H18F15140   2.320   1.382   4.593  0.7214  1.3819 -1.0053
  138OSM   H18G15141   2.203   1.502   4.656 -0.2372  0.6926  0.6090
  138OSM   H18H15142   2.305   1.411   4.769 -0.7139  0.8574  0.9181
  139OSM      N15143   4.291   3.423   6.766  0.1672 -0.3567  0.3123
  139OSM    C1515144   4.147   3.426   6.819 -0.1512  0.0906 -0.6160
  139OSM   H15A15145   4.148   3.357   6.902  1.9667 -0.9400 -1.4168
  139OSM   H15B15146   4.070   3.401   6.748 -0.0210 -1.5841 -0.2020
  139OSM   H15C15147   4.133   3.523   6.864  0.1452 -0.9015  1.7919
  139OSM    C1415148   4.327   3.289   6.722  0.5671  0.4947 -0.8166
  139OSM   H14A15149   4.263   3.258   6.641  0.2105  0.5104 -0.5395
  139OSM   H14B15150   4.333   3.218   6.803  3.5048  1.6208  0.0915
  139OSM   H14C15151   4.420   3.284   6.667  2.4457  1.4337  2.0364
  139OSM    C1315152   4.301   3.515   6.644  0.1337 -0.4996 -0.7697
  139OSM   H13A15153   4.400   3.503   6.601  0.4213 -4.4826  0.5747
  139OSM   H13B15154   4.290   3.619   6.673 -0.5943 -0.6374 -0.5383
  139OSM   H13C15155   4.234   3.497   6.562 -1.0573 -1.6722  0.4121
  139OSM    C1215156   4.392   3.468   6.875  0.1102 -0.0500  0.1140
  139OSM   H12A15157   4.492   3.474   6.835  0.6521  1.8910  1.6044
  139OSM   H12B15158   4.391   3.402   6.959 -3.3559  0.5902  0.7601
  139OSM    C1115159   4.364   3.601   6.944 -0.2892 -0.2192 -0.3983
  139OSM   H11A15160   4.432   3.596   7.032 -1.2639 -1.3734  0.3177
  139OSM   H11B15161   4.258   3.604   6.977 -0.6149  3.4002 -1.3604
  139OSM      P15162   4.534   3.755   6.820 -0.5401 -0.1677 -0.0614
  139OSM    O1315163   4.571   3.884   6.882  0.3019 -0.1579  0.1486
  139OSM    O1415164   4.626   3.641   6.850 -0.3063 -0.2412  0.3762
  139OSM    O1115165   4.545   3.770   6.663 -0.2836  0.4465  0.0388
  139OSM    O1215166   4.385   3.712   6.858 -0.4556  0.5850  0.2228
  139OSM    C1S15167   4.458   3.848   6.585 -0.2822  0.4929 -0.1423
  139OSM    H1S15168   4.470   3.955   6.610  1.3293  0.2510  0.2840
  139OSM    H1T15169   4.353   3.822   6.610  0.0012 -0.5425  0.0411
  139OSM     NF15170   4.388   3.915   6.359 -0.1699  0.3463 -0.1584
  139OSM    HNF15171   4.327   3.874   6.292  0.7696 -0.6457 -0.4347
  139OSM    C2S15172   4.489   3.837   6.434  0.1301 -0.1224  0.1580
  139OSM    H2S15173   4.583   3.896   6.431 -0.2879  0.5477 -0.0356
  139OSM    C3S15174   4.532   3.700   6.381  0.4597 -0.0882  0.0042
  139OSM    H3S15175   4.455   3.629   6.416  1.2540  0.8161  4.0889
  139OSM     O315176   4.647   3.650   6.444  0.0620 -0.4026 -0.1477
  139OSM    HO315177   4.649   3.696   6.528  2.7989 -1.8167  0.6954
  139OSM    C4S15178   4.542   3.709   6.227  0.2142 -0.0545  0.4210
  139OSM    H4S15179   4.444   3.697   6.178  0.8693  0.1219 -0.9923
  139OSM    C5S15180   4.649   3.733   6.149  0.6733  0.1023 -0.9367
  139OSM    H5S15181   4.745   3.741   6.202  0.2757  1.7533 -0.4087
  139OSM    C6S15182   4.652   3.741   6.000 -0.5283  0.3907 -0.1024
  139OSM    H6S15183   4.698   3.647   5.962  1.0156  0.5084  1.3677
  139OSM    H6T15184   4.722   3.823   5.974  1.3898 -0.8046  1.0588
  139OSM    C7S15185   4.521   3.760   5.922  0.2686 -0.1278  0.2690
  139OSM    H7S15186   4.461   3.843   5.965 -0.2021 -0.1399 -0.3567
  139OSM    H7T15187   4.464   3.664   5.924 -0.6699  0.3614 -1.2084
  139OSM    C8S15188   4.547   3.788   5.780  0.3090 -0.5248  0.1366
  139OSM    H8S15189   4.590   3.702   5.723  0.2149  0.1664 -1.0033
  139OSM    H8T15190   4.611   3.878   5.765 -1.2607  0.4066 -1.3786
  139OSM    C9S15191   4.424   3.819   5.693  0.1676  0.1870 -0.4950
  139OSM    H9S15192   4.377   3.903   5.749 -3.3434 -1.8753 -0.0790
  139OSM    H9T15193   4.346   3.742   5.706 -0.5213  0.9918  0.3593
  139OSM   C10S15194   4.443   3.847   5.549  0.2505  0.2506 -0.2104
  139OSM   H10S15195   4.456   3.757   5.484  0.5486  0.9938 -1.2116
  139OSM   H10T15196   4.521   3.925   5.540 -0.4540  1.1669  1.2105
  139OSM   C11S15197   4.310   3.917   5.511 -0.4666  0.7290 -0.0045
  139OSM   H11S15198   4.284   4.000   5.582 -1.3911 -0.5906  1.2631
  139OSM   H11T15199   4.229   3.847   5.538  2.1825 -1.7651  2.1674
  139OSM   C12S15200   4.317   3.965   5.363  0.1731  0.2960  0.1625
  139OSM   H12S15201   4.420   3.992   5.331 -0.4955  0.3167 -2.1672
  139OSM   H12T15202   4.239   4.043   5.351 -1.2133 -1.1785 -0.8626
  139OSM   C13S15203   4.285   3.856   5.266 -0.1424 -0.2487  0.0271
  139OSM   H13S15204   4.187   3.809   5.285 -1.5410  2.8647  1.0718
  139OSM   H13T15205   4.358   3.775   5.241 -0.1325 -0.4520  0.6928
  139OSM   C14S15206   4.270   3.907   5.117  0.4154 -0.4979  0.0308
  139OSM   H14S15207   4.370   3.946   5.087  0.7642 -0.4249  1.2229
  139OSM   H14T15208   4.196   3.990   5.120 -1.4151 -2.0850  3.1528
  139OSM   C15S15209   4.240   3.793   5.019  0.7221  1.1496  0.6908
  139OSM   H15S15210   4.209   3.825   4.917 -0.8540 -0.6002  0.5700
  139OSM   H15T15211   4.156   3.725   5.043  2.0282 -1.8366 -2.3201
  139OSM   C16S15212   4.366   3.700   5.005 -0.2920 -0.3402  0.9368
  139OSM   H16S15213   4.386   3.651   5.103  1.3357 -0.2091  0.6831
  139OSM   H16T15214   4.460   3.751   4.978  0.1717 -2.3700 -1.6223
  139OSM   C17S15215   4.347   3.591   4.902  0.2442  0.4848 -0.0044
  139OSM   H17S15216   4.239   3.563   4.909 -0.1411  1.6531 -0.7920
  139OSM   H17T15217   4.409   3.505   4.933  1.1504  0.4275 -1.8184
  139OSM   C18S15218   4.382   3.644   4.760 -0.2824 -0.3309 -0.0721
  139OSM   H18S15219   4.300   3.715   4.739 -1.7787 -1.5139  1.4789
  139OSM   H18T15220   4.389   3.557   4.692  1.2028 -0.1331 -0.2036
  139OSM   H18U15221   4.482   3.692   4.770  0.5435 -2.0463  0.3735
  139OSM    C1F15222   4.355   4.043   6.371 -0.8202  0.1657  0.1097
  139OSM     OF15223   4.409   4.120   6.448  0.3822 -0.0252 -0.3967
  139OSM    C2F15224   4.241   4.089   6.288 -0.2930 -0.2318  0.1690
  139OSM    H2F15225   4.191   4.174   6.340  2.9367  1.5540  0.6117
  139OSM    H2G15226   4.159   4.017   6.269 -1.1589  1.0974 -1.4618
  139OSM    C3F15227   4.293   4.138   6.150 -0.3961  0.0999 -0.2566
  139OSM    H3F15228   4.210   4.186   6.094 -0.5589 -1.5948 -1.5562
  139OSM    H3G15229   4.321   4.043   6.100 -1.4288 -0.4105  0.0962
  139OSM    C4F15230   4.417   4.225   6.159 -0.4328  0.2468  0.2570
  139OSM    H4F15231   4.508   4.171   6.194 -1.4510 -2.1451 -0.5696
  139OSM    H4G15232   4.397   4.305   6.233 -1.0410  0.8894 -0.5932
  139OSM    C5F15233   4.450   4.292   6.022  0.7581  0.7787 -0.2230
  139OSM    H5F15234   4.528   4.370   6.038 -1.5567  2.9465  1.1823
  139OSM    H5G15235   4.351   4.337   6.000 -0.2331 -0.3420  1.6656
  139OSM    C6F15236   4.482   4.191   5.914 -0.0460  0.4740 -0.1996
  139OSM    H6F15237   4.395   4.123   5.898  0.4444  0.1826 -1.7084
  139OSM    H6G15238   4.555   4.117   5.954 -2.0946 -0.9923  1.0579
  139OSM    C7F15239   4.506   4.236   5.766 -0.7738 -0.0167 -0.1546
  139OSM    H7F15240   4.571   4.160   5.718 -2.0790 -1.2328 -0.0771
  139OSM    H7G15241   4.565   4.330   5.766  0.0175 -0.3835 -3.6243
  139OSM    C8F15242   4.391   4.271   5.672  0.4107 -0.3909  0.1020
  139OSM    H8F15243   4.329   4.179   5.681  0.5823 -0.6986 -1.5798
  139OSM    H8G15244   4.433   4.261   5.570 -0.3621 -0.4438 -0.2210
  139OSM    C9F15245   4.311   4.398   5.691 -0.3617 -0.2191  0.5109
  139OSM    H9F15246   4.308   4.444   5.790  2.3652 -0.8576  0.9869
  139OSM   C10F15247   4.248   4.459   5.595  0.2239  0.0986 -0.9002
  139OSM   H10F15248   4.208   4.557   5.624 -2.1228 -0.7627 -1.0085
  139OSM   C11F15249   4.222   4.425   5.450 -0.0200  0.1019 -0.0730
  139OSM   H11F15250   4.282   4.344   5.402 -1.0875 -0.0588 -1.1921
  139OSM   H11G15251   4.230   4.516   5.387 -1.2503 -0.2007 -0.6944
  139OSM   C12F15252   4.074   4.387   5.433 -0.1461 -0.4746 -0.3966
  139OSM   H12F15253   4.004   4.432   5.507  1.7690  0.5172  0.8906
  139OSM   H12G15254   4.077   4.276   5.441  0.8815 -0.3586  1.3695
  139OSM   C13F15255   4.014   4.411   5.292  0.1170 -0.1487 -0.2943
  139OSM   H13F15256   4.079   4.353   5.223  1.7428 -0.1431  1.1480
  139OSM   H13G15257   4.024   4.517   5.259 -1.3520 -0.3299 -1.3954
  139OSM   C14F15258   3.865   4.376   5.271  0.2191  0.1733  0.6896
  139OSM   H14F15259   3.809   4.429   5.352  1.0773  2.3705 -0.0700
  139OSM   H14G15260   3.843   4.267   5.274  0.7858  0.0285 -0.1156
  139OSM   C15F15261   3.831   4.412   5.124 -0.3631 -0.1290 -0.5876
  139OSM   H15F15262   3.740   4.360   5.088 -0.4058  0.2438 -1.0198
  139OSM   H15G15263   3.907   4.380   5.049 -1.7624 -1.8214 -1.3569
  139OSM   C16F15264   3.811   4.564   5.101  0.0489  0.8021 -0.1233
  139OSM   H16F15265   3.909   4.615   5.097 -1.3518  3.7275 -0.3579
  139OSM   H16G15266   3.756   4.608   5.187  0.2349 -0.4754  0.6773
  139OSM   C17F15267   3.748   4.588   4.965  0.4151 -0.1694  0.0856
  139OSM   H17F15268   3.793   4.521   4.888  1.0228  0.7222 -0.3662
  139OSM   H17G15269   3.763   4.694   4.933 -0.9218 -0.6146 -2.3073
  139OSM   C18F15270   3.595   4.567   4.968 -0.1862 -0.5523  0.0609
  139OSM   H18F15271   3.567   4.466   5.003 -0.9361 -1.4480 -2.7900
  139OSM   H18G15272   3.553   4.586   4.866  0.4986  0.2994 -0.0785
  139OSM   H18H15273   3.549   4.641   5.036  3.4751  0.6406  1.4846
  140OSM      N15274   5.647   1.027   7.229 -0.3058  0.3062  0.2764
  140OSM    C1515275   5.649   0.958   7.359  0.7331 -0.0124 -0.0855
  140OSM   H15A15276   5.682   0.859   7.331 -1.7169 -0.3229 -2.2931
  140OSM   H15B15277   5.552   0.944   7.405 -0.0041 -1.2637 -1.9106
  140OSM   H15C15278   5.721   1.006   7.424  0.1023 -0.1129  0.7019
  140OSM    C1415279   5.791   1.021   7.171 -0.7153  0.2394  0.2744
  140OSM   H14A15280   5.857   1.042   7.254 -1.5268 -0.0914  1.0179
  140OSM   H14B15281   5.800   1.092   7.091 -1.4510  1.6632  1.4154
  140OSM   H14C15282   5.819   0.927   7.126 -0.8776 -0.1281  0.9187
  140OSM    C1315283   5.555   0.955   7.134 -0.0267 -0.7467  0.1168
  140OSM   H13A15284   5.574   0.987   7.032  2.0148 -3.8326 -0.6231
  140OSM   H13B15285   5.455   0.972   7.171  0.1297 -0.1729  0.2763
  140OSM   H13C15286   5.573   0.849   7.123  1.4845 -0.4445 -0.5821
  140OSM    C1215287   5.604   1.167   7.250 -0.5174 -0.7978  0.0275
  140OSM   H12A15288   5.672   1.212   7.321  0.8834 -1.8941 -0.5683
  140OSM   H12B15289   5.509   1.164   7.300 -1.2584 -0.0028 -1.2827
  140OSM    C1115290   5.576   1.264   7.136 -0.2958 -0.1903  1.0785
  140OSM   H11A15291   5.573   1.372   7.164 -1.6860  1.0361 -3.0158
  140OSM   H11B15292   5.478   1.248   7.086 -0.0723  0.7112  0.3067
  140OSM      P15293   5.652   1.230   6.883 -0.1230 -0.0710 -0.0010
  140OSM    O1315294   5.615   1.344   6.804  0.2019 -0.1244  0.1973
  140OSM    O1415295   5.774   1.162   6.845 -0.1177  0.0958 -0.0699
  140OSM    O1115296   5.525   1.134   6.859 -0.4182 -0.5317 -0.2834
  140OSM    O1215297   5.678   1.260   7.034  0.5342  0.0641  0.1682
  140OSM    C1S15298   5.495   1.108   6.723  0.4058  0.1841 -0.5058
  140OSM    H1S15299   5.574   1.129   6.648 -0.7337 -1.1412 -2.1244
  140OSM    H1T15300   5.415   1.180   6.694  0.0430  0.2747  0.6680
  140OSM     NF15301   5.434   0.930   6.546  0.3439 -0.1747 -0.5156
  140OSM    HNF15302   5.342   0.933   6.509  0.2312 -0.1021 -0.2289
  140OSM    C2S15303   5.452   0.953   6.686  0.2601 -0.5281  0.5066
  140OSM    H2S15304   5.528   0.884   6.728  1.3396 -0.2853 -0.9671
  140OSM    C3S15305   5.312   0.935   6.754 -0.5969  0.3326  0.1678
  140OSM    H3S15306   5.244   0.993   6.689 -0.5508  1.1321  0.8096
  140OSM     O315307   5.278   1.004   6.872  0.0025 -0.2833 -0.5208
  140OSM    HO315308   5.359   1.043   6.906 -2.3679  2.1143  3.1116
  140OSM    C4S15309   5.257   0.788   6.753 -0.4897  1.0687  0.0969
  140OSM    H4S15310   5.181   0.779   6.674 -0.3613 -1.5954  0.2027
  140OSM    C5S15311   5.287   0.683   6.837  0.5721 -0.3433 -0.5696
  140OSM    H5S15312   5.350   0.699   6.926  1.2049  1.7247 -1.3310
  140OSM    C6S15313   5.233   0.539   6.831  0.0927 -0.0319 -0.1763
  140OSM    H6S15314   5.156   0.529   6.752 -0.5507 -0.5060  0.4984
  140OSM    H6T15315   5.178   0.522   6.926  1.5439 -1.7885  0.4108
  140OSM    C7S15316   5.334   0.426   6.810 -0.1476 -0.3133 -0.0612
  140OSM    H7S15317   5.281   0.329   6.814  1.8663 -1.5185 -1.0979
  140OSM    H7T15318   5.409   0.434   6.892  0.9831  0.3848 -1.1181
  140OSM    C8S15319   5.403   0.437   6.669 -0.2235 -0.9764  0.3988
  140OSM    H8S15320   5.494   0.374   6.672 -0.2490 -1.1579 -1.6248
  140OSM    H8T15321   5.443   0.541   6.671 -1.2329 -0.5742  1.7785
  140OSM    C9S15322   5.326   0.399   6.550 -0.2982  0.3223  0.2136
  140OSM    H9S15323   5.234   0.458   6.532  0.3658  0.8500 -1.8109
  140OSM    H9T15324   5.293   0.293   6.550 -1.9512  0.7933 -1.0141
  140OSM   C10S15325   5.410   0.437   6.427  0.3177 -0.5477 -0.7326
  140OSM   H10S15326   5.503   0.378   6.433  0.4370 -0.3304 -0.3475
  140OSM   H10T15327   5.437   0.544   6.439 -1.0008 -0.2293 -0.3213
  140OSM   C11S15328   5.335   0.412   6.299  0.1695 -0.2671 -0.0998
  140OSM   H11S15329   5.240   0.470   6.292 -1.4940 -2.9689 -2.1859
  140OSM   H11T15330   5.312   0.303   6.300  0.7738 -0.5524 -3.4303
  140OSM   C12S15331   5.427   0.440   6.182  0.6195 -0.3239 -0.6143
  140OSM   H12S15332   5.526   0.401   6.213  0.6528 -2.2424 -2.8465
  140OSM   H12T15333   5.433   0.551   6.185 -1.2189 -0.1817 -1.0454
  140OSM   C13S15334   5.388   0.387   6.043  0.1024  0.5136 -0.0687
  140OSM   H13S15335   5.277   0.376   6.045  0.2773 -1.7640  1.5999
  140OSM   H13T15336   5.432   0.285   6.032 -1.5464 -0.0539 -2.1178
  140OSM   C14S15337   5.440   0.472   5.925 -0.3119 -0.2106 -0.4552
  140OSM   H14S15338   5.547   0.500   5.940  0.0652 -0.4485 -2.4272
  140OSM   H14T15339   5.381   0.566   5.924  1.5336  1.0048 -1.7545
  140OSM   C15S15340   5.432   0.400   5.793  0.8154  0.6479 -0.0796
  140OSM   H15S15341   5.325   0.380   5.769  1.2453 -0.8682 -0.8196
  140OSM   H15T15342   5.476   0.298   5.803 -2.0074 -0.6668 -0.0494
  140OSM   C16S15343   5.489   0.452   5.651  0.5445 -0.5862 -0.5697
  140OSM   H16S15344   5.600   0.456   5.655  0.6315  2.3477 -2.5505
  140OSM   H16T15345   5.449   0.551   5.619 -1.7222 -0.4262  2.3243
  140OSM   C17S15346   5.457   0.355   5.532 -0.4297 -0.1230 -0.8105
  140OSM   H17S15347   5.348   0.356   5.513 -0.6686  0.0167  0.4809
  140OSM   H17T15348   5.490   0.250   5.547  2.8377  0.8389 -0.5127
  140OSM   C18S15349   5.533   0.400   5.402  0.1972 -0.0429  0.2633
  140OSM   H18S15350   5.516   0.510   5.394  1.0294  0.0769  0.0448
  140OSM   H18T15351   5.484   0.347   5.317  1.6962 -2.3415  0.7366
  140OSM   H18U15352   5.642   0.379   5.412  0.9300  3.1859  0.1565
  140OSM    C1F15353   5.537   0.934   6.461 -0.0377  0.2145  0.3049
  140OSM     OF15354   5.655   0.958   6.493  0.7122  0.4810  0.1273
  140OSM    C2F15355   5.508   0.884   6.320  0.4219 -0.3272 -0.6144
  140OSM    H2F15356   5.406   0.843   6.303 -0.2675  1.3259 -0.6620
  140OSM    H2G15357   5.580   0.799   6.311  0.9643  0.0781 -0.1465
  140OSM    C3F15358   5.540   1.002   6.225  0.5523 -0.0705  0.3569
  140OSM    H3F15359   5.641   1.046   6.242  0.5266  0.0897  0.0914
  140OSM    H3G15360   5.457   1.075   6.241 -0.6324 -1.1298 -0.7186
  140OSM    C4F15361   5.536   0.962   6.078 -0.2702  0.2239 -0.0223
  140OSM    H4F15362   5.457   0.885   6.066 -1.3205  1.0920  1.1593
  140OSM    H4G15363   5.642   0.932   6.062  0.2179  2.9022 -2.9346
  140OSM    C5F15364   5.523   1.076   5.978  0.1361 -0.1622  0.4612
  140OSM    H5F15365   5.619   1.119   5.944  0.4433 -2.2322 -1.5030
  140OSM    H5G15366   5.456   1.160   6.009  1.0481  0.7367  0.0417
  140OSM    C6F15367   5.459   1.024   5.847  0.8051  1.0349  0.3559
  140OSM    H6F15368   5.442   1.110   5.780 -0.7492 -0.9379 -1.9356
  140OSM    H6G15369   5.360   0.981   5.874  1.0669  0.6675  0.7628
  140OSM    C7F15370   5.551   0.923   5.771 -0.4575 -0.5385  0.3904
  140OSM    H7F15371   5.581   0.845   5.843  0.4253 -0.3360  0.2476
  140OSM    H7G15372   5.643   0.966   5.727 -0.2661  0.6789  1.8977
  140OSM    C8F15373   5.477   0.846   5.663 -0.5348  0.6524  0.3268
  140OSM    H8F15374   5.391   0.790   5.706 -0.2917 -2.1634 -2.5474
  140OSM    H8G15375   5.541   0.774   5.608 -0.0024  1.5384 -0.2383
  140OSM    C9F15376   5.418   0.942   5.564  0.0379  0.8293  0.2605
  140OSM    H9F15377   5.313   0.964   5.589  0.7820  0.6776  4.2890
  140OSM   C10F15378   5.476   0.977   5.450  0.5836  0.2337  0.5050
  140OSM   H10F15379   5.423   1.057   5.396 -3.6021 -0.9952  2.3527
  140OSM   C11F15380   5.615   0.947   5.391  0.5256  0.1693  0.2726
  140OSM   H11F15381   5.658   0.855   5.437  1.9300  0.3061 -0.7129
  140OSM   H11G15382   5.695   1.021   5.414 -0.7497  0.9843  2.3747
  140OSM   C12F15383   5.601   0.903   5.243 -0.0625 -0.2299 -0.5124
  140OSM   H12F15384   5.577   0.996   5.187 -0.6909  0.0994  0.2895
  140OSM   H12G15385   5.518   0.832   5.224 -1.3269  0.6907  1.2775
  140OSM   C13F15386   5.737   0.853   5.187 -0.0307 -0.1056 -0.3187
  140OSM   H13F15387   5.777   0.778   5.260  1.6651  0.2604 -0.8275
  140OSM   H13G15388   5.814   0.933   5.183 -0.7128  0.5704 -0.2296
  140OSM   C14F15389   5.733   0.786   5.055  0.5712  0.0293 -0.1225
  140OSM   H14F15390   5.663   0.700   5.061  0.9761 -0.4432 -1.6651
  140OSM   H14G15391   5.834   0.753   5.022  0.4229 -0.2577 -0.3000
  140OSM   C15F15392   5.686   0.870   4.932 -0.4879 -0.2305  0.2586
  140OSM   H15F15393   5.576   0.883   4.939 -0.8053 -3.0773  2.0344
  140OSM   H15G15394   5.709   0.817   4.837  0.1081  1.5467 -0.6335
  140OSM   C16F15395   5.752   1.011   4.924  0.6760 -0.2656  0.1567
  140OSM   H16F15396   5.860   0.987   4.937  0.6596 -0.7449 -0.5487
  140OSM   H16G15397   5.716   1.076   5.007  2.3884  1.2142 -0.1944
  140OSM   C17F15398   5.725   1.088   4.794  0.1734  0.0087  0.4745
  140OSM   H17F15399   5.756   1.022   4.710 -0.0251  0.9597 -0.3639
  140OSM   H17G15400   5.792   1.175   4.784 -1.1583  1.1221  0.9912
  140OSM   C18F15401   5.579   1.134   4.764 -0.1765  0.4310  0.3484
  140OSM   H18F15402   5.572   1.220   4.834  2.8798  1.9166 -0.9801
  140OSM   H18G15403   5.511   1.049   4.787  0.8929 -1.2722 -2.2537
  140OSM   H18H15404   5.570   1.194   4.671  1.3265  1.1119  0.6113
  141OSM      N15405   3.834   1.287   6.902 -0.2687  0.1455 -0.5278
  141OSM    C1515406   3.827   1.215   7.038 -0.0575  0.0966  0.7089
  141OSM   H15A15407   3.775   1.121   7.021  2.5564 -1.0946 -1.4091
  141OSM   H15B15408   3.774   1.272   7.113 -0.5688 -1.7645  1.8250
  141OSM   H15C15409   3.924   1.182   7.072  0.1322  2.1249  2.2694
  141OSM    C1415410   3.902   1.419   6.925 -0.4416 -0.1935 -0.6095
  141OSM   H14A15411   3.924   1.475   6.836  1.4961  0.7036  0.3701
  141OSM   H14B15412   3.996   1.404   6.977  0.9046  1.6737 -2.3679
  141OSM   H14C15413   3.846   1.483   6.990  3.3134  2.1518  0.6030
  141OSM    C1315414   3.912   1.199   6.809  0.0542 -0.0404  0.2083
  141OSM   H13A15415   3.865   1.102   6.801  1.0844 -0.4004 -2.2360
  141OSM   H13B15416   4.009   1.188   6.855  0.5241  3.9691  0.5443
  141OSM   H13C15417   3.918   1.235   6.707  4.1211  0.5891  0.5083
  141OSM    C1215418   3.697   1.320   6.853  0.2971  0.4951  0.3120
  141OSM   H12A15419   3.654   1.404   6.905 -0.5482 -0.1444  0.6810
  141OSM   H12B15420   3.631   1.236   6.873 -1.1502  1.4999 -0.0546
  141OSM    C1115421   3.687   1.359   6.705 -0.0197 -0.1261  0.4677
  141OSM   H11A15422   3.580   1.352   6.675 -0.5889 -0.0164  2.3316
  141OSM   H11B15423   3.743   1.291   6.638 -0.0335 -0.2950  0.6253
  141OSM      P15424   3.637   1.610   6.727 -0.1226  0.1309  0.2409
  141OSM    O1315425   3.561   1.587   6.855  0.0485 -0.1646  0.5431
  141OSM    O1415426   3.715   1.735   6.715 -0.1906 -0.1789 -0.1989
  141OSM    O1115427   3.538   1.607   6.604 -1.1356  0.2117  0.5796
  141OSM    O1215428   3.736   1.487   6.695 -0.2999 -0.2464  0.3413
  141OSM    C1S15429   3.569   1.656   6.477  0.9976 -0.0154 -0.1446
  141OSM    H1S15430   3.625   1.751   6.481 -0.5939  0.9349  0.5923
  141OSM    H1T15431   3.474   1.695   6.436 -0.0978 -1.4937  0.8701
  141OSM     NF15432   3.690   1.613   6.270  0.2615  0.2052  0.1447
  141OSM    HNF15433   3.640   1.649   6.191  3.2965 -1.3235 -2.7223
  141OSM    C2S15434   3.631   1.548   6.381  0.6348  0.0842  0.1437
  141OSM    H2S15435   3.710   1.501   6.444  1.4199 -0.2576 -1.0629
  141OSM    C3S15436   3.516   1.442   6.345 -0.1231  0.5652 -0.0671
  141OSM    H3S15437   3.441   1.503   6.290 -1.7564 -0.4864  0.9243
  141OSM     O315438   3.442   1.390   6.453  1.1503 -0.0755 -0.1339
  141OSM    HO315439   3.469   1.436   6.533 -0.3791 -0.4113  0.6190
  141OSM    C4S15440   3.560   1.326   6.256 -0.0699  0.7341  0.5417
  141OSM    H4S15441   3.554   1.350   6.149  1.9765 -2.0422 -0.2804
  141OSM    C5S15442   3.599   1.209   6.293 -0.5619  0.7139  0.1855
  141OSM    H5S15443   3.609   1.179   6.399 -0.8176 -0.4055 -0.0944
  141OSM    C6S15444   3.639   1.099   6.197  0.1259 -0.0152 -0.0851
  141OSM    H6S15445   3.606   1.003   6.241  1.9044 -0.0858  1.1842
  141OSM    H6T15446   3.749   1.085   6.185  0.0678 -0.6575  0.1274
  141OSM    C7S15447   3.592   1.106   6.044 -0.2608  0.7007 -0.6990
  141OSM    H7S15448   3.631   1.201   6.000  0.7263  1.4645  1.6404
  141OSM    H7T15449   3.483   1.102   6.060 -0.1181  1.4255  0.6103
  141OSM    C8S15450   3.656   0.983   5.965  0.2259 -0.0530 -0.8833
  141OSM    H8S15451   3.630   0.887   6.013 -0.8892  0.5321 -0.2496
  141OSM    H8T15452   3.766   0.997   5.968  0.5297 -2.4204  0.5072
  141OSM    C9S15453   3.619   0.978   5.813 -0.5429  0.1102  0.1104
  141OSM    H9S15454   3.660   1.071   5.769 -1.9365 -0.0184 -1.5706
  141OSM    H9T15455   3.508   0.977   5.809 -0.5503  1.0707  0.0096
  141OSM   C10S15456   3.684   0.855   5.741  0.4592 -0.4459  0.2877
  141OSM   H10S15457   3.644   0.757   5.775 -1.6954  0.0825 -0.5558
  141OSM   H10T15458   3.793   0.854   5.764  0.9878 -1.8382 -1.9905
  141OSM   C11S15459   3.662   0.857   5.590  0.2132  0.2648  0.3438
  141OSM   H11S15460   3.567   0.915   5.585  1.4933  2.7582  2.4028
  141OSM   H11T15461   3.642   0.752   5.559 -0.1680  0.1529  0.9697
  141OSM   C12S15462   3.775   0.924   5.503  0.5592 -0.0060 -0.4295
  141OSM   H12S15463   3.869   0.865   5.487  0.2311 -0.3755 -1.0477
  141OSM   H12T15464   3.803   1.020   5.552 -1.1659  1.2145 -1.7180
  141OSM   C13S15465   3.732   0.973   5.362  0.3122 -0.1138  0.5857
  141OSM   H13S15466   3.643   1.039   5.376  1.1997  1.3919 -0.6547
  141OSM   H13T15467   3.696   0.877   5.319  2.8188 -0.4230 -1.0382
  141OSM   C14S15468   3.837   1.050   5.283  0.3966  0.2868  0.1612
  141OSM   H14S15469   3.932   0.993   5.284  0.9444  1.1759 -0.5457
  141OSM   H14T15470   3.861   1.149   5.327  2.7864  0.7530 -1.9961
  141OSM   C15S15471   3.796   1.064   5.136  0.8793 -0.4490 -0.0736
  141OSM   H15S15472   3.715   1.140   5.137  4.3598  3.6805 -2.1192
  141OSM   H15T15473   3.760   0.966   5.098  0.7058 -1.2129  1.9472
  141OSM   C16S15474   3.909   1.109   5.045 -1.0244  0.0839  0.3766
  141OSM   H16S15475   3.987   1.031   5.034  0.3519  1.4134  0.4281
  141OSM   H16T15476   3.963   1.191   5.098  2.0557 -1.1741 -0.5843
  141OSM   C17S15477   3.862   1.146   4.906  1.3079 -0.1525 -0.1899
  141OSM   H17S15478   3.777   1.218   4.908  1.9153  0.6001 -0.8980
  141OSM   H17T15479   3.821   1.052   4.865  1.9419  0.7367 -3.0864
  141OSM   C18S15480   3.967   1.182   4.806 -0.3743  0.5723 -0.6246
  141OSM   H18S15481   4.069   1.204   4.845 -1.1331 -0.4901  2.1452
  141OSM   H18T15482   3.942   1.281   4.763 -0.3699  1.3405  1.0575
  141OSM   H18U15483   3.978   1.100   4.732  0.4839 -1.2877  1.4591
  141OSM    C1F15484   3.808   1.674   6.288 -0.0073 -0.1622  0.6289
  141OSM     OF15485   3.860   1.685   6.398  0.3912 -0.5892 -0.5981
  141OSM    C2F15486   3.882   1.734   6.168 -0.2445  0.0305  0.6662
  141OSM    H2F15487   3.949   1.810   6.214  1.4543 -0.3923 -0.9710
  141OSM    H2G15488   3.802   1.787   6.112 -1.1500 -0.9544  0.9931
  141OSM    C3F15489   3.968   1.627   6.087 -0.0632 -0.1147  0.3779
  141OSM    H3F15490   4.064   1.603   6.136 -0.8230 -0.5949  1.6892
  141OSM    H3G15491   3.984   1.677   5.989 -1.6397  0.7853  0.5367
  141OSM    C4F15492   3.906   1.494   6.057  0.1243 -0.0297 -0.4362
  141OSM    H4F15493   3.804   1.515   6.020 -0.1371 -0.8550 -0.2167
  141OSM    H4G15494   3.887   1.435   6.149 -3.0306  1.8688  0.2762
  141OSM    C5F15495   3.993   1.403   5.969 -1.3798 -0.4437  0.4190
  141OSM    H5F15496   4.095   1.399   6.012 -1.1111  0.9981  0.0001
  141OSM    H5G15497   3.995   1.461   5.874 -2.5358 -0.3856  0.4117
  141OSM    C6F15498   3.942   1.260   5.960  0.3182 -0.1531 -0.3093
  141OSM    H6F15499   3.839   1.275   5.924 -0.4616 -1.0650  1.3945
  141OSM    H6G15500   3.926   1.223   6.064 -0.3886 -1.4450 -0.8583
  141OSM    C7F15501   4.029   1.166   5.885 -0.3399  0.4535 -0.2024
  141OSM    H7F15502   3.990   1.063   5.898  1.0339 -0.7457 -4.1694
  141OSM    H7G15503   4.126   1.156   5.937  0.1437 -0.1580 -1.1883
  141OSM    C8F15504   4.054   1.208   5.742  0.4863 -0.0018  0.1515
  141OSM    H8F15505   4.095   1.122   5.685 -0.8665 -0.2593 -0.4695
  141OSM    H8G15506   4.129   1.290   5.748  0.9535 -0.2935 -1.2406
  141OSM    C9F15507   3.924   1.256   5.675 -0.3527 -0.3272 -0.3715
  141OSM    H9F15508   3.829   1.237   5.726 -0.0228  0.4289  0.5603
  141OSM   C10F15509   3.919   1.338   5.572 -0.5474  0.2874  1.1333
  141OSM   H10F15510   3.819   1.361   5.533 -0.4197 -1.3356 -0.2946
  141OSM   C11F15511   4.030   1.373   5.473  0.4106  0.7411  0.5734
  141OSM   H11F15512   4.078   1.285   5.425 -0.5373  0.5758 -0.0952
  141OSM   H11G15513   4.114   1.430   5.519  0.8200  1.3096 -0.8165
  141OSM   C12F15514   4.001   1.463   5.351 -0.0754 -0.0187  0.4101
  141OSM   H12F15515   3.976   1.567   5.380 -2.1608 -0.1152 -0.8729
  141OSM   H12G15516   3.921   1.420   5.287 -0.7012 -0.4074  1.4217
  141OSM   C13F15517   4.125   1.483   5.250 -0.2352  0.0997 -0.2995
  141OSM   H13F15518   4.154   1.384   5.208  1.6972  1.2546 -1.8340
  141OSM   H13G15519   4.208   1.519   5.314 -0.0597  0.7973 -0.9199
  141OSM   C14F15520   4.096   1.587   5.137  0.0609  0.7481  0.1484
  141OSM   H14F15521   4.191   1.610   5.085  0.6139 -1.7680 -0.0713
  141OSM   H14G15522   4.053   1.684   5.169 -2.1968  1.1904 -3.5671
  141OSM   C15F15523   4.003   1.527   5.029 -0.5438 -0.7505 -0.4024
  141OSM   H15F15524   3.909   1.491   5.076 -1.6703  1.4007 -0.8887
  141OSM   H15G15525   4.061   1.444   4.982  1.6145  0.3227  0.2394
  141OSM   C16F15526   3.986   1.639   4.921 -0.5285 -0.3405 -0.3114
  141OSM   H16F15527   4.087   1.654   4.878 -0.7569 -1.9652 -1.5254
  141OSM   H16G15528   3.950   1.732   4.970 -0.7591 -0.5764 -0.0250
  141OSM   C17F15529   3.885   1.584   4.819 -0.0691 -0.0911 -0.0945
  141OSM   H17F15530   3.797   1.541   4.871  0.0153 -0.1567 -0.0075
  141OSM   H17G15531   3.940   1.505   4.764 -0.6908  0.8103 -2.1230
  141OSM   C18F15532   3.841   1.691   4.712 -0.9564  0.1865  0.1199
  141OSM   H18F15533   3.927   1.692   4.641 -0.2552  0.2716  0.9548
  141OSM   H18G15534   3.849   1.795   4.749  0.7503 -0.5920  2.1720
  141OSM   H18H15535   3.753   1.660   4.651  0.0057 -2.3445 -0.1263
  142OSM      N15536   4.625   0.908   6.820 -0.4919  0.3570  0.1341
  142OSM    C1515537   4.674   1.043   6.777 -0.1116 -0.2644 -0.4578
  142OSM   H15A15538   4.781   1.037   6.770 -0.2380 -1.2979 -1.8732
  142OSM   H15B15539   4.650   1.126   6.842  1.9234  0.1244 -0.1543
  142OSM   H15C15540   4.642   1.059   6.675 -1.1119 -1.3758 -0.3460
  142OSM    C1415541   4.694   0.880   6.949  0.3971 -0.1595  0.1531
  142OSM   H14A15542   4.798   0.911   6.950  0.2550  0.3576  2.1937
  142OSM   H14B15543   4.678   0.778   6.979 -0.5148  0.1929  0.9080
  142OSM   H14C15544   4.649   0.948   7.019 -0.7476  1.1524 -1.7465
  142OSM    C1315545   4.478   0.913   6.849  0.4180 -0.2815  0.1966
  142OSM   H13A15546   4.434   0.818   6.874 -0.6697  0.0807 -0.2671
  142OSM   H13B15547   4.421   0.963   6.772  2.7861  0.4109 -1.1770
  142OSM   H13C15548   4.453   0.984   6.927  1.2445  0.6155 -0.3286
  142OSM    C1215549   4.665   0.808   6.712  0.2930 -0.5222  0.1315
  142OSM   H12A15550   4.767   0.831   6.683 -0.3559  1.0738 -1.0888
  142OSM   H12B15551   4.607   0.834   6.625 -1.0035 -1.8643  0.5707
  142OSM    C1115552   4.633   0.653   6.736 -0.0080 -0.3987  0.1269
  142OSM   H11A15553   4.663   0.597   6.645  2.0555 -0.6696  0.9117
  142OSM   H11B15554   4.524   0.638   6.745 -0.4912  3.0087  1.5301
  142OSM      P15555   4.852   0.560   6.840  0.0839 -0.0170  0.0317
  142OSM    O1315556   4.917   0.648   6.743 -0.9262  0.0230 -0.3475
  142OSM    O1415557   4.901   0.566   6.979  0.0643  0.0295 -0.1533
  142OSM    O1115558   4.857   0.403   6.791  0.3999 -1.2398  0.2270
  142OSM    O1215559   4.698   0.602   6.854  0.2931 -0.7318 -0.4180
  142OSM    C1S15560   4.845   0.365   6.659 -0.2178 -0.2849 -0.3889
  142OSM    H1S15561   4.827   0.454   6.594 -1.2232  0.0429  0.3170
  142OSM    H1T15562   4.765   0.290   6.644  0.0592 -0.5393 -0.6029
  142OSM     NF15563   4.966   0.242   6.480 -0.0394  0.0558 -0.2127
  142OSM    HNF15564   4.965   0.144   6.465 -0.2926 -0.1054  0.7594
  142OSM    C2S15565   4.977   0.294   6.615 -0.7272  0.0907 -0.3627
  142OSM    H2S15566   5.066   0.359   6.610  1.1971 -2.4725 -3.5636
  142OSM    C3S15567   5.011   0.179   6.717  0.6327 -0.1830  0.1507
  142OSM    H3S15568   4.922   0.113   6.726 -1.3086  2.1536 -0.7477
  142OSM     O315569   5.053   0.224   6.851  0.1726  0.3861 -0.3993
  142OSM    HO315570   4.985   0.288   6.874  0.6432  0.3169  1.3039
  142OSM    C4S15571   5.117   0.086   6.669  0.1514  0.1159  0.4867
  142OSM    H4S15572   5.087   0.033   6.577  2.4434  0.7537 -0.7032
  142OSM    C5S15573   5.235   0.061   6.724 -0.1076  0.3143 -0.5091
  142OSM    H5S15574   5.273   0.121   6.808  2.6771 -1.0777 -0.6556
  142OSM    C6S15575   5.344  -0.034   6.677 -0.3846  0.0752 -0.0650
  142OSM    H6S15576   5.369  -0.111   6.753 -2.6182  0.2740  0.9569
  142OSM    H6T15577   5.433   0.031   6.666 -2.1248  2.5614 -0.3982
  142OSM    C7S15578   5.312  -0.100   6.541 -0.0613 -0.2178  0.3467
  142OSM    H7S15579   5.209  -0.140   6.544 -0.9160  1.5861 -2.0804
  142OSM    H7T15580   5.384  -0.182   6.519  1.2945  0.8741  0.5166
  142OSM    C8S15581   5.325  -0.009   6.413 -0.3293  0.8169 -0.0879
  142OSM    H8S15582   5.432   0.009   6.391  0.0837 -0.2730  0.9003
  142OSM    H8T15583   5.278   0.090   6.427  1.9964  1.5948  3.3088
  142OSM    C9S15584   5.262  -0.069   6.294 -0.3977 -0.4495  0.3897
  142OSM    H9S15585   5.155  -0.083   6.321 -0.7720 -0.4927 -1.0539
  142OSM    H9T15586   5.312  -0.166   6.272  0.4990  0.0183  0.3131
  142OSM   C10S15587   5.265   0.022   6.172 -0.7454 -0.0683 -0.4044
  142OSM   H10S15588   5.370   0.042   6.142 -0.8935 -1.2002 -1.7887
  142OSM   H10T15589   5.215   0.118   6.195  1.7245  1.6373 -1.6766
  142OSM   C11S15590   5.199  -0.036   6.049 -0.6446  0.2551 -0.5815
  142OSM   H11S15591   5.098  -0.068   6.081 -1.1835  2.6356  0.2996
  142OSM   H11T15592   5.252  -0.119   5.998  0.2612  0.2252  0.3653
  142OSM   C12S15593   5.193   0.073   5.944 -0.5250 -0.1166  0.4465
  142OSM   H12S15594   5.300   0.093   5.925 -0.5930  0.8300  1.0166
  142OSM   H12T15595   5.153   0.173   5.971  2.3306  1.1740  0.2684
  142OSM   C13S15596   5.132   0.027   5.811 -0.1840  0.2450  0.0753
  142OSM   H13S15597   5.024   0.023   5.834  0.0881 -1.2882  1.3060
  142OSM   H13T15598   5.159  -0.077   5.782  1.0795  0.4723  0.3539
  142OSM   C14S15599   5.172   0.114   5.699 -0.3036 -0.2486  0.4206
  142OSM   H14S15600   5.283   0.102   5.692 -0.0046  2.3603 -5.5140
  142OSM   H14T15601   5.147   0.222   5.700 -1.6206 -0.4731 -2.1595
  142OSM   C15S15602   5.111   0.065   5.561 -0.1272  0.3745  0.1929
  142OSM   H15S15603   5.000   0.059   5.566 -0.1047 -2.9901 -1.2395
  142OSM   H15T15604   5.147  -0.038   5.545 -0.2458  0.3565  0.0334
  142OSM   C16S15605   5.154   0.152   5.438  0.2873  0.8170  0.2504
  142OSM   H16S15606   5.260   0.125   5.424 -0.8051 -3.1826 -1.8889
  142OSM   H16T15607   5.144   0.262   5.450 -1.5871  0.6793  0.2825
  142OSM   C17S15608   5.080   0.114   5.303 -0.2632  0.4836 -0.3159
  142OSM   H17S15609   4.971   0.130   5.319 -0.4229  0.4326 -1.3145
  142OSM   H17T15610   5.100   0.007   5.281  1.0607  0.9308 -1.4309
  142OSM   C18S15611   5.124   0.187   5.187 -0.3526 -0.1573 -0.1278
  142OSM   H18S15612   5.231   0.175   5.160 -0.5497  0.5677 -1.2849
  142OSM   H18T15613   5.107   0.296   5.200  0.1730  0.0195 -0.8656
  142OSM   H18U15614   5.067   0.158   5.096  1.8349  1.2271 -2.0641
  142OSM    C1F15615   4.955   0.323   6.370  0.4290  0.7335 -0.0091
  142OSM     OF15616   4.991   0.441   6.364 -0.4382 -0.5207 -0.3186
  142OSM    C2F15617   4.902   0.251   6.254 -0.2518 -0.1568  0.2537
  142OSM    H2F15618   4.791   0.253   6.257 -0.2543  0.0287  0.0499
  142OSM    H2G15619   4.940   0.148   6.264  0.7408 -0.1331 -2.5648
  142OSM    C3F15620   4.948   0.319   6.120  0.0169  0.3712 -0.6942
  142OSM    H3F15621   5.058   0.330   6.112 -0.0022 -0.3821 -2.4997
  142OSM    H3G15622   4.911   0.423   6.127  1.8929  1.0169  0.3898
  142OSM    C4F15623   4.885   0.249   5.995 -0.2111 -0.3143 -0.8405
  142OSM    H4F15624   4.918   0.143   6.001  0.4779 -0.1988 -2.2888
  142OSM    H4G15625   4.944   0.279   5.906 -1.4747  3.0187 -0.7265
  142OSM    C5F15626   4.737   0.259   5.967 -0.1403 -0.5240  0.0900
  142OSM    H5F15627   4.716   0.368   5.970 -2.8595 -0.9889  0.1880
  142OSM    H5G15628   4.683   0.205   6.047  1.2346  0.1080  1.4944
  142OSM    C6F15629   4.707   0.202   5.829  0.0011 -0.2704  0.6307
  142OSM    H6F15630   4.607   0.155   5.819  0.8079 -1.7455 -1.0336
  142OSM    H6G15631   4.773   0.114   5.811  0.5429  0.8322 -4.0918
  142OSM    C7F15632   4.725   0.305   5.725  0.5887 -0.7955  0.1445
  142OSM    H7F15633   4.831   0.335   5.716  0.6849 -0.6535  1.6275
  142OSM    H7G15634   4.669   0.401   5.736  0.5392 -0.4053 -2.6640
  142OSM    C8F15635   4.674   0.259   5.586  0.4412 -0.3966 -0.2477
  142OSM    H8F15636   4.735   0.170   5.558  2.4347  0.7448  0.2631
  142OSM    H8G15637   4.700   0.345   5.520 -0.4962  0.4669  0.4774
  142OSM    C9F15638   4.526   0.233   5.559  0.1080 -0.3721  0.0456
  142OSM    H9F15639   4.455   0.234   5.643 -0.6828 -2.7685 -0.4968
  142OSM   C10F15640   4.471   0.218   5.437  0.3432  0.0073 -0.5362
  142OSM   H10F15641   4.361   0.221   5.434  0.2278 -0.5379  1.6142
  142OSM   C11F15642   4.552   0.199   5.312 -0.1739 -0.1298 -0.2171
  142OSM   H11F15643   4.627   0.118   5.328 -0.5829 -0.6130 -0.7110
  142OSM   H11G15644   4.603   0.294   5.283  0.7884 -1.2373 -2.3871
  142OSM   C12F15645   4.471   0.158   5.189  0.3250  0.1780  0.0073
  142OSM   H12F15646   4.381   0.223   5.179  0.4338  1.1240  3.5699
  142OSM   H12G15647   4.432   0.056   5.209  1.3212 -0.3779 -0.8293
  142OSM   C13F15648   4.558   0.167   5.062  0.2603  0.0543 -0.2106
  142OSM   H13F15649   4.591   0.273   5.050 -0.7172  0.3796 -0.1527
  142OSM   H13G15650   4.492   0.154   4.974 -1.9077 -2.5008  1.6250
  142OSM   C14F15651   4.688   0.085   5.057  0.5542 -0.1078 -0.7281
  142OSM   H14F15652   4.648  -0.017   5.040 -0.8188  0.2603  0.1000
  142OSM   H14G15653   4.735   0.084   5.158 -2.0817  1.6934  0.6402
  142OSM   C15F15654   4.782   0.115   4.942 -0.5314 -0.2326 -0.0495
  142OSM   H15F15655   4.872   0.055   4.968  0.8966  1.1754 -1.5089
  142OSM   H15G15656   4.797   0.225   4.941 -3.2236  0.2634  1.9202
  142OSM   C16F15657   4.726   0.068   4.810 -0.4389 -0.4071  0.0860
  142OSM   H16F15658   4.671   0.143   4.749 -3.8107 -3.2747 -0.7803
  142OSM   H16G15659   4.655  -0.016   4.823 -1.2123  0.4798  1.9509
  142OSM   C17F15660   4.840   0.012   4.724  0.3394 -0.1034  0.6136
  142OSM   H17F15661   4.879  -0.076   4.780 -2.4310 -1.6323  0.2954
  142OSM   H17G15662   4.921   0.087   4.714 -1.8368  2.3296  0.3090
  142OSM   C18F15663   4.798  -0.034   4.583  0.8696  0.2137 -0.2532
  142OSM   H18F15664   4.880  -0.082   4.526  0.4423 -1.1356  0.2235
  142OSM   H18G15665   4.761   0.046   4.515 -2.7486  2.4235  3.7570
  142OSM   H18H15666   4.716  -0.110   4.584 -0.2318  1.3181 -1.5018
  143OSM      N15667   4.883   3.880   7.210  0.1870  0.4698  0.5575
  143OSM    C1515668   4.894   3.893   7.356 -0.2698  0.5603  0.0799
  143OSM   H15A15669   4.855   3.993   7.367 -1.5518  0.1589 -0.6637
  143OSM   H15B15670   4.999   3.887   7.381 -0.3349 -2.0045 -0.0409
  143OSM   H15C15671   4.836   3.822   7.413 -0.0471  0.7787  0.5888
  143OSM    C1415672   4.743   3.870   7.170 -0.0033 -0.2269 -0.7141
  143OSM   H14A15673   4.695   3.960   7.205  0.9507  0.0836 -0.1651
  143OSM   H14B15674   4.684   3.789   7.212  0.8792 -0.3409  0.3520
  143OSM   H14C15675   4.723   3.868   7.064 -1.9529 -0.3261 -0.3969
  143OSM    C1315676   4.954   4.004   7.156  0.2117  0.2308  0.1554
  143OSM   H13A15677   4.954   4.014   7.048 -3.1605  3.4190  0.2751
  143OSM   H13B15678   5.054   4.002   7.198 -0.5594 -0.1615  2.0787
  143OSM   H13C15679   4.913   4.103   7.169  1.1563  0.7587 -0.7037
  143OSM    C1215680   4.953   3.758   7.154  0.7287 -0.8454 -0.0060
  143OSM   H12A15681   4.922   3.673   7.213 -1.4711  2.0440  3.4119
  143OSM   H12B15682   5.057   3.783   7.166  0.5601  0.8988 -1.6498
  143OSM    C1115683   4.936   3.719   7.007  0.0749 -0.2602 -0.0182
  143OSM   H11A15684   4.827   3.705   6.986 -0.6136  1.9588  1.6348
  143OSM   H11B15685   4.990   3.625   6.985  0.9997  0.3562 -0.4642
  143OSM      P15686   5.132   3.848   6.883  0.0376 -0.1557 -0.4257
  143OSM    O1315687   5.136   3.981   6.831  0.3205  0.0051  0.1396
  143OSM    O1415688   5.215   3.814   7.001 -0.3573 -0.3668 -0.2250
  143OSM    O1115689   5.168   3.744   6.766 -0.1097  0.3439  0.1436
  143OSM    O1215690   4.976   3.817   6.913 -0.4091 -0.4294  0.0667
  143OSM    C1S15691   5.128   3.777   6.627  0.2252  0.4781 -0.3201
  143OSM    H1S15692   5.048   3.854   6.622 -0.9983 -0.7956 -1.1291
  143OSM    H1T15693   5.098   3.692   6.563  1.4942 -0.2330 -0.0068
  143OSM     NF15694   5.193   3.891   6.420 -0.5362 -0.0731  0.5087
  143OSM    HNF15695   5.189   3.824   6.347  2.3225  1.5574 -1.3149
  143OSM    C2S15696   5.244   3.838   6.544 -0.2146 -0.4826  0.0546
  143OSM    H2S15697   5.297   3.915   6.604 -1.0895  1.0003 -1.0297
  143OSM    C3S15698   5.348   3.729   6.519  0.2046 -0.4368 -0.0145
  143OSM    H3S15699   5.296   3.644   6.471 -0.9997  0.4743 -0.3611
  143OSM     O315700   5.393   3.659   6.639  0.0032  0.6454 -0.2342
  143OSM    HO315701   5.349   3.703   6.712 -2.2638 -0.7541 -0.6643
  143OSM    C4S15702   5.473   3.784   6.454 -0.1789 -0.8409  0.2864
  143OSM    H4S15703   5.516   3.867   6.512  2.5341 -0.2405 -2.3466
  143OSM    C5S15704   5.529   3.745   6.338 -0.0687  0.2518  0.4547
  143OSM    H5S15705   5.476   3.668   6.279 -0.2711  1.0812 -0.4705
  143OSM    C6S15706   5.650   3.812   6.280  0.0964  0.5468 -0.2375
  143OSM    H6S15707   5.738   3.744   6.294  0.4566  0.6739 -1.7737
  143OSM    H6T15708   5.674   3.912   6.322 -0.4827  0.4767  0.2800
  143OSM    C7S15709   5.646   3.811   6.121 -0.0734 -0.1659 -0.1015
  143OSM    H7S15710   5.571   3.891   6.102  1.4956  1.3562 -0.1386
  143OSM    H7T15711   5.601   3.717   6.084  1.3448 -0.9972  0.2232
  143OSM    C8S15712   5.771   3.846   6.040 -0.1185  0.2672  0.3973
  143OSM    H8S15713   5.845   3.766   6.061  0.6985  1.0905  0.7266
  143OSM    H8T15714   5.824   3.941   6.063 -0.0822  0.6305 -1.0959
  143OSM    C9S15715   5.750   3.849   5.888  0.5109 -0.2504  0.4321
  143OSM    H9S15716   5.704   3.943   5.853  0.3351 -0.1994  0.7962
  143OSM    H9T15717   5.684   3.767   5.853  1.1997 -0.8497  0.5140
  143OSM   C10S15718   5.874   3.821   5.805 -0.1227  0.7657  0.7373
  143OSM   H10S15719   5.912   3.720   5.831 -0.2726  0.3195 -0.7391
  143OSM   H10T15720   5.947   3.902   5.826  0.8933  0.9335 -2.8172
  143OSM   C11S15721   5.852   3.829   5.651  0.6598  0.4377 -0.4367
  143OSM   H11S15722   5.860   3.938   5.632  0.0013  0.6689  0.5438
  143OSM   H11T15723   5.750   3.799   5.621  1.5614 -0.4770 -2.8318
  143OSM   C12S15724   5.957   3.749   5.580 -0.6658 -0.1799 -0.3196
  143OSM   H12S15725   5.951   3.648   5.625 -4.5892  0.0676  0.0738
  143OSM   H12T15726   6.059   3.787   5.601 -0.5661 -0.2487 -0.6692
  143OSM   C13S15727   5.936   3.737   5.434  0.1446  0.6342  0.4896
  143OSM   H13S15728   5.830   3.753   5.403  0.5348  1.0791 -0.6845
  143OSM   H13T15729   5.978   3.647   5.383 -0.6846  1.5787 -2.0156
  143OSM   C14S15730   6.004   3.856   5.367  0.1684 -0.4099  0.1444
  143OSM   H14S15731   6.112   3.840   5.385  0.4167  0.2174 -0.7469
  143OSM   H14T15732   5.973   3.954   5.410  2.3126  0.6426 -0.5918
  143OSM   C15S15733   5.974   3.860   5.216  0.2309  0.6012 -0.7943
  143OSM   H15S15734   5.867   3.886   5.200 -0.2300  0.3629  1.5481
  143OSM   H15T15735   5.987   3.759   5.171  0.6456 -0.1978  1.0417
  143OSM   C16S15736   6.056   3.963   5.141  0.0198 -0.0965 -0.3484
  143OSM   H16S15737   6.161   3.935   5.165 -0.7198 -1.8324  1.0048
  143OSM   H16T15738   6.035   4.067   5.173  2.5468  0.7008 -1.0438
  143OSM   C17S15739   6.044   3.937   4.989 -0.4080 -0.5138  0.4983
  143OSM   H17S15740   5.940   3.956   4.953  0.1934  1.5721 -0.2939
  143OSM   H17T15741   6.071   3.832   4.965 -0.1997 -0.1016 -1.2092
  143OSM   C18S15742   6.121   4.035   4.896 -0.1257 -0.7623  0.0855
  143OSM   H18S15743   6.087   4.044   4.791 -1.8961 -0.0190  0.6852
  143OSM   H18T15744   6.226   3.999   4.887 -0.1882 -1.2733  1.1983
  143OSM   H18U15745   6.125   4.138   4.937  0.3813 -0.0455 -1.6793
  143OSM    C1F15746   5.115   4.003   6.411  0.6653  0.5538 -0.2223
  143OSM     OF15747   5.095   4.079   6.501  0.0560  0.3662  0.0024
  143OSM    C2F15748   5.051   4.020   6.273 -0.4871 -0.1695  0.5883
  143OSM    H2F15749   5.031   3.918   6.233 -0.5197 -0.4547  1.3087
  143OSM    H2G15750   5.124   4.074   6.209  0.4953 -0.1413  1.6920
  143OSM    C3F15751   4.911   4.088   6.283  0.5419 -0.1419 -0.1030
  143OSM    H3F15752   4.920   4.196   6.305  1.2502 -0.1253 -0.4282
  143OSM    H3G15753   4.840   4.049   6.359 -0.7002  1.4974 -0.3801
  143OSM    C4F15754   4.830   4.071   6.151  0.1132 -0.1021 -0.9420
  143OSM    H4F15755   4.726   4.107   6.167  1.0079  2.5910 -0.5484
  143OSM    H4G15756   4.828   3.963   6.129  2.8187 -0.4393  0.0799
  143OSM    C5F15757   4.883   4.144   6.033  0.1290 -0.1787  0.2000
  143OSM    H5F15758   4.829   4.100   5.947  1.1571 -1.0378 -0.0292
  143OSM    H5G15759   4.990   4.116   6.023 -0.3910 -2.7088  1.0505
  143OSM    C6F15760   4.853   4.298   6.034 -0.6977 -0.7469  0.2525
  143OSM    H6F15761   4.904   4.358   6.112 -1.9865  1.8854 -0.7938
  143OSM    H6G15762   4.743   4.305   6.049 -0.8564 -0.3920 -0.9843
  143OSM    C7F15763   4.873   4.360   5.895  0.3156  0.3112  0.9683
  143OSM    H7F15764   4.851   4.468   5.880 -0.1728  0.1520  0.4935
  143OSM    H7G15765   4.801   4.311   5.826 -2.0336  1.8100  2.2360
  143OSM    C8F15766   5.012   4.330   5.837 -0.1678  0.4402 -0.2248
  143OSM    H8F15767   5.048   4.226   5.851  2.2331  1.0285 -1.5330
  143OSM    H8G15768   5.078   4.400   5.892  0.1660 -0.7988  1.0103
  143OSM    C9F15769   5.037   4.351   5.693 -0.1755 -0.5044 -0.4170
  143OSM    H9F15770   5.091   4.445   5.679  0.1799  0.1217  3.8661
  143OSM   C10F15771   5.022   4.259   5.593 -0.1281 -0.6947  0.3614
  143OSM   H10F15772   5.059   4.285   5.493 -2.1811  2.1823  0.2306
  143OSM   C11F15773   4.973   4.118   5.608 -0.0271  0.4218  0.2208
  143OSM   H11F15774   4.966   4.078   5.711 -0.6286 -1.1193 -0.3749
  143OSM   H11G15775   5.036   4.043   5.554 -0.4578 -0.9383  1.5383
  143OSM   C12F15776   4.837   4.116   5.536  0.3976  0.0316  0.0733
  143OSM   H12F15777   4.758   4.168   5.594  1.3351  0.3475  1.0976
  143OSM   H12G15778   4.811   4.008   5.541 -0.5712  0.0525 -2.7028
  143OSM   C13F15779   4.839   4.152   5.385  0.5330 -0.4000 -0.8160
  143OSM   H13F15780   4.925   4.101   5.337  1.1760  0.2812 -0.4120
  143OSM   H13G15781   4.854   4.261   5.372 -0.6792 -0.2969 -1.5111
  143OSM   C14F15782   4.714   4.107   5.310 -0.4404  0.2908 -0.2244
  143OSM   H14F15783   4.629   4.154   5.362 -0.6273  0.9435 -1.0854
  143OSM   H14G15784   4.715   3.996   5.319 -1.4162  0.3910  1.2684
  143OSM   C15F15785   4.724   4.142   5.160  0.4946  0.1930 -0.5437
  143OSM   H15F15786   4.822   4.103   5.127 -0.4085 -1.5918 -1.2851
  143OSM   H15G15787   4.729   4.253   5.152 -0.7440  0.1787 -2.0702
  143OSM   C16F15788   4.607   4.091   5.071  0.0798  0.1006 -0.2063
  143OSM   H16F15789   4.515   4.131   5.119  0.5091  3.3375 -1.7990
  143OSM   H16G15790   4.603   3.980   5.069  0.6342  0.0805 -1.1479
  143OSM   C17F15791   4.602   4.138   4.924 -0.1789  0.3999 -0.0308
  143OSM   H17F15792   4.663   4.080   4.851 -0.5408  0.6773 -0.5637
  143OSM   H17G15793   4.628   4.245   4.906 -1.0957  0.6506  0.0917
  143OSM   C18F15794   4.458   4.121   4.875  0.3422  0.5005 -0.4191
  143OSM   H18F15795   4.437   4.132   4.767 -0.8789 -2.1806 -0.5381
  143OSM   H18G15796   4.391   4.188   4.934  0.3234 -0.3242  0.5285
  143OSM   H18H15797   4.438   4.013   4.890 -1.8542  0.5719 -2.3176
  144OSM      N15798   4.948   3.107   6.674 -0.5430 -0.8332 -0.2164
  144OSM    C1515799   4.810   3.089   6.623 -0.1528 -0.0955 -0.0031
  144OSM   H15A15800   4.803   3.065   6.518 -0.2069 -1.0852  0.2204
  144OSM   H15B15801   4.740   3.167   6.650  1.8605  1.9246 -0.2777
  144OSM   H15C15802   4.763   3.013   6.683 -1.2305 -0.1933 -0.9313
  144OSM    C1415803   4.999   3.244   6.633 -0.2773  0.0276 -0.1455
  144OSM   H14A15804   5.099   3.255   6.670 -0.7143 -0.5723  1.2743
  144OSM   H14B15805   4.943   3.333   6.656 -0.1611  0.6452 -2.0864
  144OSM   H14C15806   5.001   3.246   6.525 -0.6880 -2.6497 -0.2796
  144OSM    C1315807   4.962   3.100   6.818  0.6870  0.3345 -0.1628
  144OSM   H13A15808   5.065   3.104   6.850  0.8880  1.5306 -0.8893
  144OSM   H13B15809   4.921   3.004   6.845  2.2854 -0.4102 -0.3011
  144OSM   H13C15810   4.900   3.174   6.865  1.5427  2.1079 -1.6921
  144OSM    C1215811   5.044   3.007   6.632 -1.1707 -0.1401 -0.2994
  144OSM   H12A15812   5.037   2.925   6.703 -1.9396  0.5587  0.4591
  144OSM   H12B15813   5.139   3.053   6.654 -1.8462  0.7899  0.8043
  144OSM    C1115814   5.050   2.964   6.484 -0.3617 -0.0815  0.0720
  144OSM   H11A15815   5.144   2.913   6.455  0.0191  0.5546  0.1752
  144OSM   H11B15816   5.055   3.058   6.426 -0.6641 -0.3995 -0.4766
  144OSM      P15817   4.923   2.742   6.501 -0.0495 -0.1074 -0.0227
  144OSM    O1315818   5.002   2.731   6.629  0.6113  0.3095  0.3403
  144OSM    O1415819   4.775   2.724   6.503  0.1821 -0.0738  0.2779
  144OSM    O1115820   4.974   2.650   6.388 -0.0637  0.3794 -0.2019
  144OSM    O1215821   4.941   2.889   6.435 -0.0890  0.3981 -0.3021
  144OSM    C1S15822   4.888   2.622   6.276 -0.4024 -0.1565 -0.2693
  144OSM    H1S15823   4.784   2.657   6.293  0.2207  1.1809  0.9353
  144OSM    H1T15824   4.876   2.512   6.267  1.1775 -0.4389  0.7279
  144OSM     NF15825   4.841   2.612   6.048  0.7082 -0.1389 -0.5057
  144OSM    HNF15826   4.850   2.532   5.990 -0.0249  0.2519 -1.1703
  144OSM    C2S15827   4.948   2.650   6.137 -0.7677  0.3322  0.1203
  144OSM    H2S15828   4.961   2.760   6.132 -0.9798  0.3342 -0.3957
  144OSM    C3S15829   5.086   2.578   6.129  0.9483 -0.0508 -0.4521
  144OSM    H3S15830   5.067   2.470   6.144  1.0479 -0.0562 -0.3650
  144OSM     O315831   5.192   2.620   6.214  0.0332  0.7081 -0.2887
  144OSM    HO315832   5.151   2.639   6.299  0.1552 -2.5533  0.6283
  144OSM    C4S15833   5.127   2.602   5.997  0.1800 -0.9060  0.4063
  144OSM    H4S15834   5.155   2.708   5.990  0.7184 -1.1141 -0.8176
  144OSM    C5S15835   5.145   2.517   5.895 -0.4072 -0.4370  0.3322
  144OSM    H5S15836   5.141   2.408   5.903 -1.7301 -0.4033  0.3139
  144OSM    C6S15837   5.205   2.560   5.763  0.6219 -0.3803 -0.4780
  144OSM    H6S15838   5.309   2.526   5.743  1.4029  1.1688  0.7554
  144OSM    H6T15839   5.219   2.669   5.750 -0.1123 -0.0205  1.4453
  144OSM    C7S15840   5.119   2.518   5.644 -0.2065  0.7881 -0.0032
  144OSM    H7S15841   5.012   2.512   5.673 -0.2682  0.2884 -0.3195
  144OSM    H7T15842   5.138   2.409   5.629 -0.1737  0.4570  2.0439
  144OSM    C8S15843   5.153   2.596   5.517 -0.8457 -0.0753 -0.0099
  144OSM    H8S15844   5.263   2.601   5.508 -0.5529 -1.3339  2.1797
  144OSM    H8T15845   5.120   2.702   5.524  0.0122  0.1411  1.0136
  144OSM    C9S15846   5.101   2.531   5.387 -0.2393  0.5798 -0.2180
  144OSM    H9S15847   4.991   2.516   5.386 -0.1520 -0.0341 -1.0205
  144OSM    H9T15848   5.141   2.428   5.379 -1.6643 -0.1174  1.0377
  144OSM   C10S15849   5.125   2.615   5.261 -0.0691  0.8009  0.3028
  144OSM   H10S15850   5.060   2.563   5.187 -1.0055  0.6400  1.2149
  144OSM   H10T15851   5.223   2.614   5.208 -0.3403  2.3442 -0.3078
  144OSM   C11S15852   5.056   2.752   5.264  0.5510 -0.0574 -0.3471
  144OSM   H11S15853   5.117   2.830   5.313  1.3627 -0.9610  0.1090
  144OSM   H11T15854   4.959   2.752   5.319  2.0341  1.2364  2.4419
  144OSM   C12S15855   5.037   2.804   5.122 -0.2605 -0.6603 -0.1835
  144OSM   H12S15856   5.130   2.780   5.067 -1.5167  2.0900 -3.9266
  144OSM   H12T15857   5.043   2.915   5.123 -2.0361 -0.5348 -0.0490
  144OSM   C13S15858   4.911   2.751   5.052 -0.7059  0.6122  1.0724
  144OSM   H13S15859   4.820   2.792   5.100 -1.8955 -1.3368  0.5906
  144OSM   H13T15860   4.908   2.640   5.060  2.9705  0.4067  1.6077
  144OSM   C14S15861   4.918   2.789   4.900  0.1550 -0.6298 -0.3160
  144OSM   H14S15862   4.994   2.730   4.844  0.8969  0.8726 -0.9382
  144OSM   H14T15863   4.937   2.898   4.902  0.5018 -0.6730 -0.9730
  144OSM   C15S15864   4.775   2.770   4.833 -0.7140 -0.8023 -0.2548
  144OSM   H15S15865   4.701   2.835   4.885  1.3302  0.3588  1.4172
  144OSM   H15T15866   4.752   2.662   4.842 -0.5627 -0.9219 -1.1662
  144OSM   C16S15867   4.780   2.806   4.688  0.6936 -0.5109 -0.3847
  144OSM   H16S15868   4.858   2.736   4.649  1.1422 -0.6574  0.7346
  144OSM   H16T15869   4.813   2.911   4.679  2.0350 -0.8016  0.7816
  144OSM   C17S15870   4.644   2.787   4.608 -0.2432  0.4106 -0.3433
  144OSM   H17S15871   4.562   2.770   4.681 -0.0783  1.6005  0.1537
  144OSM   H17T15872   4.656   2.699   4.541 -2.2605 -0.1681 -0.0217
  144OSM   C18S15873   4.609   2.907   4.514 -0.0805  0.3454 -0.5764
  144OSM   H18S15874   4.534   2.868   4.442 -1.1052  2.1316 -0.5070
  144OSM   H18T15875   4.708   2.937   4.472 -0.0291  0.8784 -0.0781
  144OSM   H18U15876   4.557   2.995   4.557  1.3026  2.5277 -3.0461
  144OSM    C1F15877   4.726   2.684   6.035 -0.3378  0.0671 -0.0095
  144OSM     OF15878   4.716   2.790   6.096 -0.2533  0.2251 -0.5238
  144OSM    C2F15879   4.621   2.627   5.950  0.4925 -0.3467  0.3195
  144OSM    H2F15880   4.524   2.645   6.000  0.4349  2.5037 -0.6577
  144OSM    H2G15881   4.630   2.519   5.924  1.2560 -0.0168 -0.8642
  144OSM    C3F15882   4.612   2.703   5.815 -0.5700  0.2605  0.2987
  144OSM    H3F15883   4.572   2.805   5.835  1.0816  0.8730  0.6192
  144OSM    H3G15884   4.535   2.651   5.754 -1.8341  2.5922 -0.1963
  144OSM    C4F15885   4.746   2.726   5.744 -0.4050  0.0653 -0.1325
  144OSM    H4F15886   4.801   2.633   5.717  1.1554  1.4038 -1.7453
  144OSM    H4G15887   4.810   2.796   5.802 -2.4225  3.1815 -1.4404
  144OSM    C5F15888   4.732   2.805   5.616 -0.5543  0.1505  0.2726
  144OSM    H5F15889   4.833   2.836   5.584  0.2254 -1.2176  1.2968
  144OSM    H5G15890   4.665   2.894   5.617 -2.5859 -1.2771 -0.3079
  144OSM    C6F15891   4.677   2.720   5.494 -0.5478 -0.3894 -0.0863
  144OSM    H6F15892   4.581   2.670   5.519 -0.1571 -0.0481  2.3874
  144OSM    H6G15893   4.750   2.645   5.455  0.3031  0.1061  0.5250
  144OSM    C7F15894   4.647   2.805   5.368  0.0756  0.3726 -0.1013
  144OSM    H7F15895   4.741   2.843   5.324  0.7151  1.7514  2.2568
  144OSM    H7G15896   4.587   2.894   5.395 -0.7695 -0.4547  0.8597
  144OSM    C8F15897   4.555   2.728   5.270  0.4109 -0.1113 -0.5083
  144OSM    H8F15898   4.552   2.809   5.194  2.2570 -0.4620 -1.0068
  144OSM    H8G15899   4.457   2.718   5.321  0.7736  0.5611  0.3334
  144OSM    C9F15900   4.610   2.600   5.207 -1.0236 -0.2402 -0.1608
  144OSM    H9F15901   4.715   2.584   5.236 -0.1943  1.2255 -2.1468
  144OSM   C10F15902   4.562   2.544   5.095 -0.1009 -1.0839 -0.1473
  144OSM   H10F15903   4.621   2.459   5.058  2.3581  0.0877  0.8975
  144OSM   C11F15904   4.437   2.590   5.024  0.0243 -0.0994 -0.4691
  144OSM   H11F15905   4.412   2.697   5.043  2.4374  0.8273 -2.1273
  144OSM   H11G15906   4.346   2.538   5.061  0.6817 -0.9673 -0.0446
  144OSM   C12F15907   4.442   2.574   4.872 -0.4872  0.8738 -0.3338
  144OSM   H12F15908   4.524   2.505   4.845 -0.7956  0.4768 -0.2684
  144OSM   H12G15909   4.473   2.672   4.831  0.0499  0.7723 -0.1790
  144OSM   C13F15910   4.317   2.550   4.800  0.0064 -0.2019 -0.3828
  144OSM   H13F15911   4.257   2.642   4.819 -0.0327 -0.0707 -1.1033
  144OSM   H13G15912   4.263   2.466   4.849  1.0534 -0.0977  1.0158
  144OSM   C14F15913   4.328   2.546   4.643 -0.1170 -0.4590  0.0009
  144OSM   H14F15914   4.356   2.644   4.599 -2.1321 -1.1346 -3.1117
  144OSM   H14G15915   4.225   2.535   4.603 -0.2560  1.2890 -0.2146
  144OSM   C15F15916   4.430   2.451   4.590  0.0203  0.0431  0.7801
  144OSM   H15F15917   4.391   2.353   4.627 -1.4457  1.1348  2.2676
  144OSM   H15G15918   4.533   2.459   4.630  0.7072  0.1905 -0.9225
  144OSM   C16F15919   4.443   2.454   4.437 -0.6357  0.0364  0.1070
  144OSM   H16F15920   4.541   2.493   4.401 -0.6265 -0.5704 -0.5557
  144OSM   H16G15921   4.376   2.530   4.391 -1.2184 -0.1161  0.6902
  144OSM   C17F15922   4.419   2.317   4.367  0.5423 -0.2966  0.5692
  144OSM   H17F15923   4.329   2.263   4.403 -0.1248 -1.0960 -2.0230
  144OSM   H17G15924   4.506   2.248   4.380  0.8047 -0.5021 -1.7509
  144OSM   C18F15925   4.401   2.340   4.218  1.1533  0.0089 -0.2476
  144OSM   H18F15926   4.374   2.244   4.168  2.4275 -0.5242  0.0472
  144OSM   H18G15927   4.498   2.382   4.186  0.5451  2.4517  0.8839
  144OSM   H18H15928   4.333   2.421   4.183  0.7211 -0.2256  0.0412
  145OSM      N15929   6.077   6.038   7.011  0.0528 -0.0944  0.2809
  145OSM    C1515930   6.210   6.083   6.971 -0.6948  0.0011  0.7372
  145OSM   H15A15931   6.286   6.066   7.046 -0.9285 -2.4073  0.5143
  145OSM   H15B15932   6.211   6.183   6.930 -2.1622 -0.3621 -0.2504
  145OSM   H15C15933   6.249   6.023   6.890  0.7312  0.7578  0.8342
  145OSM    C1415934   6.053   6.106   7.142 -0.2964  0.8594  0.2574
  145OSM   H14A15935   5.986   6.055   7.209 -1.5000 -0.1379 -1.6337
  145OSM   H14B15936   6.006   6.203   7.134 -3.2780 -0.2691  2.4111
  145OSM   H14C15937   6.145   6.122   7.197 -0.0428  0.8019 -0.1439
  145OSM    C1315938   5.965   6.066   6.912 -0.2612 -0.3820 -0.2510
  145OSM   H13A15939   5.974   6.164   6.867  3.1388 -0.0788  0.7329
  145OSM   H13B15940   5.871   6.042   6.959  0.7769 -1.9746  1.1445
  145OSM   H13C15941   5.981   5.990   6.837 -1.4138 -0.2327 -0.6688
  145OSM    C1215942   6.100   5.888   7.027  0.3479  0.3018  0.6536
  145OSM   H12A15943   6.025   5.847   7.093 -0.6272  2.1562  0.7632
  145OSM   H12B15944   6.192   5.877   7.082 -0.7488 -1.9793  2.2108
  145OSM    C1115945   6.108   5.801   6.901  0.1738  0.5317  0.4538
  145OSM   H11A15946   6.136   5.699   6.937 -2.4769 -0.1042  0.9236
  145OSM   H11B15947   6.187   5.832   6.830 -0.8028  0.0041 -0.8946
  145OSM      P15948   5.877   5.685   6.871 -0.1689  0.0548 -0.0468
  145OSM    O1315949   5.879   5.657   7.019 -0.8023  0.0936 -0.1790
  145OSM    O1415950   5.758   5.733   6.815  0.0119 -0.3306 -0.1218
  145OSM    O1115951   5.921   5.561   6.783  0.0709  0.0559 -0.0863
  145OSM    O1215952   5.986   5.795   6.829  0.3610 -0.6468 -0.3819
  145OSM    C1S15953   5.904   5.548   6.647  0.8258 -0.1720 -0.5638
  145OSM    H1S15954   5.864   5.639   6.598 -0.0282 -1.3643 -2.1650
  145OSM    H1T15955   5.845   5.456   6.628  0.1782  0.3540 -1.1254
  145OSM     NF15956   6.021   5.529   6.415 -0.3506  0.0428 -0.4203
  145OSM    HNF15957   6.016   5.439   6.372 -1.7766 -0.0504 -0.0941
  145OSM    C2S15958   6.041   5.529   6.563  0.0526 -0.5870  0.0309
  145OSM    H2S15959   6.102   5.613   6.602 -0.2878 -1.1039  1.7474
  145OSM    C3S15960   6.109   5.400   6.626  0.3426 -0.2147  0.0252
  145OSM    H3S15961   6.036   5.320   6.600 -0.0963  0.2746 -0.2869
  145OSM     O315962   6.118   5.403   6.769  0.1037 -0.4732 -0.2635
  145OSM    HO315963   6.057   5.474   6.789  0.9419 -0.0503  0.9054
  145OSM    C4S15964   6.240   5.381   6.563  0.2040  0.4359  0.1281
  145OSM    H4S15965   6.324   5.416   6.624  0.2865  1.6733 -0.6494
  145OSM    C5S15966   6.270   5.296   6.462 -0.3070  0.2494  0.0154
  145OSM    H5S15967   6.188   5.239   6.414 -0.7761  0.8450  0.1002
  145OSM    C6S15968   6.401   5.276   6.393 -0.2997 -0.1616 -0.1722
  145OSM    H6S15969   6.428   5.169   6.396  0.4729  0.0297  0.0379
  145OSM    H6T15970   6.476   5.332   6.454 -0.4997  1.3212 -1.2121
  145OSM    C7S15971   6.414   5.336   6.250 -0.1762  0.5419 -0.5725
  145OSM    H7S15972   6.510   5.300   6.206 -0.9331 -1.5991 -0.5566
  145OSM    H7T15973   6.405   5.447   6.243 -0.3018  0.7331  1.9492
  145OSM    C8S15974   6.314   5.267   6.155 -0.0298 -0.4043  0.1391
  145OSM    H8S15975   6.206   5.278   6.181 -0.2110  0.8938 -1.0816
  145OSM    H8T15976   6.346   5.161   6.165  0.7986 -0.1591  0.1357
  145OSM    C9S15977   6.328   5.312   6.007  0.2182  0.5358 -0.5114
  145OSM    H9S15978   6.433   5.295   5.976  0.1586 -0.3010 -0.2738
  145OSM    H9T15979   6.304   5.420   6.006 -0.1960  0.4480 -1.7196
  145OSM   C10S15980   6.243   5.240   5.907  0.0959 -0.1419  0.0838
  145OSM   H10S15981   6.137   5.246   5.938  0.2178 -0.2179  0.5268
  145OSM   H10T15982   6.271   5.132   5.911 -0.3094 -0.3279 -1.4253
  145OSM   C11S15983   6.267   5.285   5.759  0.3875  0.5915 -0.3648
  145OSM   H11S15984   6.350   5.358   5.752  0.2021  0.6505 -2.7486
  145OSM   H11T15985   6.172   5.336   5.732  0.3478 -0.0592 -1.5125
  145OSM   C12S15986   6.282   5.177   5.662 -0.6732 -0.5239  0.6214
  145OSM   H12S15987   6.240   5.076   5.681  1.6416 -2.5801 -3.6314
  145OSM   H12T15988   6.392   5.169   5.671 -0.2055  1.5930 -1.9387
  145OSM   C13S15989   6.230   5.220   5.524  0.0276  0.3913 -0.1353
  145OSM   H13S15990   6.257   5.326   5.504  1.8192 -0.4658 -2.8847
  145OSM   H13T15991   6.119   5.212   5.530  0.1055 -0.2163  0.7112
  145OSM   C14S15992   6.291   5.143   5.408 -0.0926  0.6725 -0.5269
  145OSM   H14S15993   6.295   5.038   5.444 -1.4396  0.9682  0.6154
  145OSM   H14T15994   6.396   5.169   5.385 -0.2459  0.3088 -1.6740
  145OSM   C15S15995   6.207   5.160   5.273  0.4041 -0.2262  0.5181
  145OSM   H15S15996   6.239   5.256   5.227 -1.2969 -0.4831 -1.3701
  145OSM   H15T15997   6.098   5.152   5.294 -0.2159  0.5211 -1.9926
  145OSM   C16S15998   6.233   5.055   5.164 -0.2907 -0.2983  0.2236
  145OSM   H16S15999   6.196   4.957   5.199 -1.8040 -0.3439 -1.3374
  145OSM   H16T16000   6.341   5.058   5.138  0.2604 -3.4453  1.7318
  145OSM   C17S16001   6.139   5.060   5.040  0.0859  0.1816  0.5889
  145OSM   H17S16002   6.136   5.166   5.008  2.8145  0.2437  0.3548
  145OSM   H17T16003   6.036   5.040   5.077 -0.2778 -1.0929 -1.0268
  145OSM   C18S16004   6.159   4.958   4.927 -0.3304  0.4404  0.4535
  145OSM   H18S16005   6.150   4.852   4.960 -0.4237  0.3074  0.0033
  145OSM   H18T16006   6.257   4.964   4.876 -0.4663  2.1623  0.3398
  145OSM   H18U16007   6.081   4.984   4.852  0.2109 -0.6524 -0.5233
  145OSM    C1F16008   6.000   5.643   6.347  0.0646 -0.0245 -0.1968
  145OSM     OF16009   6.013   5.755   6.398  0.1416  0.1945 -0.1375
  145OSM    C2F16010   5.946   5.627   6.204 -0.5979  0.2934  0.4091
  145OSM    H2F16011   5.861   5.698   6.197 -1.8503 -1.1557  0.4179
  145OSM    H2G16012   5.909   5.525   6.181  0.0013  0.2493 -0.4335
  145OSM    C3F16013   6.046   5.660   6.093 -0.1003  0.0106  0.6009
  145OSM    H3F16014   6.122   5.578   6.090 -1.0376 -0.9146  1.2889
  145OSM    H3G16015   6.100   5.755   6.110  1.0356 -0.6009  0.5418
  145OSM    C4F16016   5.984   5.664   5.951 -0.0433 -0.0274 -0.0854
  145OSM    H4F16017   6.049   5.688   5.864 -0.0161  0.8316  0.1605
  145OSM    H4G16018   5.897   5.733   5.951  0.5983  0.8023  0.1376
  145OSM    C5F16019   5.929   5.526   5.905 -0.0279 -0.2017 -0.4777
  145OSM    H5F16020   5.865   5.472   5.978 -2.4631 -0.7834 -2.8649
  145OSM    H5G16021   6.023   5.477   5.873  0.9125  0.6666  0.8653
  145OSM    C6F16022   5.827   5.532   5.792  1.0053  0.3154 -0.2899
  145OSM    H6F16023   5.726   5.566   5.826  0.0458 -2.3980 -0.2188
  145OSM    H6G16024   5.796   5.430   5.762 -1.5585  0.8490  0.2733
  145OSM    C7F16025   5.877   5.589   5.663  0.1787  0.9344  0.4378
  145OSM    H7F16026   5.984   5.559   5.648 -0.0446 -0.6417  1.7024
  145OSM    H7G16027   5.889   5.698   5.676  0.6538  0.6752  2.4409
  145OSM    C8F16028   5.789   5.556   5.541  0.1998 -0.3092  0.0616
  145OSM    H8F16029   5.781   5.446   5.523  3.1507 -0.7170  0.8004
  145OSM    H8G16030   5.840   5.584   5.446 -1.0818  0.3937 -0.4532
  145OSM    C9F16031   5.658   5.631   5.545 -0.4501  0.3755 -0.2247
  145OSM    H9F16032   5.585   5.604   5.622 -0.4257  1.1921  0.1003
  145OSM   C10F16033   5.645   5.756   5.485  0.7170  0.1857  0.4336
  145OSM   H10F16034   5.544   5.796   5.475  1.0800  0.6552 -1.9227
  145OSM   C11F16035   5.732   5.823   5.388 -0.5104 -0.3755 -0.3654
  145OSM   H11F16036   5.836   5.839   5.423 -0.6390  1.8109 -0.7980
  145OSM   H11G16037   5.690   5.926   5.379 -0.3148  0.0411  2.5891
  145OSM   C12F16038   5.729   5.778   5.243  0.0024  0.3613  0.6366
  145OSM   H12F16039   5.628   5.751   5.204  0.3799 -1.3387  0.7513
  145OSM   H12G16040   5.782   5.680   5.241 -2.0921 -0.8274  0.3579
  145OSM   C13F16041   5.805   5.870   5.151  0.2840 -0.1059 -0.0099
  145OSM   H13F16042   5.903   5.877   5.204 -0.7318  2.0035  1.7798
  145OSM   H13G16043   5.761   5.972   5.145  0.6294  0.0134 -0.4855
  145OSM   C14F16044   5.835   5.821   5.006 -0.3188 -0.2670  0.0617
  145OSM   H14F16045   5.897   5.731   4.992 -0.4513 -0.1698 -1.3076
  145OSM   H14G16046   5.891   5.905   4.960  0.3881 -0.0322  1.3129
  145OSM   C15F16047   5.703   5.802   4.917 -0.3530 -0.0946 -0.4053
  145OSM   H15F16048   5.650   5.899   4.932 -1.0357 -0.3513 -1.1192
  145OSM   H15G16049   5.633   5.728   4.962  0.9903 -0.4358  1.2260
  145OSM   C16F16050   5.731   5.780   4.765  0.2532 -0.5544 -0.6710
  145OSM   H16F16051   5.801   5.860   4.734  1.0187 -0.7560  0.4965
  145OSM   H16G16052   5.634   5.790   4.712 -0.3321 -0.0532  0.4756
  145OSM   C17F16053   5.801   5.643   4.732  0.5131  1.0459  0.7764
  145OSM   H17F16054   5.737   5.555   4.753  0.0470  0.9933 -0.7666
  145OSM   H17G16055   5.897   5.634   4.788  1.2463 -0.3846 -0.6061
  145OSM   C18F16056   5.842   5.646   4.576 -0.5667  0.6196 -0.1312
  145OSM   H18F16057   5.760   5.643   4.501 -1.0559 -0.4922  0.4224
  145OSM   H18G16058   5.907   5.558   4.557 -0.9689  0.1478  0.6342
  145OSM   H18H16059   5.899   5.739   4.557 -0.5155  0.7887  0.8195
  146OSM      N16060   3.940   0.174   6.967  0.2374 -0.2538 -0.4354
  146OSM    C1516061   3.837   0.287   6.972 -0.1007 -0.1998  0.6591
  146OSM   H15A16062   3.777   0.274   7.061  0.5844  2.9754  1.7133
  146OSM   H15B16063   3.771   0.287   6.887 -1.6236  0.1812  1.7866
  146OSM   H15C16064   3.884   0.384   6.984 -0.5105  0.0437  0.3081
  146OSM    C1416065   3.981   0.142   7.109 -0.2026  0.0247 -0.2543
  146OSM   H14A16066   3.905   0.094   7.169 -0.2659  1.3200  0.7489
  146OSM   H14B16067   4.012   0.231   7.161 -0.4034  0.0057 -0.1040
  146OSM   H14C16068   4.072   0.083   7.110 -0.6593 -0.6956 -0.8486
  146OSM    C1316069   3.871   0.060   6.918 -0.4657 -0.0929  0.5003
  146OSM   H13A16070   3.839   0.067   6.815 -1.3981  1.8101  0.8662
  146OSM   H13B16071   3.788   0.035   6.983 -1.0668  0.1953 -0.1442
  146OSM   H13C16072   3.931  -0.029   6.927  1.1971  0.6795 -1.9372
  146OSM    C1216073   4.054   0.214   6.882  0.1323 -0.6589 -0.4309
  146OSM   H12A16074   4.116   0.126   6.886 -0.4739 -1.1516 -1.4466
  146OSM   H12B16075   4.120   0.283   6.934  2.8101 -2.6338 -0.9810
  146OSM    C1116076   4.036   0.244   6.733 -0.2441 -0.6826  0.2445
  146OSM   H11A16077   3.997   0.153   6.683 -2.3277 -0.2075  0.9332
  146OSM   H11B16078   4.141   0.262   6.699  0.0991 -1.4436  0.8549
  146OSM      P16079   4.003   0.500   6.721 -0.0752  0.0289  0.4382
  146OSM    O1316080   3.915   0.583   6.807 -0.5700  0.1164  0.5443
  146OSM    O1416081   4.146   0.492   6.761  0.5246 -0.2099 -0.4473
  146OSM    O1116082   3.995   0.564   6.573  0.5919  0.8102  0.3027
  146OSM    O1216083   3.944   0.353   6.708  0.4701  0.5285  0.4353
  146OSM    C1S16084   3.869   0.599   6.512 -0.8441 -0.1867 -0.2111
  146OSM    H1S16085   3.870   0.708   6.532  1.7454 -0.5647  2.6144
  146OSM    H1T16086   3.776   0.569   6.565 -1.8177  0.5186 -1.4734
  146OSM     NF16087   3.720   0.567   6.321  0.1085 -0.3071  0.4038
  146OSM    HNF16088   3.661   0.490   6.344  0.2768 -0.1883  1.2412
  146OSM    C2S16089   3.854   0.549   6.357 -0.6746  0.0212  0.8718
  146OSM    H2S16090   3.917   0.622   6.302  0.9201 -1.2438  0.9212
  146OSM    C3S16091   3.921   0.410   6.340  0.0765 -0.4896 -0.3200
  146OSM    H3S16092   3.871   0.336   6.406 -1.2861 -0.7430 -1.5828
  146OSM     O316093   4.061   0.415   6.373  1.3291  0.8506 -0.1570
  146OSM    HO316094   4.074   0.494   6.427 -0.5242 -0.4583  2.4456
  146OSM    C4S16095   3.901   0.374   6.198 -0.7421 -0.2518 -0.2710
  146OSM    H4S16096   3.803   0.324   6.189 -0.3632 -0.5967 -4.1954
  146OSM    C5S16097   3.973   0.401   6.089  0.9979 -0.5149  0.4481
  146OSM    H5S16098   4.069   0.455   6.091  0.5304  0.6440 -2.9115
  146OSM    C6S16099   3.941   0.363   5.955 -0.3749  0.0611  0.3732
  146OSM    H6S16100   3.992   0.268   5.928  0.7928  0.5703  0.6840
  146OSM    H6T16101   3.991   0.440   5.892  3.9373 -1.6279  1.3512
  146OSM    C7S16102   3.799   0.339   5.908  0.3747 -0.3807 -0.2071
  146OSM    H7S16103   3.746   0.431   5.940 -0.4837 -1.3902  1.4068
  146OSM    H7T16104   3.740   0.260   5.959 -2.5332  3.0071  2.2185
  146OSM    C8S16105   3.778   0.310   5.758 -0.4026  0.7927  0.1908
  146OSM    H8S16106   3.669   0.298   5.746 -0.7699  1.9760  1.9086
  146OSM    H8T16107   3.820   0.209   5.738 -0.0845  1.1599 -1.0481
  146OSM    C9S16108   3.844   0.410   5.667  0.0302 -0.1889  0.2836
  146OSM    H9S16109   3.951   0.385   5.656 -0.1125 -1.1017  0.8187
  146OSM    H9T16110   3.847   0.510   5.715 -2.6786  0.0307  0.1356
  146OSM   C10S16111   3.765   0.422   5.541  0.3104  0.1131 -0.4567
  146OSM   H10S16112   3.659   0.448   5.559  0.9756  2.1779  0.7357
  146OSM   H10T16113   3.759   0.320   5.497 -0.5864 -1.0653  2.2109
  146OSM   C11S16114   3.825   0.525   5.434  0.1448  0.3086 -0.5132
  146OSM   H11S16115   3.913   0.470   5.393  1.0651  2.5256 -1.7242
  146OSM   H11T16116   3.858   0.621   5.479  0.1737  0.2508 -0.4106
  146OSM   C12S16117   3.734   0.548   5.306  0.6978 -0.6146  0.0888
  146OSM   H12S16118   3.651   0.614   5.340  0.3526  0.3724 -2.4711
  146OSM   H12T16119   3.670   0.460   5.286  1.5531 -1.3916  0.7147
  146OSM   C13S16120   3.812   0.613   5.195 -0.0596  0.3744 -0.3063
  146OSM   H13S16121   3.896   0.547   5.167 -0.9988 -0.0549 -2.2593
  146OSM   H13T16122   3.857   0.708   5.232  0.6601  0.2709 -0.9159
  146OSM   C14S16123   3.730   0.630   5.062 -0.0641 -0.7253  0.4234
  146OSM   H14S16124   3.646   0.701   5.075 -1.0742 -1.4280 -1.7590
  146OSM   H14T16125   3.686   0.531   5.040  0.8787 -0.8583 -1.0264
  146OSM   C15S16126   3.824   0.669   4.953 -0.3586 -0.0053 -0.1594
  146OSM   H15S16127   3.917   0.609   4.940 -0.2679  0.0888  0.0561
  146OSM   H15T16128   3.858   0.774   4.967 -1.8261  0.5832 -0.7990
  146OSM   C16S16129   3.755   0.661   4.817 -0.4776 -0.0540 -0.0743
  146OSM   H16S16130   3.674   0.737   4.804 -0.6926 -0.3904 -0.7118
  146OSM   H16T16131   3.702   0.564   4.810 -0.8347  0.0079  1.3338
  146OSM   C17S16132   3.846   0.678   4.699  0.2752 -0.1096  0.2896
  146OSM   H17S16133   3.792   0.663   4.603 -0.8274 -0.2765  0.9242
  146OSM   H17T16134   3.922   0.597   4.695 -0.0345 -0.3655 -1.4186
  146OSM   C18S16135   3.913   0.812   4.684 -0.0746  0.3273  0.2085
  146OSM   H18S16136   3.843   0.899   4.684  0.4875  0.8550 -2.0452
  146OSM   H18T16137   3.969   0.806   4.588  1.4055  1.7541  0.9168
  146OSM   H18U16138   3.991   0.831   4.762  0.1372 -0.7517  0.2653
  146OSM    C1F16139   3.662   0.686   6.298 -0.3457  0.1167 -1.0192
  146OSM     OF16140   3.729   0.789   6.291  0.2537 -0.0563 -0.4251
  146OSM    C2F16141   3.513   0.692   6.279 -0.1346  0.3310 -0.3383
  146OSM    H2F16142   3.478   0.791   6.242  0.1391 -0.2545 -2.2923
  146OSM    H2G16143   3.469   0.675   6.379  2.6389 -1.6411  0.6948
  146OSM    C3F16144   3.470   0.578   6.184  0.3809  0.2087  0.0448
  146OSM    H3F16145   3.361   0.582   6.203  0.2845  2.7000 -0.7121
  146OSM    H3G16146   3.511   0.479   6.214 -0.9503 -0.0841  0.9715
  146OSM    C4F16147   3.493   0.597   6.031  0.5052 -0.5451  0.5050
  146OSM    H4F16148   3.601   0.621   6.019  0.2639  0.4502  0.2726
  146OSM    H4G16149   3.440   0.685   5.988  1.2138 -0.4680 -0.2462
  146OSM    C5F16150   3.448   0.475   5.956 -0.4686  0.9065 -0.0722
  146OSM    H5F16151   3.348   0.450   5.997  0.3047 -1.6792  0.4499
  146OSM    H5G16152   3.507   0.386   5.988  1.8143  2.2844 -0.2100
  146OSM    C6F16153   3.445   0.481   5.808 -0.3724 -0.6285  0.9315
  146OSM    H6F16154   3.458   0.376   5.773 -1.7185 -1.1058  1.7569
  146OSM    H6G16155   3.533   0.542   5.778  0.2222 -1.8475  0.1139
  146OSM    C7F16156   3.309   0.535   5.753  0.2021 -0.5510 -0.1662
  146OSM    H7F16157   3.242   0.588   5.824 -1.0280 -2.0665 -0.1240
  146OSM    H7G16158   3.246   0.446   5.731  1.1932 -0.6907 -2.8526
  146OSM    C8F16159   3.322   0.608   5.619 -0.3656 -0.8741  0.2375
  146OSM    H8F16160   3.372   0.705   5.637 -0.6361 -1.0825  2.3009
  146OSM    H8G16161   3.218   0.629   5.587 -0.1213  1.3264  0.7637
  146OSM    C9F16162   3.393   0.522   5.511 -0.2013 -0.4947  0.1073
  146OSM    H9F16163   3.502   0.535   5.511  0.0884 -2.2018 -2.6095
  146OSM   C10F16164   3.339   0.439   5.418 -0.2964  0.7677 -0.1250
  146OSM   H10F16165   3.407   0.388   5.349  0.5063  0.7272  0.6862
  146OSM   C11F16166   3.190   0.411   5.401  0.0961 -0.3279 -0.1228
  146OSM   H11F16167   3.157   0.458   5.306 -1.6639 -1.1637  0.0378
  146OSM   H11G16168   3.131   0.457   5.483  0.5083  1.6602 -0.8876
  146OSM   C12F16169   3.171   0.256   5.392  0.4322 -0.2120  0.2799
  146OSM   H12F16170   3.067   0.245   5.431 -0.2203  3.8260  0.1785
  146OSM   H12G16171   3.254   0.207   5.448  1.9658  1.0919 -0.7696
  146OSM   C13F16172   3.167   0.229   5.235  0.4050 -0.0701 -0.8993
  146OSM   H13F16173   3.256   0.272   5.184  0.8493 -0.6993 -0.6624
  146OSM   H13G16174   3.069   0.263   5.195  0.3505  0.3484 -0.4281
  146OSM   C14F16175   3.187   0.082   5.204  0.4149 -0.1713 -0.9042
  146OSM   H14F16176   3.261   0.038   5.274  0.0435  0.1714 -0.2929
  146OSM   H14G16177   3.088   0.037   5.229  0.6059  0.1237  0.4574
  146OSM   C15F16178   3.223   0.067   5.057  0.3382 -0.4029  0.4526
  146OSM   H15F16179   3.275  -0.029   5.035  3.9075  1.2675  0.8840
  146OSM   H15G16180   3.290   0.151   5.027  0.1803  0.1871  1.7056
  146OSM   C16F16181   3.097   0.101   4.965 -0.1841  0.2897 -0.4009
  146OSM   H16F16182   3.056   0.199   4.995 -1.7018 -0.0361 -1.3168
  146OSM   H16G16183   3.024   0.021   4.989  0.2591  0.4421  1.6102
  146OSM   C17F16184   3.125   0.098   4.813 -0.2167 -0.1581  0.0711
  146OSM   H17F16185   3.161  -0.005   4.792  2.3465  0.9825 -1.6608
  146OSM   H17G16186   3.209   0.168   4.791  0.2806 -0.3435  1.2904
  146OSM   C18F16187   3.003   0.128   4.728 -0.5924 -0.1198 -0.7341
  146OSM   H18F16188   2.945   0.208   4.780 -1.0088 -1.1636  0.4465
  146OSM   H18G16189   2.935   0.041   4.720 -0.9125  0.0115  0.3769
  146OSM   H18H16190   3.021   0.150   4.621  1.5848 -0.8056 -0.5694
  147OSM      N16191   0.456   4.387   2.209  0.3612  0.4921 -0.0815
  147OSM    C1516192   0.371   4.493   2.135 -0.2818  0.1360 -0.0934
  147OSM   H15A16193   0.272   4.451   2.120 -0.6806  1.2814 -0.8279
  147OSM   H15B16194   0.410   4.535   2.044 -0.5422 -2.1720 -1.3493
  147OSM   H15C16195   0.371   4.571   2.209  0.8370 -0.7020  0.8198
  147OSM    C1416196   0.369   4.335   2.328 -0.3660  0.2048  0.7330
  147OSM   H14A16197   0.354   4.423   2.389  0.0082  0.3664  0.5909
  147OSM   H14B16198   0.420   4.255   2.379 -0.3353 -0.1434  0.1716
  147OSM   H14C16199   0.269   4.312   2.294 -0.9285  1.5062  1.4348
  147OSM    C1316200   0.477   4.269   2.117 -0.1657 -0.0641  0.5680
  147OSM   H13A16201   0.482   4.173   2.168  2.4286 -0.4043 -0.1725
  147OSM   H13B16202   0.568   4.284   2.062 -0.5202 -0.6154 -0.1811
  147OSM   H13C16203   0.390   4.267   2.054  0.6053  1.9003 -0.6397
  147OSM    C1216204   0.593   4.443   2.251  0.1725  0.0810  0.1656
  147OSM   H12A16205   0.641   4.469   2.158 -1.6279  1.6655 -0.4020
  147OSM   H12B16206   0.654   4.375   2.309 -0.3754  0.0767  0.7515
  147OSM    C1116207   0.599   4.578   2.326  0.0860  0.5725 -0.2358
  147OSM   H11A16208   0.689   4.568   2.391 -1.3899  1.9580  2.1922
  147OSM   H11B16209   0.523   4.572   2.407  2.0472 -0.0580  1.6740
  147OSM      P16210   0.714   4.746   2.155  0.3001  0.0167 -0.0546
  147OSM    O1316211   0.778   4.635   2.086 -0.2976  0.6018 -0.4703
  147OSM    O1416212   0.667   4.852   2.065 -0.0170 -0.3138  0.3778
  147OSM    O1116213   0.815   4.800   2.258  0.1127 -0.6472  0.3112
  147OSM    O1216214   0.590   4.699   2.245  0.3602 -0.1660  0.2904
  147OSM    C1S16215   0.809   4.929   2.322  0.5450 -1.1390 -0.1410
  147OSM    H1S16216   0.714   4.985   2.311  0.6367 -0.6760  1.1667
  147OSM    H1T16217   0.896   4.994   2.299  0.0554 -0.2092  0.5678
  147OSM     NF16218   0.784   5.015   2.562  0.5981  0.0626 -0.7688
  147OSM    HNF16219   0.849   5.055   2.626 -0.4248 -0.8540  0.9256
  147OSM    C2S16220   0.829   4.904   2.476 -0.3960  0.3799  0.7064
  147OSM    H2S16221   0.762   4.819   2.501 -1.1203  0.6493 -0.2394
  147OSM    C3S16222   0.978   4.856   2.496 -0.1207 -0.0173 -0.0860
  147OSM    H3S16223   1.055   4.932   2.473  2.2206 -1.8151  1.2783
  147OSM     O316224   1.007   4.744   2.410 -0.7286 -0.2730 -0.0087
  147OSM    HO316225   0.938   4.746   2.344 -0.0282 -0.9017 -0.7854
  147OSM    C4S16226   1.004   4.814   2.638 -0.4799  0.2236  0.9476
  147OSM    H4S16227   1.070   4.882   2.693  2.1452 -3.2820  2.5527
  147OSM    C5S16228   0.953   4.710   2.712 -0.4601  0.5873  0.5659
  147OSM    H5S16229   0.901   4.637   2.648  3.4459 -0.2956 -1.9167
  147OSM    C6S16230   0.970   4.692   2.862  0.4146  0.5568 -0.1007
  147OSM    H6S16231   1.056   4.759   2.883 -0.0884  1.5609 -1.1568
  147OSM    H6T16232   0.997   4.589   2.895 -2.6135 -0.6467 -1.0884
  147OSM    C7S16233   0.858   4.731   2.964  0.0177  0.0232 -0.3480
  147OSM    H7S16234   0.759   4.680   2.959 -0.2805  0.5324  0.1848
  147OSM    H7T16235   0.839   4.838   2.942 -1.3966 -0.0990  0.1607
  147OSM    C8S16236   0.903   4.738   3.114 -0.7433  0.2281 -0.0252
  147OSM    H8S16237   0.816   4.766   3.178 -1.4416  0.4681 -1.0440
  147OSM    H8T16238   0.989   4.807   3.112  0.3492 -1.1091 -0.4181
  147OSM    C9S16239   0.943   4.597   3.174 -0.8467  0.0210 -0.6285
  147OSM    H9S16240   1.036   4.556   3.129 -1.6615 -0.9124 -1.5198
  147OSM    H9T16241   0.857   4.529   3.153 -0.9856 -0.6750  1.9049
  147OSM   C10S16242   0.981   4.601   3.327  0.6640 -0.5564 -0.3436
  147OSM   H10S16243   0.889   4.646   3.369  1.7517  1.7715 -0.3450
  147OSM   H10T16244   1.072   4.663   3.344  0.6564 -0.5896 -0.1801
  147OSM   C11S16245   1.003   4.460   3.373 -0.6176  0.2941  1.0822
  147OSM   H11S16246   1.070   4.410   3.300 -0.5901  1.7718  0.0613
  147OSM   H11T16247   0.906   4.407   3.356 -1.3404  1.4540  1.4753
  147OSM   C12S16248   1.043   4.442   3.518  0.5779 -0.4571 -0.2872
  147OSM   H12S16249   1.145   4.483   3.536  0.8804 -1.4888  0.4383
  147OSM   H12T16250   1.055   4.333   3.534  0.3813 -0.4288  0.0560
  147OSM   C13S16251   0.949   4.502   3.627  0.1216  0.4512  0.1580
  147OSM   H13S16252   0.847   4.468   3.601  0.4723 -0.3169 -0.2453
  147OSM   H13T16253   0.949   4.613   3.616 -0.6229  0.3151 -1.5235
  147OSM   C14S16254   0.999   4.449   3.762  0.0087  0.0969  0.0495
  147OSM   H14S16255   1.104   4.485   3.764 -0.9137  3.1651 -0.5678
  147OSM   H14T16256   0.999   4.339   3.779  0.8430  0.1512  0.4542
  147OSM   C15S16257   0.930   4.515   3.879  0.4280 -0.6200  0.2434
  147OSM   H15S16258   0.960   4.621   3.873  0.1882 -0.5306  0.6037
  147OSM   H15T16259   0.965   4.462   3.971 -0.9330 -0.0083  1.1461
  147OSM   C16S16260   0.778   4.488   3.885  0.1178  0.5696  0.3329
  147OSM   H16S16261   0.774   4.378   3.901  1.6637 -0.4449 -4.3583
  147OSM   H16T16262   0.732   4.494   3.784 -1.1171 -1.3384  0.7425
  147OSM   C17S16263   0.710   4.583   3.979 -0.3961  0.3073 -0.2046
  147OSM   H17S16264   0.725   4.684   3.937 -0.2661  0.3497 -0.0544
  147OSM   H17T16265   0.752   4.576   4.082  1.6725  1.7186 -0.9076
  147OSM   C18S16266   0.562   4.562   3.981 -0.2499 -0.3527  0.6733
  147OSM   H18S16267   0.550   4.452   3.992  0.5329 -0.4113  0.9704
  147OSM   H18T16268   0.518   4.590   3.882  0.2383  1.3875  0.9176
  147OSM   H18U16269   0.510   4.605   4.068  1.2909 -1.2653  2.1074
  147OSM    C1F16270   0.657   5.044   2.583  0.2690 -0.1113 -0.5033
  147OSM     OF16271   0.571   4.981   2.529  0.4110 -0.0707  0.6010
  147OSM    C2F16272   0.621   5.155   2.677 -0.1754  0.9968  0.1502
  147OSM    H2F16273   0.560   5.233   2.626  0.7292  1.8973  0.3979
  147OSM    H2G16274   0.715   5.211   2.697  1.0591 -0.8979 -0.1282
  147OSM    C3F16275   0.541   5.106   2.799  0.4604 -0.1201  0.0116
  147OSM    H3F16276   0.461   5.036   2.767 -0.4692 -1.0476  3.8168
  147OSM    H3G16277   0.492   5.194   2.845  1.6447  0.7888 -0.4156
  147OSM    C4F16278   0.630   5.029   2.899  0.2905 -0.2310  0.4901
  147OSM    H4F16279   0.709   5.092   2.946 -1.3048  0.5297  2.2724
  147OSM    H4G16280   0.675   4.946   2.840 -1.6306 -1.2523  0.3907
  147OSM    C5F16281   0.547   4.963   3.011 -0.5394 -0.1120 -0.8728
  147OSM    H5F16282   0.579   4.859   3.032 -0.5250 -0.3627 -2.0697
  147OSM    H5G16283   0.443   4.953   2.972 -0.5300 -0.9241 -0.6999
  147OSM    C6F16284   0.541   5.039   3.143 -1.1165 -1.0187  0.8691
  147OSM    H6F16285   0.494   5.139   3.131 -0.5109 -0.7598  0.6195
  147OSM    H6G16286   0.641   5.060   3.187 -0.7975  2.2138 -1.0370
  147OSM    C7F16287   0.466   4.967   3.257 -0.2850 -0.4218  0.1219
  147OSM    H7F16288   0.504   4.863   3.260  1.3932  0.1790  1.1051
  147OSM    H7G16289   0.359   4.958   3.228  0.2005 -1.9067 -1.3382
  147OSM    C8F16290   0.487   5.020   3.401  0.5502 -0.2258  0.2726
  147OSM    H8F16291   0.459   5.127   3.392  1.0654  0.0256  1.5398
  147OSM    H8G16292   0.594   5.012   3.430  1.2996 -0.4073 -2.2868
  147OSM    C9F16293   0.394   4.954   3.498 -0.0444 -0.3254 -0.1566
  147OSM    H9F16294   0.289   4.947   3.466 -0.8194  2.4156  1.5092
  147OSM   C10F16295   0.426   4.894   3.607 -0.0647  0.4208 -0.0389
  147OSM   H10F16296   0.340   4.858   3.665 -0.3628 -0.9265 -1.2591
  147OSM   C11F16297   0.563   4.877   3.668  0.5608  0.2551  0.1233
  147OSM   H11F16298   0.641   4.923   3.603  0.1416  1.2917  0.3208
  147OSM   H11G16299   0.584   4.768   3.672 -0.6041 -0.0466 -1.2090
  147OSM   C12F16300   0.572   4.942   3.808 -1.2350  0.0438 -0.4266
  147OSM   H12F16301   0.579   5.052   3.797 -0.6558  0.1007  0.4475
  147OSM   H12G16302   0.666   4.895   3.846 -0.6297  0.5687 -1.2558
  147OSM   C13F16303   0.455   4.919   3.907  0.0043  0.0803 -0.1904
  147OSM   H13F16304   0.443   4.809   3.918 -1.4300  0.2496  0.0724
  147OSM   H13G16305   0.354   4.949   3.874 -0.9840 -0.7795  1.8801
  147OSM   C14F16306   0.479   4.991   4.042 -0.4523 -0.0314 -0.0991
  147OSM   H14F16307   0.497   5.099   4.028  1.0139 -0.2169  0.1624
  147OSM   H14G16308   0.573   4.947   4.084 -0.6675  0.2349  0.6802
  147OSM   C15F16309   0.368   4.964   4.136  0.1249  0.4017  0.2993
  147OSM   H15F16310   0.273   5.005   4.096 -0.5791 -0.3373  1.1770
  147OSM   H15G16311   0.390   5.013   4.234  1.8905 -0.5092  0.4009
  147OSM   C16F16312   0.351   4.823   4.175 -0.1504  0.7495  0.1972
  147OSM   H16F16313   0.446   4.768   4.192 -0.5517 -0.0812 -0.2337
  147OSM   H16G16314   0.291   4.765   4.103  1.6972 -1.0175  0.0028
  147OSM   C17F16315   0.262   4.808   4.301 -0.0406  0.0395 -0.3532
  147OSM   H17F16316   0.263   4.699   4.324  0.9060 -0.0656 -0.8179
  147OSM   H17G16317   0.162   4.843   4.268  0.2700 -0.5382 -2.0328
  147OSM   C18F16318   0.312   4.877   4.432 -0.1797  0.0033  0.6780
  147OSM   H18F16319   0.299   4.988   4.436  0.1606  0.0261  1.2373
  147OSM   H18G16320   0.422   4.865   4.433 -0.1581  0.0614 -0.3012
  147OSM   H18H16321   0.281   4.827   4.526  1.2985 -0.0313  1.1768
  148OSM      N16322   2.396   5.098   1.840 -0.5122  0.2899  0.2173
  148OSM    C1516323   2.490   5.202   1.802 -0.3198  0.2784 -0.3839
  148OSM   H15A16324   2.593   5.169   1.796 -0.4103 -0.0189 -0.2855
  148OSM   H15B16325   2.483   5.294   1.858 -0.4684  0.9612 -1.4776
  148OSM   H15C16326   2.464   5.239   1.703 -1.7010 -0.2889 -0.2532
  148OSM    C1416327   2.252   5.144   1.847 -0.0806 -0.2672  0.4615
  148OSM   H14A16328   2.185   5.059   1.846  0.7041 -0.8992  0.4682
  148OSM   H14B16329   2.226   5.190   1.753 -3.0131 -1.5843  0.5038
  148OSM   H14C16330   2.235   5.213   1.929  1.4262  1.4051 -0.5898
  148OSM    C1316331   2.403   4.988   1.732 -0.0697 -0.9185 -0.3694
  148OSM   H13A16332   2.321   4.919   1.745  1.8745 -3.3202 -0.1314
  148OSM   H13B16333   2.500   4.942   1.736  0.9850  1.0398 -1.6804
  148OSM   H13C16334   2.396   5.028   1.632 -2.5173  0.0963  0.1182
  148OSM    C1216335   2.448   5.049   1.970  0.1822 -0.6437  0.5826
  148OSM   H12A16336   2.427   5.123   2.046  0.0772 -0.6464  0.5562
  148OSM   H12B16337   2.556   5.046   1.972  0.4843  1.9983 -2.7179
  148OSM    C1116338   2.389   4.914   2.011 -0.0165 -0.1492  0.5657
  148OSM   H11A16339   2.437   4.830   1.955 -0.1672  0.2760 -0.2102
  148OSM   H11B16340   2.281   4.920   1.988  0.2504 -2.6782 -2.0464
  148OSM      P16341   2.311   4.967   2.252  0.0768  0.0298  0.0397
  148OSM    O1316342   2.343   4.935   2.393 -0.1705  0.1082 -0.2240
  148OSM    O1416343   2.285   5.106   2.214 -0.0291 -0.3215  0.3587
  148OSM    O1116344   2.181   4.884   2.219 -0.0271  0.0993  0.4896
  148OSM    O1216345   2.413   4.894   2.155  0.0372 -0.1859  0.2795
  148OSM    C1S16346   2.183   4.740   2.244 -1.3739 -0.3866  0.0921
  148OSM    H1S16347   2.278   4.692   2.212 -0.3047  0.5771  1.7031
  148OSM    H1T16348   2.105   4.697   2.178 -2.3456  0.2409  0.8036
  148OSM     NF16349   2.149   4.539   2.368 -0.5787  0.1269  0.1765
  148OSM    HNF16350   2.056   4.506   2.381 -1.4385  2.2593 -0.2093
  148OSM    C2S16351   2.163   4.683   2.389  0.5151 -0.2565  0.1361
  148OSM    H2S16352   2.250   4.708   2.454 -0.8631  0.0006  1.9764
  148OSM    C3S16353   2.044   4.760   2.455  0.4692 -0.5821 -0.6675
  148OSM    H3S16354   1.958   4.759   2.385  2.5949  0.1272 -3.4896
  148OSM     O316355   2.067   4.902   2.477 -0.4982 -0.2145  0.0413
  148OSM    HO316356   2.152   4.922   2.438  1.2381  0.3704  3.6958
  148OSM    C4S16357   2.016   4.691   2.586 -0.1841 -0.6682  0.2264
  148OSM    H4S16358   1.928   4.626   2.572 -0.5677 -0.2553  0.6880
  148OSM    C5S16359   2.066   4.709   2.709 -0.2458 -0.3195  0.1775
  148OSM    H5S16360   2.144   4.784   2.732 -0.6311 -0.7789  3.5532
  148OSM    C6S16361   2.025   4.641   2.837  0.2593  0.5020  0.1587
  148OSM    H6S16362   1.974   4.711   2.907 -1.6224 -0.3801 -0.2758
  148OSM    H6T16363   2.115   4.601   2.889  0.8243 -1.6857 -2.2937
  148OSM    C7S16364   1.919   4.524   2.834  0.1874 -0.1053  0.4141
  148OSM    H7S16365   1.973   4.448   2.772  1.4463  2.4810 -1.9138
  148OSM    H7T16366   1.833   4.567   2.779  0.5985  0.2781  0.0584
  148OSM    C8S16367   1.862   4.470   2.968  0.3080 -0.4167 -0.1821
  148OSM    H8S16368   1.761   4.426   2.954 -0.7849  2.3457 -1.8013
  148OSM    H8T16369   1.849   4.552   3.041 -1.5146  0.1414 -1.0484
  148OSM    C9S16370   1.958   4.363   3.018  0.2563  0.4171 -0.6891
  148OSM    H9S16371   2.056   4.406   3.046  0.2394  0.9145 -1.3690
  148OSM    H9T16372   1.980   4.289   2.938 -2.5010  0.8599 -1.9634
  148OSM   C10S16373   1.895   4.270   3.126 -0.0922 -0.4719  0.3264
  148OSM   H10S16374   1.802   4.238   3.074 -1.2473  1.2364  1.2486
  148OSM   H10T16375   1.874   4.319   3.223 -0.0894 -1.3167  0.7588
  148OSM   C11S16376   1.977   4.148   3.159 -0.1756 -0.0960  0.0892
  148OSM   H11S16377   2.068   4.186   3.210  0.0012  1.2799 -1.1847
  148OSM   H11T16378   2.000   4.093   3.065 -0.8513 -2.5438  1.2508
  148OSM   C12S16379   1.912   4.058   3.254 -0.1784  0.1323  0.2861
  148OSM   H12S16380   1.847   3.990   3.196  2.3797 -1.0491 -1.3743
  148OSM   H12T16381   1.846   4.111   3.326 -1.3024  0.6464 -1.0772
  148OSM   C13S16382   2.008   3.965   3.323 -0.4068 -0.0129 -0.7788
  148OSM   H13S16383   2.089   3.922   3.261 -0.0059 -1.1273  0.4716
  148OSM   H13T16384   1.938   3.889   3.364 -0.4808 -0.6360 -1.9932
  148OSM   C14S16385   2.069   4.032   3.446 -0.3226  0.4017 -0.3783
  148OSM   H14S16386   1.989   4.074   3.512  0.5244  1.4635  0.0181
  148OSM   H14T16387   2.117   4.123   3.405  0.1739 -0.0862 -0.8721
  148OSM   C15S16388   2.175   3.954   3.528  0.2005 -0.0089  0.0335
  148OSM   H15S16389   2.208   4.027   3.605  1.5193 -1.4564  0.9220
  148OSM   H15T16390   2.265   3.928   3.468 -0.4049 -0.7385 -0.5829
  148OSM   C16S16391   2.114   3.841   3.615 -0.2269 -0.3252 -0.5880
  148OSM   H16S16392   2.076   3.764   3.544 -0.3733 -0.8243  0.0194
  148OSM   H16T16393   2.037   3.887   3.681  1.0186  1.3207 -0.2113
  148OSM   C17S16394   2.217   3.785   3.711 -0.5802 -0.8749 -0.3527
  148OSM   H17S16395   2.170   3.753   3.806  1.3158  0.2144  1.0306
  148OSM   H17T16396   2.278   3.867   3.755 -3.8644  1.0314  1.0083
  148OSM   C18S16397   2.279   3.658   3.653  0.1318  0.3389 -0.9795
  148OSM   H18S16398   2.317   3.680   3.551  0.2813  0.2417 -0.9442
  148OSM   H18T16399   2.192   3.590   3.641 -1.0246  0.9148  2.7794
  148OSM   H18U16400   2.346   3.607   3.725 -1.2373  0.8303  0.7244
  148OSM    C1F16401   2.256   4.457   2.342  0.3489  0.3741  0.4049
  148OSM     OF16402   2.363   4.510   2.326 -0.1554 -0.7859  0.3734
  148OSM    C2F16403   2.229   4.307   2.343 -0.6809 -0.0837  0.1911
  148OSM    H2F16404   2.326   4.253   2.342 -1.0848 -0.8085 -0.1554
  148OSM    H2G16405   2.184   4.284   2.244 -3.1840  0.4306  1.1464
  148OSM    C3F16406   2.158   4.256   2.464  0.0502 -0.1394 -0.3056
  148OSM    H3F16407   2.150   4.146   2.459  0.0069 -0.0932 -1.3512
  148OSM    H3G16408   2.057   4.302   2.468  0.1037  0.4257 -3.3845
  148OSM    C4F16409   2.238   4.287   2.595 -0.1403  0.0776 -0.2473
  148OSM    H4F16410   2.245   4.397   2.609 -2.7847  0.2489  0.2814
  148OSM    H4G16411   2.339   4.244   2.579 -0.0428 -0.2038  1.0540
  148OSM    C5F16412   2.187   4.211   2.717 -0.2374 -0.0426 -0.1565
  148OSM    H5F16413   2.217   4.105   2.716 -1.3384 -0.4138  1.8135
  148OSM    H5G16414   2.076   4.202   2.721 -0.0939 -1.4691  1.5998
  148OSM    C6F16415   2.229   4.266   2.856 -0.3759  0.4099  0.6314
  148OSM    H6F16416   2.195   4.183   2.922  0.6158 -0.0664  0.5529
  148OSM    H6G16417   2.175   4.362   2.873 -0.6778  0.4347 -0.4192
  148OSM    C7F16418   2.378   4.296   2.892 -0.0479 -0.9523  0.6750
  148OSM    H7F16419   2.419   4.372   2.823  1.2060 -1.7338  0.5342
  148OSM    H7G16420   2.445   4.208   2.892  0.3251 -0.7781  3.5135
  148OSM    C8F16421   2.393   4.355   3.033 -0.1662  0.7448 -0.0777
  148OSM    H8F16422   2.497   4.346   3.070 -1.0535 -1.4946  2.1463
  148OSM    H8G16423   2.329   4.288   3.095 -0.5179 -0.2877 -1.5167
  148OSM    C9F16424   2.351   4.500   3.046  0.1630  0.1184  0.2268
  148OSM    H9F16425   2.397   4.571   2.976  0.7233 -0.7313 -0.2846
  148OSM   C10F16426   2.267   4.545   3.140 -0.4060  0.3497 -0.5921
  148OSM   H10F16427   2.234   4.650   3.139  0.3499  0.5943 -1.0576
  148OSM   C11F16428   2.198   4.474   3.255 -0.0477  0.1873 -0.1545
  148OSM   H11F16429   2.211   4.366   3.233  3.2709  0.7370 -1.4831
  148OSM   H11G16430   2.090   4.496   3.245 -0.2208  0.1760  1.4232
  148OSM   C12F16431   2.239   4.509   3.400  0.1418  0.7471 -0.5566
  148OSM   H12F16432   2.204   4.607   3.439 -0.1654  0.0381  1.0477
  148OSM   H12G16433   2.350   4.517   3.398  0.0329  2.5951 -1.6109
  148OSM   C13F16434   2.196   4.396   3.489  0.4628 -0.2377  0.2199
  148OSM   H13F16435   2.254   4.309   3.452  0.9063  0.1314  0.0501
  148OSM   H13G16436   2.086   4.377   3.479  0.7688 -2.3868  0.3560
  148OSM   C14F16437   2.226   4.430   3.639  0.0215 -0.4869 -0.0682
  148OSM   H14F16438   2.159   4.515   3.667  0.1525 -0.9639  1.8379
  148OSM   H14G16439   2.331   4.467   3.638 -0.3025  0.5219  0.8655
  148OSM   C15F16440   2.209   4.316   3.742 -0.5898  0.0587 -0.1744
  148OSM   H15F16441   2.282   4.235   3.720 -0.2745  0.3698 -0.2979
  148OSM   H15G16442   2.106   4.276   3.733 -0.3747 -0.4111 -0.6017
  148OSM   C16F16443   2.234   4.362   3.888 -0.0518 -1.0497  0.1569
  148OSM   H16F16444   2.157   4.436   3.918  1.4939  0.6789  0.0003
  148OSM   H16G16445   2.323   4.426   3.902 -0.6167 -0.4769  1.2939
  148OSM   C17F16446   2.227   4.254   3.992  0.1918  0.1840 -0.3192
  148OSM   H17F16447   2.228   4.300   4.094 -0.8002  1.4383 -0.8450
  148OSM   H17G16448   2.316   4.190   3.977  0.9393  0.7044  1.5750
  148OSM   C18F16449   2.112   4.160   3.975 -0.0330 -0.7843  0.1628
  148OSM   H18F16450   2.123   4.085   3.894 -0.6773 -0.3898 -0.2951
  148OSM   H18G16451   2.014   4.209   3.957 -1.9055 -4.1174  0.3623
  148OSM   H18H16452   2.100   4.095   4.064 -0.0153 -1.0962 -0.0586
  149OSM      N16453   1.066   2.499   1.997 -0.1542  0.2406 -0.3843
  149OSM    C1516454   1.112   2.383   1.920 -0.6056 -0.6249  0.6401
  149OSM   H15A16455   1.186   2.330   1.979  1.2348  1.6890  0.5708
  149OSM   H15B16456   1.178   2.423   1.843  0.4715 -2.0711  0.7735
  149OSM   H15C16457   1.040   2.318   1.874 -0.2139  0.0014 -0.9307
  149OSM    C1416458   1.171   2.606   1.999 -0.7982  0.0240  0.2264
  149OSM   H14A16459   1.264   2.574   2.045 -1.1388  0.7766  1.5020
  149OSM   H14B16460   1.147   2.692   2.060  0.9837  1.0258 -0.3939
  149OSM   H14C16461   1.186   2.643   1.899 -1.8595 -0.2015 -0.0254
  149OSM    C1316462   0.940   2.556   1.936 -0.0452  0.5811  0.0922
  149OSM   H13A16463   0.901   2.627   2.007  1.6633 -0.0768  1.7574
  149OSM   H13B16464   0.864   2.483   1.916 -0.3607  0.9987 -0.2609
  149OSM   H13C16465   0.960   2.613   1.846  0.4994 -1.1572 -0.9365
  149OSM    C1216466   1.041   2.451   2.142  0.0552 -0.0577  0.1438
  149OSM   H12A16467   0.962   2.377   2.142 -0.9085  0.9162  1.6313
  149OSM   H12B16468   1.011   2.536   2.202  2.9021  1.6686 -0.6695
  149OSM    C1116469   1.158   2.385   2.220  0.2667 -0.2446 -0.2187
  149OSM   H11A16470   1.116   2.364   2.320  1.0951  1.7502  0.6087
  149OSM   H11B16471   1.243   2.456   2.228 -0.2253  0.2311  0.8828
  149OSM      P16472   1.351   2.234   2.148  0.2879  0.1135  0.0674
  149OSM    O1316473   1.365   2.088   2.164 -0.2882 -0.3161 -0.6555
  149OSM    O1416474   1.392   2.306   2.027  0.4656 -0.0316 -0.5890
  149OSM    O1116475   1.411   2.307   2.267 -0.4999 -0.6449 -0.3755
  149OSM    O1216476   1.197   2.262   2.164  0.4740  0.0103  0.4150
  149OSM    C1S16477   1.549   2.329   2.287 -0.3032  0.0409 -0.0402
  149OSM    H1S16478   1.578   2.406   2.213 -0.3074  0.8046  0.7325
  149OSM    H1T16479   1.600   2.231   2.276  0.6783  0.7061 -1.6267
  149OSM     NF16480   1.727   2.403   2.434  0.3683  0.1267  0.4912
  149OSM    HNF16481   1.782   2.334   2.480  0.6556 -0.8256 -1.2327
  149OSM    C2S16482   1.583   2.373   2.426 -0.0448  0.4541  0.6094
  149OSM    H2S16483   1.528   2.469   2.432 -1.1346 -0.1957  1.4706
  149OSM    C3S16484   1.523   2.277   2.538 -0.2456 -0.4894 -0.0418
  149OSM    H3S16485   1.555   2.172   2.517  0.7197  0.0945 -1.7028
  149OSM     O316486   1.383   2.278   2.537 -0.2276 -0.3312 -0.2408
  149OSM    HO316487   1.357   2.303   2.448  0.5712 -0.8770 -0.6477
  149OSM    C4S16488   1.567   2.306   2.685  0.5126  0.4728  0.2396
  149OSM    H4S16489   1.633   2.232   2.731  0.3651  1.5111  2.2299
  149OSM    C5S16490   1.526   2.403   2.766 -0.2583 -0.1545 -0.3005
  149OSM    H5S16491   1.440   2.463   2.731 -1.0377  0.3293  2.1821
  149OSM    C6S16492   1.542   2.403   2.917 -0.6923 -0.7624  0.0585
  149OSM    H6S16493   1.491   2.491   2.962  0.1408 -0.6468  0.8064
  149OSM    H6T16494   1.644   2.439   2.944 -0.8017  0.2036 -0.7499
  149OSM    C7S16495   1.503   2.286   3.004 -0.0165  0.9938  0.1530
  149OSM    H7S16496   1.572   2.202   2.982  0.3246  1.1084  0.7568
  149OSM    H7T16497   1.400   2.260   2.972 -0.1060  1.5119  0.0024
  149OSM    C8S16498   1.504   2.318   3.152 -0.2934 -0.0415 -0.6107
  149OSM    H8S16499   1.433   2.401   3.169 -1.2023 -1.1549  1.3010
  149OSM    H8T16500   1.608   2.340   3.181  0.3948 -0.5500 -2.5175
  149OSM    C9S16501   1.448   2.199   3.231  0.1588 -0.0871 -0.1413
  149OSM    H9S16502   1.527   2.123   3.245 -0.9678 -0.8359  2.8186
  149OSM    H9T16503   1.374   2.149   3.164  0.4891 -0.6079 -0.1220
  149OSM   C10S16504   1.374   2.222   3.359 -0.2128  0.1332 -0.0491
  149OSM   H10S16505   1.365   2.127   3.416 -0.6704  0.0227 -0.3020
  149OSM   H10T16506   1.276   2.267   3.331 -0.1506 -0.4784 -1.3366
  149OSM   C11S16507   1.450   2.315   3.457 -0.1138 -0.3762 -0.5559
  149OSM   H11S16508   1.442   2.421   3.424  1.0017 -0.8490 -2.4715
  149OSM   H11T16509   1.559   2.298   3.447 -0.3493 -1.9099 -0.7242
  149OSM   C12S16510   1.406   2.315   3.609  0.0044  0.4326  0.1833
  149OSM   H12S16511   1.416   2.213   3.650  2.1872  0.3691 -0.3872
  149OSM   H12T16512   1.302   2.353   3.614 -0.6197 -0.8428 -1.8352
  149OSM   C13S16513   1.496   2.411   3.695 -0.0968  0.2873 -0.1907
  149OSM   H13S16514   1.489   2.518   3.665  0.8939  0.8748  1.4714
  149OSM   H13T16515   1.598   2.369   3.685 -0.1434  0.1811 -0.2223
  149OSM   C14S16516   1.456   2.398   3.839  0.2811  0.1655 -0.0072
  149OSM   H14S16517   1.442   2.292   3.869  3.0319 -0.4296 -0.5813
  149OSM   H14T16518   1.363   2.456   3.858  0.4612 -0.0404  1.6661
  149OSM   C15S16519   1.563   2.457   3.929  0.2639 -0.2243 -0.2885
  149OSM   H15S16520   1.605   2.552   3.889 -3.1441  2.1896  1.4936
  149OSM   H15T16521   1.640   2.378   3.912  1.1752  0.9626 -1.9267
  149OSM   C16S16522   1.538   2.446   4.089 -0.2682 -0.6605  0.0904
  149OSM   H16S16523   1.544   2.340   4.121  0.0869 -0.5552  0.3836
  149OSM   H16T16524   1.437   2.485   4.113 -0.5097 -0.2818 -1.4632
  149OSM   C17S16525   1.646   2.528   4.171  0.8583 -0.2617  0.1287
  149OSM   H17S16526   1.614   2.539   4.276  1.6449 -1.2631  0.4904
  149OSM   H17T16527   1.639   2.631   4.130 -2.1434 -1.1964 -2.1011
  149OSM   C18S16528   1.790   2.467   4.167  0.2399  0.0831  0.0856
  149OSM   H18S16529   1.859   2.528   4.228 -0.5716  0.1280  0.9870
  149OSM   H18T16530   1.825   2.475   4.062  1.5013  0.0543  0.4863
  149OSM   H18U16531   1.785   2.363   4.205 -3.6207  0.2166  0.3368
  149OSM    C1F16532   1.786   2.494   2.351  0.2736  0.2624  0.5954
  149OSM     OF16533   1.726   2.585   2.296 -0.7275  1.0300  0.6996
  149OSM    C2F16534   1.933   2.480   2.328  0.0602  0.8866  0.8509
  149OSM    H2F16535   1.949   2.399   2.254 -3.2108  1.0666 -0.1930
  149OSM    H2G16536   1.985   2.428   2.412  0.0088  0.3945  0.5792
  149OSM    C3F16537   2.002   2.604   2.274 -0.7010 -0.3794  0.0298
  149OSM    H3F16538   1.986   2.680   2.353  0.7646 -2.2342  2.2395
  149OSM    H3G16539   1.953   2.636   2.179 -0.5691 -0.6008 -0.1139
  149OSM    C4F16540   2.156   2.583   2.252 -0.3506 -0.2014 -0.9469
  149OSM    H4F16541   2.193   2.680   2.211 -0.2419  0.3272  0.3544
  149OSM    H4G16542   2.177   2.496   2.186  1.3625 -2.3131  2.1603
  149OSM    C5F16543   2.232   2.547   2.388  0.4712  0.5456  0.1210
  149OSM    H5F16544   2.337   2.529   2.359  0.1742  0.0783 -0.7037
  149OSM    H5G16545   2.203   2.443   2.415 -0.5840  0.9387  0.5924
  149OSM    C6F16546   2.228   2.639   2.510  0.3447 -0.0141  0.7827
  149OSM    H6F16547   2.120   2.662   2.522  0.4843  1.1974 -0.1292
  149OSM    H6G16548   2.282   2.734   2.495 -0.5516  0.5784  1.1910
  149OSM    C7F16549   2.282   2.570   2.628 -0.7094  0.0616 -0.4036
  149OSM    H7F16550   2.210   2.491   2.655 -2.4592  2.5654  3.0685
  149OSM    H7G16551   2.276   2.644   2.711  3.0648 -0.3436  0.4571
  149OSM    C8F16552   2.427   2.519   2.617 -0.0667 -0.5264 -0.5848
  149OSM    H8F16553   2.493   2.601   2.582  0.2672 -0.5321  0.0240
  149OSM    H8G16554   2.433   2.441   2.538  1.5427  0.9206 -1.9819
  149OSM    C9F16555   2.474   2.460   2.751  0.3590 -0.0028 -0.0609
  149OSM    H9F16556   2.501   2.527   2.834 -1.3912 -0.6431  1.0787
  149OSM   C10F16557   2.479   2.326   2.785 -0.3614 -0.7880 -0.8589
  149OSM   H10F16558   2.506   2.312   2.890 -0.4767  0.5452 -0.6379
  149OSM   C11F16559   2.448   2.205   2.701 -0.2308  0.6446  0.2426
  149OSM   H11F16560   2.521   2.191   2.620 -2.0691 -0.3613 -1.3165
  149OSM   H11G16561   2.348   2.218   2.655 -1.4620 -0.1175  2.5022
  149OSM   C12F16562   2.461   2.069   2.780 -0.0587 -0.5910  0.2074
  149OSM   H12F16563   2.565   2.028   2.781  0.6830  1.1436 -1.2087
  149OSM   H12G16564   2.400   1.996   2.722 -0.3799 -0.0071 -0.1975
  149OSM   C13F16565   2.404   2.056   2.924  0.0728 -0.7062 -0.4941
  149OSM   H13F16566   2.293   2.059   2.920  0.0468  2.6638  0.3358
  149OSM   H13G16567   2.425   2.149   2.981 -2.7933  1.4700 -2.7199
  149OSM   C14F16568   2.463   1.939   2.999  0.1755  0.8747  0.1913
  149OSM   H14F16569   2.569   1.962   3.027  0.1259  0.9516  0.3177
  149OSM   H14G16570   2.469   1.848   2.935  0.6777  1.2025 -0.2361
  149OSM   C15F16571   2.372   1.906   3.124 -0.1275 -0.3754 -0.3668
  149OSM   H15F16572   2.275   1.868   3.084  0.0673 -0.5951 -0.6370
  149OSM   H15G16573   2.362   2.001   3.180  3.7496 -0.0838  0.1455
  149OSM   C16F16574   2.439   1.798   3.212  0.1541 -0.5171 -0.5406
  149OSM   H16F16575   2.538   1.841   3.238  1.0453 -0.7893 -3.1679
  149OSM   H16G16576   2.459   1.705   3.154 -0.9632 -0.6266 -0.7647
  149OSM   C17F16577   2.365   1.785   3.350 -0.7188  0.4431  0.5395
  149OSM   H17F16578   2.294   1.700   3.340 -1.8345  1.2366  1.4946
  149OSM   H17G16579   2.306   1.877   3.368  2.1429  2.0876  2.2355
  149OSM   C18F16580   2.453   1.753   3.473  0.9408  0.2408  0.2276
  149OSM   H18F16581   2.506   1.847   3.501  3.7653 -0.6623 -1.6624
  149OSM   H18G16582   2.525   1.672   3.452 -0.9259 -2.2012  2.5106
  149OSM   H18H16583   2.391   1.710   3.555  1.1719 -2.7577 -1.0465
  150OSM      N16584   4.781   3.913   2.124 -0.0283 -0.2052  0.5742
  150OSM    C1516585   4.818   4.045   2.184  0.6613  0.4799 -0.4389
  150OSM   H15A16586   4.847   4.116   2.108  4.3902 -1.5025 -1.1086
  150OSM   H15B16587   4.902   4.041   2.251  1.9556 -2.0028 -2.0467
  150OSM   H15C16588   4.736   4.087   2.240  0.5309 -1.6390  1.0630
  150OSM    C1416589   4.653   3.930   2.053  0.5063  0.1117 -0.4785
  150OSM   H14A16590   4.579   3.944   2.130  2.0003 -0.2869  1.0714
  150OSM   H14B16591   4.625   3.841   1.998 -1.3340  0.6312 -0.4505
  150OSM   H14C16592   4.653   4.014   1.985  1.8548  2.1614  1.9214
  150OSM    C1316593   4.890   3.882   2.027 -0.2876  0.4568 -0.4357
  150OSM   H13A16594   4.986   3.872   2.075  0.3912  0.8599 -1.6687
  150OSM   H13B16595   4.903   3.966   1.961 -0.2550 -0.2724 -1.3840
  150OSM   H13C16596   4.860   3.790   1.978  0.9372 -0.5503  0.6313
  150OSM    C1216597   4.754   3.812   2.240  0.0583 -0.3934  0.0550
  150OSM   H12A16598   4.688   3.862   2.310 -1.1078 -0.4856 -0.9359
  150OSM   H12B16599   4.850   3.779   2.276 -0.4945 -0.2482  1.7945
  150OSM    C1116600   4.680   3.690   2.196  0.0716 -0.2250  0.4095
  150OSM   H11A16601   4.590   3.713   2.136  1.0023  0.3487 -0.8175
  150OSM   H11B16602   4.641   3.631   2.281  0.5627  0.9844  1.5138
  150OSM      P16603   4.868   3.495   2.148  0.2228 -0.1113 -0.1482
  150OSM    O1316604   4.828   3.386   2.061 -0.2185  0.6079 -0.0422
  150OSM    O1416605   5.000   3.556   2.127  0.3116 -0.2998  0.0881
  150OSM    O1116606   4.848   3.465   2.303 -0.3448  0.4264  0.7589
  150OSM    O1216607   4.757   3.608   2.111 -0.0724  0.1914  0.1919
  150OSM    C1S16608   4.775   3.342   2.346  0.3822 -0.1492 -0.0386
  150OSM    H1S16609   4.801   3.248   2.294  2.0747 -0.6412  1.5836
  150OSM    H1T16610   4.665   3.350   2.334  0.7372  2.6698 -2.8765
  150OSM     NF16611   4.764   3.179   2.535  0.0604 -0.2785  0.0795
  150OSM    HNF16612   4.727   3.181   2.628 -1.7173 -0.1714 -0.5829
  150OSM    C2S16613   4.817   3.302   2.492 -0.2774 -0.5081  0.3580
  150OSM    H2S16614   4.927   3.297   2.498 -0.3460 -1.2060  1.1204
  150OSM    C3S16615   4.778   3.424   2.589 -0.0989  0.3463 -0.1086
  150OSM    H3S16616   4.670   3.445   2.575 -0.2864  0.3320  1.1489
  150OSM     O316617   4.842   3.545   2.559 -0.5660  0.8212  0.1368
  150OSM    HO316618   4.868   3.531   2.468  0.7245  0.6554  0.5105
  150OSM    C4S16619   4.808   3.397   2.731  0.6516  0.2310 -0.1954
  150OSM    H4S16620   4.916   3.395   2.753  0.5842 -0.9691  0.0816
  150OSM    C5S16621   4.708   3.382   2.829 -0.4638  0.6193  0.0694
  150OSM    H5S16622   4.607   3.362   2.791 -0.4557  0.3693  0.1795
  150OSM    C6S16623   4.727   3.353   2.977 -0.3865 -0.2363  0.4094
  150OSM    H6S16624   4.629   3.300   2.987 -1.5906  0.2333 -5.3052
  150OSM    H6T16625   4.727   3.446   3.038  0.3191  0.0815 -0.0654
  150OSM    C7S16626   4.840   3.267   3.049 -0.8715  0.2081  0.7223
  150OSM    H7S16627   4.821   3.251   3.158  0.9987 -0.2489  1.0212
  150OSM    H7T16628   4.939   3.317   3.041 -1.4445  1.1448 -1.0489
  150OSM    C8S16629   4.860   3.128   2.990  0.2952 -1.0657  0.1020
  150OSM    H8S16630   4.906   3.142   2.890 -2.0625  1.2930 -0.7542
  150OSM    H8T16631   4.767   3.066   2.986 -0.4274 -0.0118  0.1723
  150OSM    C9S16632   4.971   3.056   3.069 -0.0897  0.2641 -0.3995
  150OSM    H9S16633   5.069   3.101   3.043 -1.0141  2.9616  0.3675
  150OSM    H9T16634   4.984   2.952   3.033  0.5599  0.6755 -1.3857
  150OSM   C10S16635   4.957   3.038   3.220  0.0510 -0.2821  0.6673
  150OSM   H10S16636   4.952   2.929   3.240 -3.3806 -0.2745  0.4204
  150OSM   H10T16637   4.857   3.067   3.258 -0.2433 -0.2051 -0.1539
  150OSM   C11S16638   5.072   3.105   3.301  0.5014  0.2894  0.7408
  150OSM   H11S16639   5.063   3.214   3.283  1.2082  0.1562 -0.5594
  150OSM   H11T16640   5.169   3.080   3.253  0.0005 -2.1072  0.8490
  150OSM   C12S16641   5.064   3.074   3.452 -0.5496 -0.0732 -0.4928
  150OSM   H12S16642   5.159   3.098   3.505 -0.9746 -0.8843  0.6787
  150OSM   H12T16643   5.055   2.963   3.454  1.4721 -0.2806 -0.8590
  150OSM   C13S16644   4.951   3.149   3.518 -0.1044  0.1870 -0.2305
  150OSM   H13S16645   4.865   3.117   3.455 -1.0117  0.5600  0.7928
  150OSM   H13T16646   4.969   3.258   3.508 -2.1689  0.6091  0.2379
  150OSM   C14S16647   4.928   3.118   3.661  0.3380  0.1926 -0.7285
  150OSM   H14S16648   5.017   3.122   3.728  0.9783 -1.4274 -1.4182
  150OSM   H14T16649   4.878   3.018   3.660  1.6221 -0.5177  0.7968
  150OSM   C15S16650   4.811   3.197   3.726 -0.4206  0.3569  0.0765
  150OSM   H15S16651   4.717   3.195   3.666 -1.2802  2.3053  1.2732
  150OSM   H15T16652   4.844   3.304   3.721  0.5680  0.0599 -0.0747
  150OSM   C16S16653   4.788   3.141   3.872 -0.4753 -0.0784 -0.3075
  150OSM   H16S16654   4.881   3.159   3.931  1.1895 -0.5786 -2.6327
  150OSM   H16T16655   4.766   3.033   3.880  1.0853 -0.3012  1.6375
  150OSM   C17S16656   4.669   3.202   3.939  0.9842 -0.2326 -0.1326
  150OSM   H17S16657   4.584   3.177   3.871  1.6065 -0.5359 -0.8144
  150OSM   H17T16658   4.673   3.313   3.937  2.2748 -0.2502  0.6312
  150OSM   C18S16659   4.652   3.148   4.080  0.0143 -0.2783 -0.2141
  150OSM   H18S16660   4.741   3.173   4.142  1.1582 -1.6835 -1.2065
  150OSM   H18T16661   4.637   3.038   4.071  2.9594 -0.6848 -1.3460
  150OSM   H18U16662   4.555   3.185   4.119  0.5767  0.6644  0.3127
  150OSM    C1F16663   4.805   3.062   2.494  0.7449  0.5418 -0.3825
  150OSM     OF16664   4.886   3.044   2.404  0.4507  0.3806  0.6138
  150OSM    C2F16665   4.754   2.945   2.579  0.3440  0.1520 -0.2334
  150OSM    H2F16666   4.645   2.960   2.596  0.2992  1.7069 -1.5769
  150OSM    H2G16667   4.819   2.951   2.669 -0.7279  4.0933  0.4545
  150OSM    C3F16668   4.774   2.814   2.503 -0.2252 -0.2259 -0.9515
  150OSM    H3F16669   4.878   2.776   2.499  0.1481  0.4389  1.0751
  150OSM    H3G16670   4.746   2.826   2.396 -2.7002  0.5655 -0.2993
  150OSM    C4F16671   4.683   2.714   2.558 -0.1163  0.4750  0.0224
  150OSM    H4F16672   4.675   2.638   2.478 -1.1650  2.8065 -2.2453
  150OSM    H4G16673   4.586   2.764   2.577  0.6639  1.7392  0.8181
  150OSM    C5F16674   4.745   2.666   2.695 -0.0530  0.5547 -0.0448
  150OSM    H5F16675   4.721   2.739   2.775  0.3126  0.0748  0.5121
  150OSM    H5G16676   4.854   2.649   2.683 -0.2202 -1.4870  0.8707
  150OSM    C6F16677   4.679   2.527   2.743 -0.0122 -0.2616 -0.2279
  150OSM    H6F16678   4.701   2.451   2.665  0.1019  0.5177 -0.9683
  150OSM    H6G16679   4.568   2.539   2.747 -0.0003 -0.1673 -0.1968
  150OSM    C7F16680   4.744   2.484   2.870  0.3883 -0.7205 -0.4163
  150OSM    H7F16681   4.732   2.573   2.937  2.4456 -0.1205 -0.7968
  150OSM    H7G16682   4.854   2.478   2.865  0.7043  1.6904  1.5536
  150OSM    C8F16683   4.679   2.375   2.960  0.0112 -0.4745  0.4693
  150OSM    H8F16684   4.686   2.272   2.920 -1.5882 -1.4582  2.5407
  150OSM    H8G16685   4.572   2.407   2.965 -0.1738 -0.4069 -2.3525
  150OSM    C9F16686   4.734   2.363   3.100 -0.4897  0.2739 -0.3175
  150OSM    H9F16687   4.796   2.276   3.125  0.7716  1.8525  2.4995
  150OSM   C10F16688   4.720   2.450   3.201  0.2129 -0.1237  0.1276
  150OSM   H10F16689   4.772   2.432   3.297  2.9702  2.1221 -0.8010
  150OSM   C11F16690   4.643   2.579   3.215  0.2914  0.0421 -0.1310
  150OSM   H11F16691   4.628   2.616   3.111 -0.1067 -2.4836 -1.0474
  150OSM   H11G16692   4.695   2.655   3.276  0.3691  0.2548 -0.4595
  150OSM   C12F16693   4.506   2.547   3.278  0.7203  0.2646 -0.0254
  150OSM   H12F16694   4.462   2.453   3.240 -1.8340  1.7184 -0.9117
  150OSM   H12G16695   4.438   2.627   3.242 -0.8603 -0.6385  0.8359
  150OSM   C13F16696   4.517   2.522   3.431  0.7653 -0.3013  0.3327
  150OSM   H13F16697   4.547   2.616   3.483 -0.3503 -0.3040  1.0158
  150OSM   H13G16698   4.590   2.442   3.451  0.8277 -0.1453  0.7466
  150OSM   C14F16699   4.391   2.473   3.480 -0.2651 -0.0065 -0.2289
  150OSM   H14F16700   4.346   2.386   3.429 -0.5326 -0.4989  0.8153
  150OSM   H14G16701   4.322   2.560   3.490  0.8822  0.8356  0.7774
  150OSM   C15F16702   4.405   2.453   3.638  0.1629 -0.2166 -0.4024
  150OSM   H15F16703   4.399   2.552   3.688  3.1919 -0.3182  0.3377
  150OSM   H15G16704   4.500   2.407   3.673 -0.6623 -0.6038  1.4586
  150OSM   C16F16705   4.294   2.373   3.707  0.4570  0.0900  0.9601
  150OSM   H16F16706   4.289   2.267   3.673 -1.0821  0.4300  0.0354
  150OSM   H16G16707   4.198   2.420   3.676  0.8350  0.1346 -0.2120
  150OSM   C17F16708   4.291   2.383   3.859  0.7147  0.0174  0.3133
  150OSM   H17F16709   4.300   2.484   3.906  0.7662 -0.5892  1.6481
  150OSM   H17G16710   4.376   2.321   3.894  0.2894  0.4016  2.1361
  150OSM   C18F16711   4.170   2.317   3.931 -0.6866 -0.0084 -0.7599
  150OSM   H18F16712   4.192   2.316   4.040  0.6126 -1.8350 -0.9994
  150OSM   H18G16713   4.154   2.210   3.909  1.5020 -0.7034  0.7557
  150OSM   H18H16714   4.082   2.385   3.926 -0.8479 -0.2695 -1.6979
  151OSM      N16715   3.980   3.781   2.060  0.5693  0.4351 -0.2513
  151OSM    C1516716   3.885   3.669   2.109 -0.5159  0.1631  0.6954
  151OSM   H15A16717   3.901   3.666   2.216  0.3209 -0.2399  0.5616
  151OSM   H15B16718   3.898   3.573   2.061  1.4564  1.3993 -1.4406
  151OSM   H15C16719   3.786   3.706   2.087 -0.2863  0.3461 -0.0715
  151OSM    C1416720   3.973   3.791   1.911  0.0025  0.1198  0.3167
  151OSM   H14A16721   4.007   3.696   1.873 -1.4182 -0.8459  1.3508
  151OSM   H14B16722   4.033   3.867   1.863 -0.1685 -0.5285 -0.9498
  151OSM   H14C16723   3.872   3.801   1.876  0.3790 -1.2952 -1.2582
  151OSM    C1316724   3.923   3.909   2.116 -0.1774  0.3106  0.2276
  151OSM   H13A16725   3.822   3.937   2.093 -0.3382  0.3389  0.9455
  151OSM   H13B16726   3.988   3.994   2.099 -2.5227  2.1043 -0.1785
  151OSM   H13C16727   3.921   3.905   2.224  1.8950  1.1346  0.3391
  151OSM    C1216728   4.122   3.749   2.106  0.0347 -0.3097  0.2073
  151OSM   H12A16729   4.139   3.643   2.112 -0.0194 -0.2482  2.1154
  151OSM   H12B16730   4.134   3.777   2.210  0.4291 -0.0235  0.0877
  151OSM    C1116731   4.246   3.804   2.035 -0.8588 -0.3061  0.3012
  151OSM   H11A16732   4.240   3.763   1.932  1.5278  0.4010 -0.1728
  151OSM   H11B16733   4.333   3.765   2.091 -1.6494  1.9027  3.3464
  151OSM      P16734   4.270   4.058   2.111 -0.5176  0.0351 -0.6991
  151OSM    O1316735   4.413   4.093   2.123 -0.8158 -0.2424  0.0928
  151OSM    O1416736   4.173   4.166   2.073 -0.3475 -0.6159  0.3658
  151OSM    O1116737   4.221   4.001   2.242  0.5403  0.2193  0.4265
  151OSM    O1216738   4.251   3.942   2.011  0.2372  0.8425  0.7661
  151OSM    C1S16739   4.169   4.063   2.360 -0.2537 -0.5914  0.4606
  151OSM    H1S16740   4.069   4.111   2.348 -0.7320 -1.6097  0.2552
  151OSM    H1T16741   4.233   4.145   2.400  0.9222 -1.0112 -0.4859
  151OSM     NF16742   4.051   3.993   2.571  0.4976  0.1568 -0.2541
  151OSM    HNF16743   4.089   4.034   2.653 -1.7645 -1.6109  1.8228
  151OSM    C2S16744   4.149   3.950   2.469  0.0669  0.4870 -0.2474
  151OSM    H2S16745   4.112   3.859   2.416  0.2507 -1.9861  3.4697
  151OSM    C3S16746   4.284   3.913   2.522  0.1457  0.4535  0.1836
  151OSM    H3S16747   4.314   4.010   2.568  0.2346  0.8740 -0.7395
  151OSM     O316748   4.385   3.879   2.425 -0.4085 -0.0044  0.8786
  151OSM    HO316749   4.346   3.911   2.343  0.9289  0.0265  0.2422
  151OSM    C4S16750   4.281   3.811   2.628 -0.1156 -0.0045  0.0074
  151OSM    H4S16751   4.311   3.854   2.725  1.3608 -0.7227 -0.1006
  151OSM    C5S16752   4.289   3.678   2.618 -0.3141 -0.0725 -0.0496
  151OSM    H5S16753   4.295   3.633   2.518 -0.0829  2.4874 -1.2543
  151OSM    C6S16754   4.312   3.570   2.725 -0.0246 -0.5723  0.3812
  151OSM    H6S16755   4.406   3.519   2.695 -0.2725  0.1017 -1.7110
  151OSM    H6T16756   4.230   3.495   2.722 -0.2647 -0.3255  0.7073
  151OSM    C7S16757   4.338   3.640   2.857 -0.0024 -0.0355 -0.7562
  151OSM    H7S16758   4.257   3.709   2.888 -1.6947 -3.0419  2.1607
  151OSM    H7T16759   4.432   3.698   2.839 -0.4254  0.4534 -1.4337
  151OSM    C8S16760   4.351   3.544   2.979  0.4764 -0.2177  0.6457
  151OSM    H8S16761   4.446   3.488   2.966 -0.1167 -1.1121  0.0746
  151OSM    H8T16762   4.271   3.467   2.980  0.8560 -0.6099  1.6570
  151OSM    C9S16763   4.345   3.612   3.116 -0.3038 -0.4323 -0.0992
  151OSM    H9S16764   4.271   3.695   3.119  3.4086  3.1935  0.7002
  151OSM    H9T16765   4.442   3.661   3.137  0.0336 -0.1956 -2.0425
  151OSM   C10S16766   4.309   3.508   3.219 -0.2174 -0.2496 -0.1244
  151OSM   H10S16767   4.284   3.409   3.175 -1.6432  1.3674 -3.3298
  151OSM   H10T16768   4.226   3.549   3.280  0.2954  2.2375 -0.9781
  151OSM   C11S16769   4.427   3.478   3.316 -0.3169  0.0942  0.9733
  151OSM   H11S16770   4.486   3.563   3.356  3.8779 -1.5556 -1.0388
  151OSM   H11T16771   4.499   3.410   3.264 -0.1802  0.4675  0.6704
  151OSM   C12S16772   4.387   3.406   3.448 -0.1255 -0.1505  0.7581
  151OSM   H12S16773   4.480   3.372   3.500 -0.7859 -1.0791  1.3774
  151OSM   H12T16774   4.338   3.309   3.427  0.7358 -0.0957 -1.8584
  151OSM   C13S16775   4.304   3.485   3.546 -0.2417 -0.6532  0.5636
  151OSM   H13S16776   4.199   3.503   3.513  0.5801  2.3317 -0.7988
  151OSM   H13T16777   4.345   3.587   3.562 -3.4712  1.1589 -1.5237
  151OSM   C14S16778   4.289   3.408   3.680 -0.2273  0.4149 -0.2285
  151OSM   H14S16779   4.387   3.362   3.707 -0.6408 -0.8111 -0.7596
  151OSM   H14T16780   4.226   3.321   3.652 -1.1277  0.5967  1.1108
  151OSM   C15S16781   4.245   3.497   3.797  0.6371  0.0751 -0.1707
  151OSM   H15S16782   4.156   3.563   3.789 -0.7649 -1.2797  2.7409
  151OSM   H15T16783   4.333   3.562   3.815  0.4954  1.0011 -2.4357
  151OSM   C16S16784   4.236   3.409   3.923 -0.1942 -0.3711  0.3993
  151OSM   H16S16785   4.306   3.324   3.918  2.2690  1.6145 -1.6857
  151OSM   H16T16786   4.131   3.372   3.921 -1.3016  2.3839  1.4406
  151OSM   C17S16787   4.249   3.486   4.057  0.1059 -0.3032  0.2897
  151OSM   H17S16788   4.177   3.570   4.052  1.0895  0.4945 -1.6576
  151OSM   H17T16789   4.354   3.522   4.065 -0.2659  1.0104 -0.5115
  151OSM   C18S16790   4.220   3.401   4.181 -0.5514 -0.3233  0.1538
  151OSM   H18S16791   4.246   3.461   4.272  0.0109  1.1307 -0.9201
  151OSM   H18T16792   4.275   3.305   4.173  0.9002  0.4054  0.8889
  151OSM   H18U16793   4.110   3.386   4.189 -0.3980 -0.8515  1.5798
  151OSM    C1F16794   3.922   4.003   2.546  0.4284 -0.5530 -0.6546
  151OSM     OF16795   3.875   3.969   2.438  0.1708  0.3128 -0.0961
  151OSM    C2F16796   3.840   4.063   2.649  0.4336  0.0764 -0.0230
  151OSM    H2F16797   3.787   4.152   2.609 -1.3231 -0.3523  1.2318
  151OSM    H2G16798   3.893   4.102   2.738 -0.2763  2.6829 -0.6518
  151OSM    C3F16799   3.716   3.979   2.698  0.3768  0.7927 -0.8749
  151OSM    H3F16800   3.748   3.876   2.724 -1.0769  0.4239 -0.4188
  151OSM    H3G16801   3.639   3.968   2.618 -1.1884 -1.7601  0.8220
  151OSM    C4F16802   3.639   4.028   2.815  0.1009 -0.1314 -0.7666
  151OSM    H4F16803   3.610   4.130   2.781 -0.4874 -1.0200 -3.1189
  151OSM    H4G16804   3.702   4.026   2.907  0.6873  0.0237 -1.1580
  151OSM    C5F16805   3.510   3.952   2.844 -0.0074 -1.0115 -0.4345
  151OSM    H5F16806   3.523   3.853   2.893  1.0735 -0.3754  0.6089
  151OSM    H5G16807   3.451   3.949   2.750  0.1539  0.9551 -0.6318
  151OSM    C6F16808   3.431   4.033   2.947 -0.8158 -0.0230 -0.5232
  151OSM    H6F16809   3.413   4.137   2.914 -0.2704 -0.6302 -2.9558
  151OSM    H6G16810   3.479   4.025   3.046 -0.3874 -0.3728 -0.7555
  151OSM    C7F16811   3.293   3.976   2.976  0.3560 -0.1659 -0.5326
  151OSM    H7F16812   3.303   3.873   3.018 -2.6692  0.3625  1.8211
  151OSM    H7G16813   3.220   3.975   2.893 -0.4022 -0.2901  0.1281
  151OSM    C8F16814   3.228   4.058   3.089  0.1254  0.5997 -0.9755
  151OSM    H8F16815   3.297   4.051   3.176  0.7565 -0.0485 -1.5163
  151OSM    H8G16816   3.142   3.990   3.108  1.8600 -0.6061  4.2712
  151OSM    C9F16817   3.178   4.201   3.059  0.0415  0.7139 -0.3462
  151OSM    H9F16818   3.092   4.197   2.991 -1.4315 -0.8456  1.4755
  151OSM   C10F16819   3.220   4.314   3.118 -0.0900  0.8801 -0.5133
  151OSM   H10F16820   3.161   4.405   3.099 -1.2866  0.1868 -0.2069
  151OSM   C11F16821   3.339   4.322   3.213  0.1450  0.3939 -0.2627
  151OSM   H11F16822   3.389   4.421   3.218 -1.2313  1.0553  3.1509
  151OSM   H11G16823   3.411   4.244   3.180 -0.1119 -0.0943  0.3281
  151OSM   C12F16824   3.298   4.271   3.353 -0.0011 -0.1304 -0.4885
  151OSM   H12F16825   3.396   4.238   3.394 -0.3805  0.2881  0.8136
  151OSM   H12G16826   3.231   4.183   3.360 -2.3599  1.5679 -0.5644
  151OSM   C13F16827   3.266   4.386   3.449  0.9051  0.9855  0.6580
  151OSM   H13F16828   3.166   4.422   3.416  0.8852 -0.6113 -1.2829
  151OSM   H13G16829   3.347   4.462   3.444  1.4648  0.4371  1.1458
  151OSM   C14F16830   3.244   4.338   3.597  0.0288 -0.3773 -0.0924
  151OSM   H14F16831   3.343   4.327   3.647  0.5880 -0.3549 -1.1533
  151OSM   H14G16832   3.191   4.241   3.594 -0.6994  0.0043  0.3314
  151OSM   C15F16833   3.143   4.435   3.678 -1.0939 -0.5029 -0.2420
  151OSM   H15F16834   3.077   4.384   3.751 -0.1575 -0.4225  0.6942
  151OSM   H15G16835   3.075   4.463   3.595 -0.1067 -0.8489 -1.2047
  151OSM   C16F16836   3.222   4.561   3.739  0.0737  1.1332 -0.4876
  151OSM   H16F16837   3.280   4.622   3.667  2.2198 -1.2550 -0.8963
  151OSM   H16G16838   3.292   4.519   3.814 -1.7980 -1.5712 -0.1196
  151OSM   C17F16839   3.120   4.652   3.803 -0.4390 -0.4037  0.8416
  151OSM   H17F16840   3.184   4.701   3.879  2.3545  0.8579 -2.1108
  151OSM   H17G16841   3.043   4.596   3.861 -1.1513 -0.0769  0.2300
  151OSM   C18F16842   3.059   4.766   3.722  0.0759 -0.1821  0.4284
  151OSM   H18F16843   3.055   4.749   3.613  0.7961  1.7759  0.0361
  151OSM   H18G16844   3.120   4.860   3.725 -2.6643  1.6941  0.9550
  151OSM   H18H16845   2.959   4.801   3.756 -1.1762  0.6304 -3.5364
  152OSM      N16846   0.033   3.628   1.867 -0.3352  0.0248  0.1781
  152OSM    C1516847   0.155   3.694   1.815 -0.6069  1.1713  0.4177
  152OSM   H15A16848   0.205   3.746   1.895  1.1081 -1.5748  1.2733
  152OSM   H15B16849   0.127   3.767   1.741  0.2728 -1.0921 -2.3571
  152OSM   H15C16850   0.217   3.622   1.763  0.8808  0.5985  2.7964
  152OSM    C1416851  -0.050   3.572   1.757  0.0692  0.1973  0.6081
  152OSM   H14A16852   0.001   3.484   1.722  1.3779  0.9745  0.4737
  152OSM   H14B16853  -0.071   3.649   1.684 -1.4984 -0.5854  0.1948
  152OSM   H14C16854  -0.148   3.545   1.792  0.0697 -0.6056  0.0226
  152OSM    C1316855   0.085   3.528   1.962 -0.4384 -0.1929 -0.1000
  152OSM   H13A16856  -0.001   3.473   1.996 -1.7448  1.5454 -0.4113
  152OSM   H13B16857   0.127   3.581   2.046 -2.2957 -2.2676  2.2856
  152OSM   H13C16858   0.146   3.449   1.921  0.8137 -1.0662  3.1721
  152OSM    C1216859  -0.045   3.732   1.944 -0.2696 -0.1830 -0.7794
  152OSM   H12A16860   0.007   3.760   2.035  0.3768 -2.0910 -0.5106
  152OSM   H12B16861  -0.140   3.696   1.980 -0.3677 -0.7579 -1.5850
  152OSM    C1116862  -0.084   3.860   1.868  0.4237 -0.0796 -0.0665
  152OSM   H11A16863  -0.153   3.917   1.934  1.3734  1.1023 -0.0543
  152OSM   H11B16864  -0.138   3.840   1.773  2.7296 -2.3773 -1.0207
  152OSM      P16865   0.096   4.032   1.960  0.1803 -0.1690 -0.0506
  152OSM    O1316866   0.240   4.040   1.937  0.0179 -0.0291  0.0154
  152OSM    O1416867   0.025   4.161   1.961  0.4534  0.4470 -0.5825
  152OSM    O1116868   0.073   3.950   2.093 -0.4653 -0.3045  0.1560
  152OSM    O1216869   0.029   3.945   1.843 -0.1087 -0.4395 -0.6221
  152OSM    C1S16870   0.122   4.012   2.215  0.5503  0.1288 -0.3245
  152OSM    H1S16871   0.051   4.095   2.232 -1.0203 -1.2661  0.2219
  152OSM    H1T16872   0.228   4.045   2.206  0.6042  0.7599  1.9681
  152OSM     NF16873   0.144   3.976   2.468 -0.5345 -0.8653  0.1875
  152OSM    HNF16874   0.232   3.959   2.512 -0.4862 -3.7073 -0.7738
  152OSM    C2S16875   0.124   3.909   2.340 -0.0534  0.0388  0.3681
  152OSM    H2S16876   0.025   3.860   2.343 -0.2762  0.4825  0.3129
  152OSM    C3S16877   0.219   3.789   2.308 -0.6307 -1.0232  0.1632
  152OSM    H3S16878   0.325   3.820   2.301 -0.7941 -0.6220 -0.6906
  152OSM     O316879   0.195   3.737   2.184  0.8579  0.3301 -0.4782
  152OSM    HO316880   0.147   3.808   2.142  1.8422  2.5612  1.9094
  152OSM    C4S16881   0.195   3.690   2.419 -0.2104 -0.2871 -0.1386
  152OSM    H4S16882   0.110   3.623   2.401 -0.2812 -0.3515  0.4422
  152OSM    C5S16883   0.273   3.686   2.530 -0.5423 -0.1214 -0.3567
  152OSM    H5S16884   0.355   3.755   2.553 -0.8199  0.1032 -0.0157
  152OSM    C6S16885   0.241   3.590   2.650 -0.0631 -0.2446 -0.5064
  152OSM    H6S16886   0.293   3.496   2.623  2.0236  1.3407 -2.4198
  152OSM    H6T16887   0.133   3.567   2.663  0.1135 -0.8174  0.0156
  152OSM    C7S16888   0.288   3.657   2.783  0.2173  0.0883 -0.1121
  152OSM    H7S16889   0.227   3.748   2.797 -1.2725 -0.8310 -0.3707
  152OSM    H7T16890   0.396   3.682   2.784  0.9732 -2.7706  0.1129
  152OSM    C8S16891   0.265   3.560   2.903  0.3456 -0.0656  0.2983
  152OSM    H8S16892   0.324   3.466   2.891  0.1755 -0.3963  1.8273
  152OSM    H8T16893   0.156   3.537   2.898 -0.6844  4.1364 -1.4612
  152OSM    C9S16894   0.297   3.623   3.037 -0.5686 -0.2561  0.1629
  152OSM    H9S16895   0.217   3.696   3.062 -0.8518 -0.4426 -0.1904
  152OSM    H9T16896   0.398   3.665   3.016 -0.4319 -1.1001 -0.9339
  152OSM   C10S16897   0.297   3.524   3.155 -0.6849 -0.1432 -0.2620
  152OSM   H10S16898   0.369   3.445   3.124 -1.5224  0.6429 -4.9295
  152OSM   H10T16899   0.194   3.484   3.165 -0.7936  0.3950  0.9531
  152OSM   C11S16900   0.345   3.585   3.293  0.0422 -0.6707  0.6811
  152OSM   H11S16901   0.276   3.668   3.321 -1.5019 -1.9205  0.6738
  152OSM   H11T16902   0.443   3.634   3.272 -0.5439  0.5143  0.6329
  152OSM   C12S16903   0.356   3.480   3.399  0.1365 -0.1002 -0.3715
  152OSM   H12S16904   0.436   3.407   3.372  0.3468 -0.5267  1.2965
  152OSM   H12T16905   0.265   3.419   3.413  1.3914 -1.8132  0.6897
  152OSM   C13S16906   0.364   3.549   3.534  0.2623 -0.0321 -0.4256
  152OSM   H13S16907   0.303   3.642   3.530  0.4325  0.1365  0.5772
  152OSM   H13T16908   0.469   3.574   3.562 -0.3768  0.4379  1.7382
  152OSM   C14S16909   0.320   3.453   3.644 -0.3084 -0.3277 -0.4748
  152OSM   H14S16910   0.353   3.351   3.613  2.1568 -0.6187  2.6518
  152OSM   H14T16911   0.210   3.466   3.638 -0.1194  1.1531 -1.0862
  152OSM   C15S16912   0.375   3.485   3.784  0.1004  0.0490  0.0686
  152OSM   H15S16913   0.375   3.595   3.796 -0.3954  0.2591 -1.5958
  152OSM   H15T16914   0.479   3.446   3.787 -0.3383 -1.1492  0.5965
  152OSM   C16S16915   0.300   3.412   3.899 -0.5254 -0.4760 -0.4315
  152OSM   H16S16916   0.377   3.389   3.975 -0.6800  0.5681  0.0533
  152OSM   H16T16917   0.241   3.326   3.858  0.6508 -1.2435 -0.5762
  152OSM   C17S16918   0.209   3.508   3.971  0.1357  0.5647 -0.5172
  152OSM   H17S16919   0.130   3.551   3.906 -1.1199  2.8155  2.2978
  152OSM   H17T16920   0.255   3.597   4.019 -0.7015 -0.1121  1.6619
  152OSM   C18S16921   0.129   3.437   4.083 -0.0272 -0.2688  0.1883
  152OSM   H18S16922   0.062   3.359   4.041 -1.4998 -0.1063  2.0926
  152OSM   H18T16923   0.071   3.511   4.143 -0.2266  1.2051 -1.7434
  152OSM   H18U16924   0.206   3.392   4.150 -0.0035  0.7249  0.8533
  152OSM    C1F16925   0.065   4.074   2.512 -0.4704  0.1714  0.3461
  152OSM     OF16926  -0.051   4.085   2.472 -0.1652 -0.1315 -0.4701
  152OSM    C2F16927   0.122   4.177   2.607  0.1581 -0.0162  0.5342
  152OSM    H2F16928   0.092   4.268   2.552  1.0395 -0.8934 -1.5423
  152OSM    H2G16929   0.233   4.173   2.617  0.0852  2.2240  3.4099
  152OSM    C3F16930   0.043   4.171   2.732  0.7351 -0.3527  0.1970
  152OSM    H3F16931  -0.067   4.168   2.715  0.8967 -0.9174 -0.8501
  152OSM    H3G16932   0.080   4.258   2.789  2.9566 -0.5100 -0.9174
  152OSM    C4F16933   0.077   4.049   2.818 -0.3378 -0.0244 -0.9983
  152OSM    H4F16934   0.183   4.029   2.793 -0.2169  1.1438 -1.5162
  152OSM    H4G16935   0.023   3.954   2.800  0.6403 -0.5010 -1.5102
  152OSM    C5F16936   0.069   4.067   2.967 -1.0833 -0.1907 -0.3026
  152OSM    H5F16937  -0.038   4.083   2.990 -1.0241  0.6363 -0.5933
  152OSM    H5G16938   0.134   4.155   2.987  0.8773 -1.3692 -1.2009
  152OSM    C6F16939   0.119   3.939   3.040 -0.1657 -0.5521  0.2928
  152OSM    H6F16940   0.221   3.908   3.009  0.4741 -0.1367  1.8825
  152OSM    H6G16941   0.050   3.853   3.024  0.2986 -0.8606 -0.0821
  152OSM    C7F16942   0.122   3.948   3.189 -0.1748  0.1637  0.2842
  152OSM    H7F16943   0.115   3.850   3.239 -0.2060  0.6055  1.1592
  152OSM    H7G16944   0.031   4.005   3.218 -1.0739 -0.7341 -0.6774
  152OSM    C8F16945   0.254   4.000   3.245  0.2759  0.2047  0.2281
  152OSM    H8F16946   0.271   4.098   3.197  0.6847  0.2961  0.5572
  152OSM    H8G16947   0.336   3.928   3.222 -0.8150 -1.3152  0.8578
  152OSM    C9F16948   0.262   4.036   3.395  0.1100  0.1013 -0.2267
  152OSM    H9F16949   0.165   4.078   3.426 -0.3080 -0.1791 -1.0880
  152OSM   C10F16950   0.361   4.021   3.477  0.0369  0.2776 -0.6397
  152OSM   H10F16951   0.329   4.044   3.580 -0.0047  0.9334 -0.7915
  152OSM   C11F16952   0.502   3.974   3.455  0.2359 -0.5451 -0.0220
  152OSM   H11F16953   0.578   4.055   3.448  0.0114 -0.0239  2.6060
  152OSM   H11G16954   0.510   3.909   3.365  1.8235 -0.9870  0.4130
  152OSM   C12F16955   0.548   3.889   3.569 -0.3771 -0.7256  0.1435
  152OSM   H12F16956   0.644   3.836   3.552 -0.4601 -0.9634  0.4013
  152OSM   H12G16957   0.477   3.813   3.607 -0.0750 -0.6582  0.8675
  152OSM   C13F16958   0.588   3.982   3.679 -0.8816 -0.1385 -1.1702
  152OSM   H13F16959   0.504   4.035   3.727 -0.8445 -0.4244 -0.7753
  152OSM   H13G16960   0.659   4.057   3.638 -0.0462 -0.9197 -1.1888
  152OSM   C14F16961   0.655   3.909   3.800  0.1683  0.0101  0.9053
  152OSM   H14F16962   0.722   3.825   3.771 -0.3464 -0.1042  0.0010
  152OSM   H14G16963   0.582   3.870   3.874  0.8702 -0.7197  1.2228
  152OSM   C15F16964   0.745   4.013   3.869 -0.2277  0.2545  0.6722
  152OSM   H15F16965   0.687   4.091   3.924 -0.3424 -0.8623  2.2211
  152OSM   H15G16966   0.807   4.061   3.791  1.3237 -0.9744  1.1003
  152OSM   C16F16967   0.830   3.944   3.976 -0.0283  0.8558 -0.1646
  152OSM   H16F16968   0.915   3.884   3.935 -0.3640 -0.8664  1.5042
  152OSM   H16G16969   0.775   3.858   4.020  0.0667 -0.2197 -2.0579
  152OSM   C17F16970   0.891   4.041   4.074 -0.1961  0.0181  0.4056
  152OSM   H17F16971   0.950   4.124   4.029  0.8285 -1.0618 -0.3211
  152OSM   H17G16972   0.961   3.988   4.142  1.0921  1.4423  0.2514
  152OSM   C18F16973   0.786   4.095   4.175 -0.0909 -0.0823  0.3390
  152OSM   H18F16974   0.731   4.012   4.224  3.6794 -1.8302  2.0220
  152OSM   H18G16975   0.704   4.148   4.123 -4.2203 -3.1821  3.0651
  152OSM   H18H16976   0.842   4.157   4.249 -1.2056  0.8112  0.4531
  153OSM      N16977   6.162   5.413   2.226 -0.7671 -0.1200  0.2781
  153OSM    C1516978   6.107   5.516   2.322 -0.6176  0.4437  1.0415
  153OSM   H15A16979   6.135   5.485   2.421 -0.7372 -0.6284  0.7487
  153OSM   H15B16980   5.999   5.512   2.327 -0.5730 -2.7753  1.4282
  153OSM   H15C16981   6.157   5.611   2.331  0.5530 -0.1397  0.8836
  153OSM    C1416982   6.135   5.458   2.087  0.7764  0.5389  0.4594
  153OSM   H14A16983   6.172   5.379   2.022  1.1774 -0.5295  1.9225
  153OSM   H14B16984   6.189   5.549   2.066 -1.5271  2.4823  2.4291
  153OSM   H14C16985   6.034   5.483   2.061  0.4460 -0.9515  0.2223
  153OSM    C1316986   6.314   5.406   2.234  0.0400 -0.7293  0.0051
  153OSM   H13A16987   6.361   5.501   2.214  0.0259 -1.1086 -2.0375
  153OSM   H13B16988   6.356   5.344   2.157  2.3937  0.5525  0.1627
  153OSM   H13C16989   6.356   5.369   2.326  1.5553  2.1473  0.5753
  153OSM    C1216990   6.097   5.283   2.232 -0.9924  0.0740  0.3432
  153OSM   H12A16991   6.125   5.222   2.147  2.1236  1.1563  0.4600
  153OSM   H12B16992   5.989   5.293   2.230 -1.1849 -1.5565  1.0541
  153OSM    C1116993   6.134   5.190   2.354  0.0537 -0.4237  0.1018
  153OSM   H11A16994   6.117   5.250   2.446 -0.0823  0.6926 -0.6224
  153OSM   H11B16995   6.244   5.176   2.354  0.2479  0.9479  0.6041
  153OSM      P16996   6.134   4.940   2.409 -0.2095 -0.5023 -0.1912
  153OSM    O1316997   6.045   4.823   2.408 -0.0472 -0.3354 -0.1685
  153OSM    O1416998   6.262   4.925   2.337  0.2386 -0.4158  0.2992
  153OSM    O1116999   6.156   4.997   2.560  0.1963 -0.2387  0.5106
  153OSM    O1217000   6.070   5.069   2.343 -0.9287  0.3996  0.2622
  153OSM    C1S17001   6.042   5.022   2.640  0.4233  0.0382  0.2286
  153OSM    H1S17002   5.979   4.932   2.658 -0.3313  0.1388 -1.7541
  153OSM    H1T17003   5.981   5.107   2.603 -1.0756 -0.3366  1.7127
  153OSM     NF17004   5.999   5.066   2.879  0.0458 -0.6536  0.0264
  153OSM    HNF17005   5.962   5.158   2.871 -0.1936 -0.8847 -2.1730
  153OSM    C2S17006   6.103   5.051   2.780  0.5390  0.8017 -0.4399
  153OSM    H2S17007   6.152   4.959   2.820 -1.5255  0.8495  2.5488
  153OSM    C3S17008   6.214   5.158   2.780 -0.2961 -0.1358 -0.2252
  153OSM    H3S17009   6.172   5.255   2.745 -1.5345 -0.4490  0.3377
  153OSM     O317010   6.332   5.127   2.702  0.1039 -0.1595 -0.1326
  153OSM    HO317011   6.300   5.062   2.639 -0.2979 -1.0499  0.9584
  153OSM    C4S17012   6.274   5.186   2.920 -0.3377 -0.4891  0.2204
  153OSM    H4S17013   6.306   5.099   2.978  4.6223  0.8496 -0.0995
  153OSM    C5S17014   6.315   5.307   2.970 -0.7158  0.3661 -0.1987
  153OSM    H5S17015   6.291   5.397   2.912  1.1567  0.9019 -0.1972
  153OSM    C6S17016   6.383   5.344   3.102  0.1792  0.2811  0.0464
  153OSM    H6S17017   6.334   5.431   3.151  1.8210  1.0445  0.4081
  153OSM    H6T17018   6.493   5.355   3.088  0.4603 -2.4648 -0.3404
  153OSM    C7S17019   6.374   5.233   3.202 -0.2770  0.1565 -0.4880
  153OSM    H7S17020   6.419   5.138   3.165  0.5124  0.4015 -0.1838
  153OSM    H7T17021   6.267   5.214   3.223 -0.5059  1.2920 -0.5378
  153OSM    C8S17022   6.439   5.271   3.336 -0.2291  0.4469 -0.3756
  153OSM    H8S17023   6.410   5.377   3.349  0.2810  0.8687 -2.3956
  153OSM    H8T17024   6.549   5.276   3.325 -0.2001 -0.8989 -0.9626
  153OSM    C9S17025   6.390   5.179   3.445 -0.2260 -0.3200 -0.1942
  153OSM    H9S17026   6.435   5.081   3.421  1.8103  0.2411  1.1013
  153OSM    H9T17027   6.280   5.189   3.455 -0.4293  0.0191 -2.3991
  153OSM   C10S17028   6.430   5.219   3.584  0.5119  0.6514  0.3942
  153OSM   H10S17029   6.401   5.326   3.587  1.1913  0.9831 -2.3561
  153OSM   H10T17030   6.541   5.219   3.594  0.8343 -2.4834 -1.7831
  153OSM   C11S17031   6.376   5.134   3.695  0.2887  0.5653 -0.3742
  153OSM   H11S17032   6.398   5.029   3.665 -1.1931  0.2144 -0.3010
  153OSM   H11T17033   6.267   5.153   3.697  0.3584  1.1398 -1.3381
  153OSM   C12S17034   6.434   5.161   3.841 -0.3029 -0.4304  0.8235
  153OSM   H12S17035   6.432   5.269   3.868  2.1040 -0.1281  0.0675
  153OSM   H12T17036   6.543   5.140   3.836 -0.4374 -0.8133 -1.3097
  153OSM   C13S17037   6.378   5.083   3.964 -0.1069 -0.6276  0.0951
  153OSM   H13S17038   6.439   5.097   4.055  1.4611  0.4518 -1.0930
  153OSM   H13T17039   6.366   4.976   3.937  0.5596 -0.2231 -1.9273
  153OSM   C14S17040   6.238   5.126   4.010  0.1437 -0.9739  1.0532
  153OSM   H14S17041   6.155   5.122   3.937 -0.1497 -0.6596  1.3691
  153OSM   H14T17042   6.240   5.236   4.025  0.0714 -0.4266 -2.2351
  153OSM   C15S17043   6.188   5.049   4.138 -0.5102  0.1723  0.5272
  153OSM   H15S17044   6.247   5.074   4.228 -1.6838 -0.6102  1.5499
  153OSM   H15T17045   6.206   4.941   4.123  0.1037  0.3616 -0.1824
  153OSM   C16S17046   6.047   5.071   4.164  0.9696 -0.3584 -0.1058
  153OSM   H16S17047   5.986   5.025   4.083  1.3377  2.0452 -1.8522
  153OSM   H16T17048   6.030   5.181   4.161 -1.4237 -0.6713  0.2983
  153OSM   C17S17049   5.993   5.012   4.298 -0.3477  0.4575  0.2352
  153OSM   H17S17050   6.030   4.909   4.317 -0.2892  0.1902 -1.2341
  153OSM   H17T17051   5.883   4.997   4.296 -0.2506 -0.5575  1.2419
  153OSM   C18S17052   6.024   5.101   4.421  0.1171 -0.4434 -0.1673
  153OSM   H18S17053   5.968   5.197   4.420 -0.6393 -0.8738  0.2774
  153OSM   H18T17054   6.135   5.105   4.425  0.2154 -1.3700 -1.4225
  153OSM   H18U17055   5.997   5.043   4.511  0.3186 -2.7969 -1.5439
  153OSM    C1F17056   5.913   4.961   2.912 -0.3681  0.6383  0.3886
  153OSM     OF17057   5.945   4.845   2.873  0.1937 -0.1059 -0.4656
  153OSM    C2F17058   5.791   4.992   2.998 -0.6160  0.0120  0.5419
  153OSM    H2F17059   5.725   5.072   2.960  0.0004  0.0982 -0.4055
  153OSM    H2G17060   5.836   5.022   3.095  0.8796  3.4931 -1.0509
  153OSM    C3F17061   5.708   4.863   3.012  0.4458  0.3184 -0.6925
  153OSM    H3F17062   5.769   4.781   3.056 -0.4024  0.3194  0.5221
  153OSM    H3G17063   5.674   4.838   2.910 -0.8922  0.8291 -0.3956
  153OSM    C4F17064   5.592   4.880   3.113  0.1752  0.1205 -0.1534
  153OSM    H4F17065   5.527   4.791   3.099  0.4140 -0.6342  2.8043
  153OSM    H4G17066   5.540   4.977   3.097  2.2785  1.3741  0.2175
  153OSM    C5F17067   5.649   4.881   3.251 -0.5614 -0.2831  0.5176
  153OSM    H5F17068   5.723   4.963   3.266 -0.3511 -0.4072  0.1689
  153OSM    H5G17069   5.704   4.785   3.259  0.9084  0.5908  1.3047
  153OSM    C6F17070   5.542   4.904   3.354 -0.4783  0.5489  0.3244
  153OSM    H6F17071   5.462   4.830   3.332  0.3843 -0.4200  0.3759
  153OSM    H6G17072   5.490   5.002   3.350 -3.1003 -0.7864 -1.1724
  153OSM    C7F17073   5.584   4.874   3.498 -1.1129 -0.1147 -1.1073
  153OSM    H7F17074   5.640   4.964   3.534 -2.1832  0.3640 -0.6150
  153OSM    H7G17075   5.652   4.787   3.506 -0.3075  0.6723  1.8738
  153OSM    C8F17076   5.458   4.842   3.578 -0.4101 -0.6174 -0.1256
  153OSM    H8F17077   5.397   4.758   3.538 -0.0719 -1.3766  0.9268
  153OSM    H8G17078   5.394   4.933   3.577  0.5557  0.0867 -1.4922
  153OSM    C9F17079   5.492   4.806   3.720  0.8240 -0.6128  0.5299
  153OSM    H9F17080   5.491   4.698   3.738  0.2957 -0.6363  0.3677
  153OSM   C10F17081   5.528   4.886   3.824  0.4110 -1.1640  1.0183
  153OSM   H10F17082   5.565   4.828   3.910 -1.1252 -1.2014  1.6953
  153OSM   C11F17083   5.533   5.037   3.833 -0.4371  0.3918 -0.0089
  153OSM   H11F17084   5.480   5.084   3.747  0.0102 -0.4394 -0.7535
  153OSM   H11G17085   5.636   5.078   3.828 -0.9041  1.4712 -2.3420
  153OSM   C12F17086   5.475   5.085   3.965  0.1799 -0.0388  0.1389
  153OSM   H12F17087   5.374   5.043   3.985  0.8693 -1.5975  0.5242
  153OSM   H12G17088   5.478   5.195   3.959  0.5072 -0.0600 -0.1243
  153OSM   C13F17089   5.554   5.048   4.095 -0.1007 -0.4347  0.0890
  153OSM   H13F17090   5.649   5.106   4.101  0.0850 -0.8564  1.7774
  153OSM   H13G17091   5.565   4.938   4.088 -2.6282 -0.8824  1.6990
  153OSM   C14F17092   5.461   5.071   4.225  0.2719  0.4165  0.0962
  153OSM   H14F17093   5.354   5.047   4.207  0.9584 -3.1702  0.1082
  153OSM   H14G17094   5.465   5.180   4.247 -0.3173  0.1439  1.6773
  153OSM   C15F17095   5.504   4.988   4.348  0.4774  0.7009  0.4195
  153OSM   H15F17096   5.594   5.038   4.390 -1.0509  3.3918  0.7103
  153OSM   H15G17097   5.531   4.884   4.322  1.1498  0.9481  0.1026
  153OSM   C16F17098   5.409   4.983   4.467 -0.3931  0.6241  0.3453
  153OSM   H16F17099   5.315   4.940   4.426 -0.5562  0.0551  1.2851
  153OSM   H16G17100   5.399   5.083   4.514  1.4673  0.7324  0.5910
  153OSM   C17F17101   5.469   4.893   4.584 -0.4642  0.3142 -0.2210
  153OSM   H17F17102   5.561   4.930   4.633 -1.3724 -1.0548  2.7181
  153OSM   H17G17103   5.487   4.789   4.548  1.2190 -0.2354  2.0120
  153OSM   C18F17104   5.361   4.874   4.694 -0.0777  0.4051  0.4759
  153OSM   H18F17105   5.383   4.792   4.766  1.8298 -1.3436 -1.9523
  153OSM   H18G17106   5.262   4.851   4.648  0.2366 -0.2649  0.1210
  153OSM   H18H17107   5.350   4.971   4.747 -0.9835  1.5525 -1.6872
  154OSM      N17108   4.241   2.120   1.884  0.4749 -0.4790  0.7440
  154OSM    C1517109   4.185   2.008   1.798  1.1485  0.0396 -0.5824
  154OSM   H15A17110   4.079   2.025   1.815  0.8584 -2.0577  0.0216
  154OSM   H15B17111   4.207   1.911   1.839  1.5521  0.7045  0.8242
  154OSM   H15C17112   4.209   2.017   1.693  0.7326 -3.6867 -1.1491
  154OSM    C1417113   4.391   2.104   1.885  0.1362 -0.5894  0.2820
  154OSM   H14A17114   4.420   2.012   1.934 -0.3016  0.1230  1.9356
  154OSM   H14B17115   4.429   2.193   1.933 -2.5203  0.1432  1.1700
  154OSM   H14C17116   4.435   2.104   1.786 -2.0745 -2.6256 -0.8000
  154OSM    C1317117   4.214   2.256   1.824  0.3751  0.0292 -0.2609
  154OSM   H13A17118   4.232   2.336   1.894 -0.8479 -0.0438  0.1678
  154OSM   H13B17119   4.112   2.263   1.788  0.6101 -1.3559 -1.3029
  154OSM   H13C17120   4.265   2.277   1.731  0.4368  0.9914 -0.0146
  154OSM    C1217121   4.182   2.111   2.029 -1.1496 -0.0231 -1.3320
  154OSM   H12A17122   4.196   2.206   2.079 -0.0004  0.3695 -2.3637
  154OSM   H12B17123   4.238   2.031   2.074 -1.9677 -0.2454 -0.6775
  154OSM    C1117124   4.028   2.077   2.045 -0.3369 -0.1774  0.0685
  154OSM   H11A17125   4.002   2.085   2.153  1.9368  2.2959  0.5352
  154OSM   H11B17126   4.004   1.975   2.009 -2.3359  0.5478 -0.7529
  154OSM      P17127   3.908   2.308   2.037  0.0965 -0.1187 -0.0538
  154OSM    O1317128   3.950   2.417   1.945  0.3741  0.5479 -0.3984
  154OSM    O1417129   3.765   2.304   2.061  0.1442 -0.0056 -0.0842
  154OSM    O1117130   3.989   2.325   2.173  0.5420  0.3411 -0.3176
  154OSM    O1217131   3.951   2.170   1.966  0.4300  0.0755  0.0733
  154OSM    C1S17132   4.033   2.455   2.225 -0.5545  0.5381  0.1448
  154OSM    H1S17133   3.971   2.542   2.195 -0.9088  0.7408  1.3857
  154OSM    H1T17134   4.137   2.479   2.193  0.6493 -1.5066  2.2254
  154OSM     NF17135   4.095   2.569   2.437  0.5017  0.2871 -0.1508
  154OSM    HNF17136   4.185   2.563   2.481  0.0489 -1.1823  0.6305
  154OSM    C2S17137   4.041   2.449   2.379  0.0606  0.6482 -0.7285
  154OSM    H2S17138   3.935   2.435   2.410  0.7026 -0.1993  1.1753
  154OSM    C3S17139   4.125   2.328   2.433  0.4898 -0.1557 -0.2095
  154OSM    H3S17140   4.230   2.345   2.401  0.8597 -1.4865  0.2232
  154OSM     O317141   4.088   2.208   2.367 -0.3323 -0.2989 -0.0680
  154OSM    HO317142   4.045   2.241   2.288 -0.3505 -0.8893 -0.3151
  154OSM    C4S17143   4.123   2.316   2.580  0.1733  0.2795  0.5772
  154OSM    H4S17144   4.031   2.271   2.620 -1.3665 -0.5117 -3.3707
  154OSM    C5S17145   4.221   2.346   2.671 -0.0007  0.3364  0.8431
  154OSM    H5S17146   4.326   2.366   2.643  0.0559 -2.9234 -1.9204
  154OSM    C6S17147   4.202   2.330   2.818  0.2784 -0.4463  0.0640
  154OSM    H6S17148   4.282   2.275   2.870  0.9183  0.9335  0.5953
  154OSM    H6T17149   4.108   2.275   2.841  0.8143 -1.7173 -0.6646
  154OSM    C7S17150   4.171   2.460   2.888 -0.6394  0.2855  0.4692
  154OSM    H7S17151   4.074   2.495   2.848 -0.8015 -2.1491 -1.5209
  154OSM    H7T17152   4.237   2.548   2.875 -2.7659  1.8128 -0.5244
  154OSM    C8S17153   4.150   2.448   3.036 -0.0511  0.2309 -0.5485
  154OSM    H8S17154   4.247   2.418   3.081 -0.2446  1.0956  0.4624
  154OSM    H8T17155   4.081   2.367   3.068 -0.2906  0.6828  0.1064
  154OSM    C9S17156   4.105   2.575   3.102  0.4023  0.4508  1.3660
  154OSM    H9S17157   4.012   2.623   3.064  0.9981 -0.2418 -1.1973
  154OSM    H9T17158   4.187   2.646   3.081 -0.9275  1.4339 -0.9410
  154OSM   C10S17159   4.092   2.553   3.255  0.1406 -0.3413  0.1211
  154OSM   H10S17160   4.191   2.527   3.299  0.8852  0.1520 -1.1779
  154OSM   H10T17161   4.025   2.468   3.278 -0.2446 -0.1589 -0.3018
  154OSM   C11S17162   4.027   2.673   3.336 -0.0789  0.9958  1.0144
  154OSM   H11S17163   3.928   2.697   3.292 -0.5458 -0.2380  1.3701
  154OSM   H11T17164   4.101   2.756   3.326  0.8293  0.1841  0.8919
  154OSM   C12S17165   4.022   2.626   3.486  0.3688  0.3845  0.4657
  154OSM   H12S17166   4.122   2.620   3.534  0.2748 -2.5116  0.4894
  154OSM   H12T17167   3.982   2.522   3.490 -0.3814  0.5248 -1.7703
  154OSM   C13S17168   3.928   2.726   3.568  0.0043  0.1013 -0.2208
  154OSM   H13S17169   3.837   2.745   3.506  0.6326 -2.5093 -2.1291
  154OSM   H13T17170   3.978   2.821   3.594 -2.4278  1.6430 -0.8907
  154OSM   C14S17171   3.876   2.661   3.700 -0.5705 -0.3343  0.2468
  154OSM   H14S17172   3.814   2.740   3.747 -0.8352 -1.0935  1.2068
  154OSM   H14T17173   3.968   2.645   3.759 -1.4712 -1.5840  1.3754
  154OSM   C15S17174   3.786   2.539   3.688  0.0248 -0.0580  0.2549
  154OSM   H15S17175   3.843   2.444   3.681  0.0950 -0.0820  1.0382
  154OSM   H15T17176   3.731   2.551   3.592 -2.6324  0.1391  1.7124
  154OSM   C16S17177   3.689   2.516   3.806  0.5265 -0.0146  1.2272
  154OSM   H16S17178   3.648   2.618   3.823 -0.8225 -0.0715 -1.3170
  154OSM   H16T17179   3.756   2.475   3.884  1.8581 -2.3480 -0.9927
  154OSM   C17S17180   3.574   2.415   3.783  0.0898  0.4533 -0.3420
  154OSM   H17S17181   3.494   2.417   3.861 -1.0010 -1.4709 -1.3440
  154OSM   H17T17182   3.617   2.316   3.808 -1.4652  0.1241  1.2784
  154OSM   C18S17183   3.498   2.409   3.648  0.4361 -0.3513 -0.0995
  154OSM   H18S17184   3.411   2.339   3.646  1.2440 -1.3972  0.5820
  154OSM   H18T17185   3.579   2.380   3.578  0.9592  3.0359 -1.0574
  154OSM   H18U17186   3.465   2.513   3.625 -1.7338 -0.4422  2.1080
  154OSM    C1F17187   4.027   2.684   2.437 -0.0979 -0.4576  0.4284
  154OSM     OF17188   3.917   2.693   2.389 -0.0161 -0.2249  0.0777
  154OSM    C2F17189   4.089   2.799   2.504 -0.1469 -0.0240 -0.5094
  154OSM    H2F17190   4.110   2.881   2.431  4.8809 -0.2710  0.2758
  154OSM    H2G17191   4.186   2.767   2.548 -0.7069 -2.7428 -1.0608
  154OSM    C3F17192   4.007   2.852   2.619  0.3125  0.0450 -0.6339
  154OSM    H3F17193   3.906   2.884   2.588  0.7698 -0.2861 -2.5647
  154OSM    H3G17194   4.064   2.944   2.645  1.0009 -0.6601  0.4112
  154OSM    C4F17195   4.005   2.750   2.732  1.0299 -0.6233  0.1248
  154OSM    H4F17196   4.107   2.737   2.774  1.4291  2.0758  0.1486
  154OSM    H4G17197   3.978   2.655   2.681 -2.4353  0.1827  0.2492
  154OSM    C5F17198   3.899   2.786   2.835 -0.5216 -0.2821  0.0389
  154OSM    H5F17199   3.866   2.686   2.871  0.8434 -0.4288  0.9447
  154OSM    H5G17200   3.811   2.836   2.790 -0.1610  1.9634  1.6391
  154OSM    C6F17201   3.951   2.882   2.941 -0.0639 -0.6941  0.0524
  154OSM    H6F17202   3.965   2.982   2.896 -0.5325 -1.0010 -0.7909
  154OSM    H6G17203   4.039   2.842   2.996 -0.2921 -0.7998  0.3483
  154OSM    C7F17204   3.840   2.922   3.045 -0.1901 -0.6512  0.0237
  154OSM    H7F17205   3.771   2.836   3.064 -1.9068  0.3637 -1.3366
  154OSM    H7G17206   3.770   2.990   2.993 -0.5038  0.3505  1.6966
  154OSM    C8F17207   3.881   2.993   3.172 -0.0052 -0.3703 -0.3916
  154OSM    H8F17208   3.918   2.915   3.243  0.2468 -1.0303 -1.2344
  154OSM    H8G17209   3.793   3.037   3.223 -0.4268  1.5382 -2.6500
  154OSM    C9F17210   3.991   3.098   3.163  0.3395  0.1153 -0.0207
  154OSM    H9F17211   4.013   3.130   3.060  0.3071 -1.8863 -0.6838
  154OSM   C10F17212   4.038   3.173   3.258 -0.4185  0.9139  0.7554
  154OSM   H10F17213   4.113   3.246   3.226 -1.2373  0.4043 -2.7548
  154OSM   C11F17214   4.031   3.149   3.409  0.8238 -0.2581 -0.2195
  154OSM   H11F17215   4.121   3.173   3.468  1.2736 -0.2695 -0.8940
  154OSM   H11G17216   4.008   3.041   3.424 -0.0891 -0.2866 -1.5650
  154OSM   C12F17217   3.916   3.237   3.457 -0.0242 -0.2994 -0.7319
  154OSM   H12F17218   3.869   3.205   3.553  0.7552 -0.6503 -0.4581
  154OSM   H12G17219   3.827   3.230   3.391 -2.0317  1.7663  1.5383
  154OSM   C13F17220   3.956   3.388   3.471  0.0690  0.5816 -0.8025
  154OSM   H13F17221   3.994   3.432   3.376  1.3528 -0.1402 -0.6427
  154OSM   H13G17222   4.035   3.400   3.548  0.5252 -1.5330 -0.8858
  154OSM   C14F17223   3.840   3.472   3.526 -1.0645 -0.8465  0.2861
  154OSM   H14F17224   3.822   3.439   3.630 -0.3022  0.4407  0.8485
  154OSM   H14G17225   3.746   3.466   3.467 -0.4410 -0.0100 -0.8477
  154OSM   C15F17226   3.863   3.623   3.523  0.3000  0.2615 -0.6101
  154OSM   H15F17227   3.858   3.662   3.419  0.0986  1.0522 -0.3123
  154OSM   H15G17228   3.970   3.641   3.548  0.2573  1.3885 -1.1506
  154OSM   C16F17229   3.764   3.708   3.606 -0.1564  0.0010  0.3064
  154OSM   H16F17230   3.657   3.697   3.575  0.3533  0.2801 -1.6649
  154OSM   H16G17231   3.789   3.812   3.580  2.2487 -0.9048 -1.2976
  154OSM   C17F17232   3.764   3.697   3.755  0.4226  0.3774 -0.0825
  154OSM   H17F17233   3.851   3.763   3.772 -0.1379  1.2956 -0.6972
  154OSM   H17G17234   3.804   3.605   3.803 -0.2871 -0.8711 -1.7675
  154OSM   C18F17235   3.628   3.747   3.823  0.0266 -0.2835  0.8700
  154OSM   H18F17236   3.626   3.852   3.787 -0.5987 -0.4271  0.4856
  154OSM   H18G17237   3.634   3.746   3.934 -1.6685 -0.8450  0.9840
  154OSM   H18H17238   3.537   3.689   3.797  0.8060 -2.2653  2.3683
  155OSM      N17239   0.007   0.120   2.171  0.5580 -0.3740 -0.1030
  155OSM    C1517240  -0.105   0.097   2.265 -0.2881 -0.2319  0.1734
  155OSM   H15A17241  -0.152   0.004   2.234 -0.0972 -0.6694  1.1661
  155OSM   H15B17242  -0.184   0.165   2.235  2.5686  2.0338 -2.9037
  155OSM   H15C17243  -0.083   0.091   2.370  0.3390 -0.4175  0.0327
  155OSM    C1417244   0.113   0.023   2.207 -0.1007 -0.4424 -0.2648
  155OSM   H14A17245   0.151   0.053   2.304  1.2014 -2.7179  0.0000
  155OSM   H14B17246   0.193   0.023   2.134  1.5536  0.1059  1.4503
  155OSM   H14C17247   0.078  -0.079   2.215 -2.1716  0.1482 -1.2004
  155OSM    C1317248  -0.042   0.100   2.034  1.0278  0.0871  0.3006
  155OSM   H13A17249   0.032   0.118   1.956 -3.7129  2.5332 -4.2600
  155OSM   H13B17250  -0.116   0.173   2.006 -0.4566 -1.6064 -0.4036
  155OSM   H13C17251  -0.082   0.000   2.027  0.4635  0.0748  2.9494
  155OSM    C1217252   0.054   0.267   2.189 -0.2561  0.7142 -0.0234
  155OSM   H12A17253   0.123   0.291   2.110 -0.6024  3.3486  0.3686
  155OSM   H12B17254   0.098   0.266   2.288  0.6109  1.3194 -0.3925
  155OSM    C1117255  -0.048   0.390   2.191  0.1216  0.3078 -0.0535
  155OSM   H11A17256   0.014   0.482   2.191  0.4935  0.1319  2.4850
  155OSM   H11B17257  -0.113   0.384   2.281  1.3883  1.2621  0.9662
  155OSM      P17258  -0.285   0.387   2.068  0.4049 -0.1805 -0.4418
  155OSM    O1317259  -0.327   0.381   1.925  0.0757 -0.1576  0.0675
  155OSM    O1417260  -0.334   0.282   2.161  0.2220  0.3415 -0.2817
  155OSM    O1117261  -0.323   0.526   2.122  0.0983 -0.4388 -0.2162
  155OSM    O1217262  -0.127   0.386   2.074 -0.4887 -0.6010 -0.1679
  155OSM    C1S17263  -0.420   0.549   2.227 -0.0102  0.1655  0.0347
  155OSM    H1S17264  -0.459   0.459   2.280  0.6853  1.0345  2.1227
  155OSM    H1T17265  -0.504   0.609   2.187 -0.9017 -1.1291 -0.1121
  155OSM     NF17266  -0.465   0.637   2.440 -0.2009  0.0557 -0.3789
  155OSM    HNF17267  -0.538   0.704   2.424  0.2697  0.5184 -0.6211
  155OSM    C2S17268  -0.359   0.638   2.339  0.3426 -0.0390 -0.5302
  155OSM    H2S17269  -0.269   0.586   2.377 -0.0635  1.0482  2.1368
  155OSM    C3S17270  -0.319   0.779   2.288 -0.1180  0.7801 -0.6839
  155OSM    H3S17271  -0.416   0.820   2.253 -1.4036 -1.0993  0.5742
  155OSM     O317272  -0.225   0.784   2.185  0.1512  0.0127 -0.2606
  155OSM    HO317273  -0.197   0.694   2.169  2.7280  0.2348  2.2618
  155OSM    C4S17274  -0.268   0.866   2.406 -0.3866  1.1267  0.1972
  155OSM    H4S17275  -0.349   0.937   2.429  1.0180  2.5515  0.8666
  155OSM    C5S17276  -0.151   0.860   2.471 -0.0240 -0.0594 -0.1037
  155OSM    H5S17277  -0.078   0.783   2.440 -0.2441 -0.2312 -0.1995
  155OSM    C6S17278  -0.095   0.944   2.579  0.4922 -0.4881  0.5873
  155OSM    H6S17279  -0.157   1.036   2.580 -1.7605 -1.8704 -1.2823
  155OSM    H6T17280   0.008   0.983   2.559  0.0528 -0.0319 -0.9379
  155OSM    C7S17281  -0.090   0.872   2.719 -0.5740 -0.1066  0.3153
  155OSM    H7S17282  -0.001   0.805   2.715  0.0246  0.5151  2.2793
  155OSM    H7T17283  -0.176   0.804   2.731 -1.1104  0.3690 -0.6643
  155OSM    C8S17284  -0.069   0.977   2.827  0.0004 -0.3158 -0.0508
  155OSM    H8S17285  -0.153   1.050   2.832  1.0023  0.7873  1.5937
  155OSM    H8T17286   0.017   1.045   2.810 -1.1298  1.4631  0.9259
  155OSM    C9S17287  -0.058   0.918   2.970 -0.7044  0.2060 -0.2027
  155OSM    H9S17288   0.030   0.849   2.966 -0.5803  0.3315  0.3095
  155OSM    H9T17289  -0.148   0.854   2.981  0.4217 -1.0747  2.1950
  155OSM   C10S17290  -0.026   1.020   3.081 -0.0607 -0.1239 -0.0825
  155OSM   H10S17291  -0.099   1.101   3.101 -0.4203 -0.6260  0.6722
  155OSM   H10T17292   0.066   1.078   3.059  0.8035 -1.6146 -0.4987
  155OSM   C11S17293  -0.014   0.955   3.217  0.1761  0.3880 -1.2876
  155OSM   H11S17294   0.035   0.855   3.219 -0.8629 -0.1255  0.0053
  155OSM   H11T17295  -0.112   0.927   3.261  0.4359 -0.6864 -1.3681
  155OSM   C12S17296   0.064   1.033   3.329 -0.0727  0.4666  0.5540
  155OSM   H12S17297   0.016   1.130   3.352 -1.0018 -0.0297  0.7761
  155OSM   H12T17298   0.165   1.050   3.288 -0.0147 -0.5367  0.2528
  155OSM   C13S17299   0.076   0.945   3.459  0.3754 -0.3281  0.5153
  155OSM   H13S17300   0.125   0.846   3.448 -1.2232 -1.1691  0.6759
  155OSM   H13T17301  -0.029   0.922   3.486  0.5584 -0.3837  1.1837
  155OSM   C14S17302   0.140   1.011   3.583 -0.6007  0.3095 -0.4863
  155OSM   H14S17303   0.095   1.110   3.603  0.4877  0.4450  1.5172
  155OSM   H14T17304   0.242   1.023   3.541  0.0502 -1.6749  0.3950
  155OSM   C15S17305   0.123   0.922   3.707 -0.2767 -0.1491 -0.3551
  155OSM   H15S17306   0.174   0.825   3.695  1.7798  0.7001  0.9190
  155OSM   H15T17307   0.016   0.897   3.723 -0.4042 -0.5929 -1.8048
  155OSM   C16S17308   0.183   0.987   3.836 -0.1411  0.5767  0.0171
  155OSM   H16S17309   0.164   1.096   3.841  1.1463  0.8292 -0.1171
  155OSM   H16T17310   0.291   0.966   3.817 -0.1772  0.1234  0.2877
  155OSM   C17S17311   0.139   0.930   3.974  0.7492 -0.1362 -0.2220
  155OSM   H17S17312   0.155   0.820   3.979 -0.8994 -0.3544  2.5939
  155OSM   H17T17313   0.029   0.937   3.991  0.4489 -0.7762 -1.7655
  155OSM   C18S17314   0.206   0.992   4.098  0.0708 -0.3617  0.1274
  155OSM   H18S17315   0.158   0.960   4.193  0.7969 -1.1495  0.2442
  155OSM   H18T17316   0.202   1.102   4.085  0.5690 -0.0968  1.9045
  155OSM   H18U17317   0.309   0.952   4.108 -0.7193 -2.2123  1.5736
  155OSM    C1F17318  -0.479   0.537   2.524  0.3632  0.6404  0.5539
  155OSM     OF17319  -0.394   0.446   2.523 -0.2153  0.4821  0.1205
  155OSM    C2F17320  -0.611   0.537   2.601 -0.1580 -0.5248 -0.2436
  155OSM    H2F17321  -0.698   0.519   2.535 -0.8292  0.7512  0.2706
  155OSM    H2G17322  -0.620   0.644   2.629  1.1779 -0.1221 -1.2591
  155OSM    C3F17323  -0.613   0.434   2.715  0.2323 -0.7023 -0.3984
  155OSM    H3F17324  -0.537   0.471   2.788 -1.3166  0.1412  0.8324
  155OSM    H3G17325  -0.580   0.332   2.684 -0.4732 -0.9180 -0.4380
  155OSM    C4F17326  -0.750   0.429   2.781  0.4597 -0.0438  0.4773
  155OSM    H4F17327  -0.827   0.401   2.705  0.1078 -2.2723  1.5881
  155OSM    H4G17328  -0.765   0.533   2.815 -0.3445  0.8327 -2.2325
  155OSM    C5F17329  -0.764   0.324   2.888  0.7823 -0.2948 -0.2850
  155OSM    H5F17330  -0.740   0.222   2.850  0.8339 -0.3147 -0.2002
  155OSM    H5G17331  -0.871   0.330   2.918  1.0414  2.3484  0.3171
  155OSM    C6F17332  -0.686   0.359   3.010  0.4895  0.1155 -0.3396
  155OSM    H6F17333  -0.685   0.469   3.024  2.7776  0.2241 -0.9409
  155OSM    H6G17334  -0.578   0.337   3.000  0.6104  1.7252 -4.5508
  155OSM    C7F17335  -0.740   0.292   3.144 -0.3962 -0.7670  0.2284
  155OSM    H7F17336  -0.736   0.181   3.135  3.7285 -0.8529  1.0455
  155OSM    H7G17337  -0.847   0.321   3.145 -0.8970 -2.1401 -2.8357
  155OSM    C8F17338  -0.668   0.316   3.274  0.4067 -0.2846  0.6457
  155OSM    H8F17339  -0.589   0.239   3.280 -1.4848 -2.4468 -0.7192
  155OSM    H8G17340  -0.734   0.286   3.358 -0.2226 -0.1891  0.1893
  155OSM    C9F17341  -0.616   0.456   3.282  0.7370 -0.7980 -0.4058
  155OSM    H9F17342  -0.513   0.467   3.244  0.2305 -2.0558 -2.3123
  155OSM   C10F17343  -0.677   0.566   3.336  0.0395 -0.5842 -0.4554
  155OSM   H10F17344  -0.631   0.665   3.348 -0.1368 -0.7369  1.9972
  155OSM   C11F17345  -0.816   0.561   3.385  0.8880  0.0512  0.0735
  155OSM   H11F17346  -0.870   0.465   3.393 -1.7970  1.3915 -0.6853
  155OSM   H11G17347  -0.878   0.617   3.311  1.4667 -0.5300 -0.8709
  155OSM   C12F17348  -0.835   0.619   3.526  0.8770  0.1147 -0.4481
  155OSM   H12F17349  -0.943   0.620   3.552  0.9599  0.9586 -0.1183
  155OSM   H12G17350  -0.787   0.718   3.540  1.8620  0.1035 -3.1415
  155OSM   C13F17351  -0.764   0.526   3.629  0.3404 -0.2297  0.2958
  155OSM   H13F17352  -0.655   0.516   3.609  0.2708  0.7026 -0.6103
  155OSM   H13G17353  -0.805   0.424   3.614  2.1353 -0.7679 -1.4719
  155OSM   C14F17354  -0.781   0.549   3.777 -0.2136 -0.3774  0.0276
  155OSM   H14F17355  -0.707   0.629   3.803  2.3331 -2.1429 -1.3595
  155OSM   H14G17356  -0.740   0.463   3.835  1.4207 -0.3203 -0.9636
  155OSM   C15F17357  -0.917   0.601   3.823  0.4720  0.2766 -0.2010
  155OSM   H15F17358  -0.991   0.519   3.836  1.0019 -0.0740  0.7597
  155OSM   H15G17359  -0.951   0.687   3.761 -1.2798  0.0422  0.3849
  155OSM   C16F17360  -0.898   0.669   3.967 -0.0724 -0.3982  0.0437
  155OSM   H16F17361  -0.840   0.763   3.959 -0.1196 -0.1750  1.8674
  155OSM   H16G17362  -0.836   0.596   4.024 -0.2884  0.2826  1.1933
  155OSM   C17F17363  -1.037   0.682   4.045 -0.7347  0.9804  0.6776
  155OSM   H17F17364  -1.076   0.579   4.060  0.1879  0.4235 -0.5680
  155OSM   H17G17365  -1.098   0.753   3.986  2.1147  1.0284 -2.5198
  155OSM   C18F17366  -1.017   0.752   4.180 -0.2532  0.3783 -0.6246
  155OSM   H18F17367  -0.991   0.859   4.161  1.8813 -0.0595 -0.4211
  155OSM   H18G17368  -0.939   0.712   4.248 -0.2582 -0.6156 -1.1843
  155OSM   H18H17369  -1.113   0.745   4.235  0.2699  1.8374  0.5585
  156OSM      N17370   2.217   0.529   1.999  0.4422 -0.4078 -0.2635
  156OSM    C1517371   2.159   0.446   1.900 -0.3492  0.3711  0.3665
  156OSM   H15A17372   2.190   0.345   1.921  0.6154  0.7643  0.9032
  156OSM   H15B17373   2.177   0.478   1.798 -2.5665 -3.7939 -1.6093
  156OSM   H15C17374   2.055   0.472   1.910 -0.0175  1.7127  0.5326
  156OSM    C1417375   2.358   0.495   2.021 -0.1957 -0.1404  0.6245
  156OSM   H14A17376   2.362   0.412   2.089  0.2489 -0.9826 -0.3892
  156OSM   H14B17377   2.407   0.578   2.069  1.9114  0.0742 -1.6676
  156OSM   H14C17378   2.419   0.483   1.932 -1.1465  2.1002 -0.4010
  156OSM    C1317379   2.207   0.669   1.945  0.6900  0.0531 -0.1886
  156OSM   H13A17380   2.219   0.741   2.025 -3.1351  1.5116 -0.7032
  156OSM   H13B17381   2.112   0.693   1.900  0.0645 -0.2605  0.9187
  156OSM   H13C17382   2.280   0.677   1.866 -1.2800 -1.9142 -2.3603
  156OSM    C1217383   2.131   0.518   2.128  0.5708 -0.4638  0.8799
  156OSM   H12A17384   2.026   0.530   2.103  0.9889  0.6601 -0.4589
  156OSM   H12B17385   2.156   0.604   2.187 -0.3995  0.7354 -0.3817
  156OSM    C1117386   2.135   0.384   2.197  0.1612  0.9212  0.5282
  156OSM   H11A17387   2.082   0.391   2.294 -0.4041 -0.4704  0.3363
  156OSM   H11B17388   2.241   0.370   2.228  0.8745  4.0064 -0.1757
  156OSM      P17389   1.924   0.259   2.108 -0.0203 -0.0015 -0.3318
  156OSM    O1317390   1.864   0.388   2.083  0.0730 -0.3597  0.1771
  156OSM    O1417391   1.894   0.142   2.018  0.0632  0.0877 -0.5065
  156OSM    O1117392   1.876   0.230   2.255 -0.3489  0.2437  0.0609
  156OSM    O1217393   2.083   0.282   2.116 -0.3218  0.6043 -0.0165
  156OSM    C1S17394   1.934   0.126   2.337  0.0300  0.3568  0.4879
  156OSM    H1S17395   2.044   0.139   2.340  0.2448 -1.4075  1.1301
  156OSM    H1T17396   1.923   0.024   2.295  0.7898  0.3991  0.1818
  156OSM     NF17397   1.960   0.036   2.571  0.2304  0.2385  0.2033
  156OSM    HNF17398   1.925  -0.054   2.596  0.5137  0.0090 -0.2260
  156OSM    C2S17399   1.881   0.128   2.484  0.8355 -0.1744  0.0318
  156OSM    H2S17400   1.884   0.230   2.529 -0.1500 -0.6714  1.3187
  156OSM    C3S17401   1.733   0.089   2.471 -0.1822  0.4344 -0.6394
  156OSM    H3S17402   1.734  -0.016   2.433 -0.1191 -0.2992  1.2618
  156OSM     O317403   1.655   0.160   2.374  0.6674  0.4746  0.2692
  156OSM    HO317404   1.724   0.193   2.317  0.2766 -0.4809 -0.7883
  156OSM    C4S17405   1.660   0.087   2.598  0.2793  0.1232 -0.6024
  156OSM    H4S17406   1.657   0.181   2.656  0.0323 -0.3983  0.2494
  156OSM    C5S17407   1.580  -0.019   2.643 -0.0266 -0.8543  0.0019
  156OSM    H5S17408   1.559  -0.111   2.587 -0.6121 -0.8394  0.1955
  156OSM    C6S17409   1.507  -0.008   2.768  0.2919  0.7326  0.4664
  156OSM    H6S17410   1.401  -0.027   2.744  1.0853 -1.4155 -1.7832
  156OSM    H6T17411   1.514   0.099   2.799  1.7159  0.0414  2.7689
  156OSM    C7S17412   1.552  -0.087   2.895 -0.8888 -0.2943  0.5931
  156OSM    H7S17413   1.660  -0.067   2.909 -0.3634 -0.8903 -2.1312
  156OSM    H7T17414   1.534  -0.197   2.892 -1.8687 -0.1377  0.5157
  156OSM    C8S17415   1.478  -0.043   3.020  0.8006  0.3830  0.1167
  156OSM    H8S17416   1.376  -0.075   2.993  1.2950 -2.1170  0.9713
  156OSM    H8T17417   1.468   0.067   3.035  1.7193  0.3921  0.8147
  156OSM    C9S17418   1.531  -0.119   3.141 -0.2822 -0.0690  0.4952
  156OSM    H9S17419   1.642  -0.125   3.135 -0.2342  0.9293  0.0965
  156OSM    H9T17420   1.492  -0.222   3.128 -1.9057  0.7826 -2.1068
  156OSM   C10S17421   1.490  -0.052   3.270 -0.0266 -0.1119 -0.3075
  156OSM   H10S17422   1.385  -0.017   3.276 -0.2900 -0.9298 -0.0394
  156OSM   H10T17423   1.549   0.042   3.255  0.5004 -0.5390 -0.9422
  156OSM   C11S17424   1.541  -0.137   3.390  0.1942 -0.9608  0.6455
  156OSM   H11S17425   1.651  -0.148   3.387  0.2387 -0.9595  1.8599
  156OSM   H11T17426   1.502  -0.240   3.381 -0.9744 -0.6815  2.1032
  156OSM   C12S17427   1.493  -0.085   3.528  0.2294  0.5384  0.8134
  156OSM   H12S17428   1.384  -0.105   3.543  0.0366 -0.1739 -1.2246
  156OSM   H12T17429   1.505   0.025   3.529 -2.9096  1.0771 -2.2033
  156OSM   C13S17430   1.589  -0.156   3.623 -0.7617  0.3485  0.1394
  156OSM   H13S17431   1.691  -0.133   3.585 -0.1494 -2.0515  0.1748
  156OSM   H13T17432   1.576  -0.266   3.631  0.5575  0.1818  0.2470
  156OSM   C14S17433   1.582  -0.095   3.766  0.2307  0.1601 -0.2988
  156OSM   H14S17434   1.606   0.013   3.767  1.6573 -0.0777  2.5114
  156OSM   H14T17435   1.665  -0.141   3.824 -1.1423  0.5968  2.1505
  156OSM   C15S17436   1.447  -0.104   3.834 -0.0746  0.0576 -0.7166
  156OSM   H15S17437   1.437  -0.210   3.866  0.7112  0.3944  0.7423
  156OSM   H15T17438   1.363  -0.086   3.763 -1.9606  1.1486  1.6255
  156OSM   C16S17439   1.427  -0.014   3.966 -0.5838 -0.0384 -0.6460
  156OSM   H16S17440   1.431   0.095   3.948  1.5457  0.8399  3.7885
  156OSM   H16T17441   1.520  -0.028   4.025  0.3054  1.1977 -1.6783
  156OSM   C17S17442   1.307  -0.065   4.044 -0.0364  1.0699  0.1694
  156OSM   H17S17443   1.311  -0.176   4.038  2.2219  1.1618 -1.7025
  156OSM   H17T17444   1.213  -0.038   3.991  0.3913  2.0728 -0.1044
  156OSM   C18S17445   1.307  -0.012   4.186 -0.5495  0.0692 -0.8229
  156OSM   H18S17446   1.371  -0.076   4.250  0.5418  1.1460 -0.7891
  156OSM   H18T17447   1.206  -0.007   4.231 -0.5706  1.4395 -0.9691
  156OSM   H18U17448   1.346   0.093   4.187 -0.4076  0.0141 -0.1611
  156OSM    C1F17449   2.083   0.060   2.611  0.6836  0.3334  0.0709
  156OSM     OF17450   2.146   0.154   2.567 -0.4318 -0.1779  0.0858
  156OSM    C2F17451   2.134  -0.028   2.715  0.6264  0.1348 -0.4435
  156OSM    H2F17452   2.122  -0.136   2.693 -2.7107 -0.6296  3.9051
  156OSM    H2G17453   2.079  -0.002   2.807  1.7604 -0.9287  0.5727
  156OSM    C3F17454   2.281   0.001   2.745  0.0276 -0.2916  0.3659
  156OSM    H3F17455   2.275   0.103   2.789  0.0856  0.0979 -0.5227
  156OSM    H3G17456   2.351  -0.008   2.660 -3.3469 -2.0043 -2.5006
  156OSM    C4F17457   2.342  -0.071   2.864 -0.6558  0.3982  0.2371
  156OSM    H4F17458   2.450  -0.045   2.868 -0.3364 -0.6287 -1.0556
  156OSM    H4G17459   2.329  -0.180   2.848  0.4533  0.6596 -3.2866
  156OSM    C5F17460   2.290  -0.020   2.994 -0.3229  0.1620  0.4818
  156OSM    H5F17461   2.188  -0.053   3.023 -0.1116 -0.6170  0.3418
  156OSM    H5G17462   2.281   0.091   2.994 -0.7606  0.1310  0.7705
  156OSM    C6F17463   2.389  -0.059   3.109  0.5537 -0.4029  0.4335
  156OSM    H6F17464   2.491  -0.015   3.099  0.8070 -0.9597  0.5185
  156OSM    H6G17465   2.397  -0.169   3.092 -1.8108 -0.3995 -1.2475
  156OSM    C7F17466   2.334  -0.025   3.251  0.6677  0.1007 -0.3935
  156OSM    H7F17467   2.230  -0.062   3.258  0.5847 -0.0830 -2.1460
  156OSM    H7G17468   2.329   0.084   3.270  1.4413  0.1992 -0.7026
  156OSM    C8F17469   2.418  -0.091   3.359  0.4982 -0.4941 -0.4350
  156OSM    H8F17470   2.380  -0.045   3.452 -2.9904 -1.4741 -1.2217
  156OSM    H8G17471   2.523  -0.056   3.349  0.4985  0.4577  2.1319
  156OSM    C9F17472   2.399  -0.241   3.385  0.3555 -0.5803  0.6899
  156OSM    H9F17473   2.416  -0.305   3.297 -0.6643 -1.1371  0.8772
  156OSM   C10F17474   2.341  -0.301   3.497 -0.1927 -0.4435 -0.3354
  156OSM   H10F17475   2.340  -0.411   3.504 -1.2768 -0.3783  0.9491
  156OSM   C11F17476   2.302  -0.236   3.627  0.0442  0.0453 -0.6085
  156OSM   H11F17477   2.203  -0.281   3.650  0.4627 -0.8164 -0.4638
  156OSM   H11G17478   2.278  -0.127   3.621  1.6141  0.6205  2.0068
  156OSM   C12F17479   2.403  -0.263   3.743  0.1440  0.3214 -0.0562
  156OSM   H12F17480   2.492  -0.204   3.714 -0.2226  1.1159  0.4100
  156OSM   H12G17481   2.428  -0.370   3.758 -0.1997 -0.0280 -1.8100
  156OSM   C13F17482   2.352  -0.214   3.881 -0.4608  0.4468 -0.3862
  156OSM   H13F17483   2.268  -0.277   3.916 -0.1962  1.0975  1.5466
  156OSM   H13G17484   2.320  -0.108   3.875 -0.6516  0.4004 -0.1869
  156OSM   C14F17485   2.465  -0.234   3.980 -0.1767  0.2146  0.2176
  156OSM   H14F17486   2.550  -0.177   3.935  0.4912  0.1267  1.3373
  156OSM   H14G17487   2.502  -0.338   3.983 -0.9784 -0.1062 -0.5403
  156OSM   C15F17488   2.446  -0.185   4.119  0.4732 -0.1512  0.1051
  156OSM   H15F17489   2.428  -0.076   4.114 -1.9891 -0.5367 -2.8517
  156OSM   H15G17490   2.540  -0.200   4.176  0.7930 -1.4806 -0.7202
  156OSM   C16F17491   2.342  -0.244   4.206 -0.0482  0.3463 -0.7619
  156OSM   H16F17492   2.329  -0.353   4.186 -0.9135  0.4566 -0.7928
  156OSM   H16G17493   2.248  -0.186   4.198  0.9362  1.8237 -2.2086
  156OSM   C17F17494   2.381  -0.220   4.352  0.2744  0.5159 -0.2778
  156OSM   H17F17495   2.406  -0.112   4.362  1.3187  0.5277 -2.3751
  156OSM   H17G17496   2.477  -0.265   4.385  1.6101  3.8725  0.8480
  156OSM   C18F17497   2.277  -0.263   4.454  0.4871  0.1586  0.4366
  156OSM   H18F17498   2.272  -0.374   4.446  0.9501  0.3045 -3.4021
  156OSM   H18G17499   2.183  -0.225   4.407 -0.1423 -0.2467  1.3295
  156OSM   H18H17500   2.294  -0.225   4.557  1.4272  1.1377 -0.0648
  157OSM      N17501   1.858   1.258   2.018  0.2882  0.6131  0.3336
  157OSM    C1517502   1.915   1.351   1.918  0.0437 -0.0325 -0.6661
  157OSM   H15A17503   1.866   1.446   1.925  0.6872  0.3935 -1.6361
  157OSM   H15B17504   1.899   1.309   1.819 -1.8238 -1.7340  0.2966
  157OSM   H15C17505   2.021   1.370   1.929  0.3658 -1.6108 -0.8211
  157OSM    C1417506   1.798   1.341   2.124 -0.1182  0.3278  0.0353
  157OSM   H14A17507   1.713   1.298   2.175 -0.5196  2.1454  0.9869
  157OSM   H14B17508   1.749   1.416   2.064  1.1717  0.4895 -0.8457
  157OSM   H14C17509   1.869   1.394   2.184 -0.2093  0.1007  0.3459
  157OSM    C1317510   1.746   1.182   1.962  0.3810 -0.0568 -0.4406
  157OSM   H13A17511   1.703   1.107   2.026  3.7847 -2.6820 -0.9582
  157OSM   H13B17512   1.770   1.117   1.879 -0.0294 -1.2925  0.3971
  157OSM   H13C17513   1.665   1.248   1.933 -1.7743 -1.1916  2.5171
  157OSM    C1217514   1.962   1.163   2.058 -0.4552  0.4540  0.5471
  157OSM   H12A17515   2.018   1.133   1.970 -0.1721 -0.0433  0.8933
  157OSM   H12B17516   1.921   1.072   2.099  1.7696 -1.4620 -1.1565
  157OSM    C1117517   2.066   1.218   2.160  0.4358 -0.0915  0.0012
  157OSM   H11A17518   2.013   1.253   2.251  0.8101  0.2369  0.0948
  157OSM   H11B17519   2.125   1.300   2.115 -2.3818  2.2358  0.2773
  157OSM      P17520   2.279   1.135   2.286 -0.5068 -0.3547 -0.0775
  157OSM    O1317521   2.364   1.010   2.284 -0.1299 -0.3040  0.9319
  157OSM    O1417522   2.339   1.270   2.260 -0.5436  0.4556 -0.1876
  157OSM    O1117523   2.205   1.144   2.418  0.3465  0.6361 -0.4197
  157OSM    O1217524   2.158   1.112   2.190  0.3471 -0.1133 -0.6885
  157OSM    C1S17525   2.109   1.037   2.445  0.3281 -0.8330 -0.4426
  157OSM    H1S17526   2.154   0.935   2.450 -0.7372 -1.3892 -1.6780
  157OSM    H1T17527   2.027   1.035   2.370  0.3925 -2.2639 -0.5064
  157OSM     NF17528   1.985   0.956   2.648  0.1333 -1.1233  0.1139
  157OSM    HNF17529   1.888   0.931   2.649  0.0306 -0.8125  2.6012
  157OSM    C2S17530   2.043   1.078   2.590  0.1179  0.5375 -0.2831
  157OSM    H2S17531   2.128   1.106   2.655  0.2854 -0.4957 -0.0290
  157OSM    C3S17532   1.944   1.198   2.585 -0.1516 -0.0060 -0.7364
  157OSM    H3S17533   1.864   1.167   2.515  0.6510  1.0921 -2.2206
  157OSM     O317534   1.990   1.314   2.521 -0.5225 -0.4275 -0.3574
  157OSM    HO317535   2.077   1.282   2.496  0.2073  0.0261  1.4193
  157OSM    C4S17536   1.885   1.223   2.725 -0.0801 -0.2733  0.5137
  157OSM    H4S17537   1.794   1.162   2.734  0.1586 -1.3314 -2.7673
  157OSM    C5S17538   1.930   1.295   2.826  0.3263  0.3363 -0.5647
  157OSM    H5S17539   2.026   1.347   2.818  0.2534  0.3245 -1.7114
  157OSM    C6S17540   1.853   1.306   2.957 -0.2151  0.0052  1.1410
  157OSM    H6S17541   1.838   1.414   2.980 -1.8789  0.0600 -0.0558
  157OSM    H6T17542   1.924   1.265   3.032  0.1148 -0.1488  0.7464
  157OSM    C7S17543   1.717   1.227   2.967  0.7166 -0.2823  0.5732
  157OSM    H7S17544   1.733   1.119   2.947 -0.6373 -0.3240 -0.4243
  157OSM    H7T17545   1.654   1.261   2.882  0.2459  1.5469  1.6034
  157OSM    C8S17546   1.641   1.240   3.104 -0.1663  0.3448 -0.5020
  157OSM    H8S17547   1.542   1.189   3.102  0.5906 -1.1736 -0.6740
  157OSM    H8T17548   1.630   1.347   3.130 -2.7163 -0.1359  0.7117
  157OSM    C9S17549   1.734   1.185   3.218  0.1370 -0.7463  0.0850
  157OSM    H9S17550   1.817   1.255   3.242 -0.4799  0.1273 -0.2708
  157OSM    H9T17551   1.774   1.088   3.182 -0.1840 -0.2739 -1.6650
  157OSM   C10S17552   1.666   1.152   3.348 -0.2585  0.0294 -0.3010
  157OSM   H10S17553   1.597   1.067   3.329 -0.9863  0.9275 -1.9212
  157OSM   H10T17554   1.605   1.239   3.381 -1.4244 -1.3755  1.4474
  157OSM   C11S17555   1.752   1.126   3.468 -0.3429 -0.0002  0.3617
  157OSM   H11S17556   1.842   1.191   3.474 -0.2858  0.0079 -0.4267
  157OSM   H11T17557   1.785   1.021   3.462 -0.2368  0.0348  0.3265
  157OSM   C12S17558   1.664   1.161   3.595 -0.2105  0.2767  0.5807
  157OSM   H12S17559   1.557   1.136   3.579 -0.1587  0.0635  0.5728
  157OSM   H12T17560   1.669   1.272   3.598 -1.1371  0.3475 -0.1390
  157OSM   C13S17561   1.716   1.105   3.731 -0.1899  0.0338  0.7101
  157OSM   H13S17562   1.826   1.093   3.725 -0.0135  0.7985  1.9509
  157OSM   H13T17563   1.664   1.010   3.757  0.1210 -0.9795 -2.0767
  157OSM   C14S17564   1.684   1.203   3.852  0.3208  0.4930 -0.3882
  157OSM   H14S17565   1.575   1.228   3.850 -0.5766 -2.9734 -2.7266
  157OSM   H14T17566   1.741   1.296   3.828 -0.3943  0.6098 -1.7462
  157OSM   C15S17567   1.726   1.165   3.995 -0.1500 -0.5501  0.9623
  157OSM   H15S17568   1.686   1.241   4.066 -2.7303  0.0150 -0.9720
  157OSM   H15T17569   1.837   1.169   4.004 -0.2380  2.2714  1.7271
  157OSM   C16S17570   1.680   1.025   4.038  0.2045  0.4036  0.1704
  157OSM   H16S17571   1.683   0.948   3.958 -1.6231  0.1254  0.3278
  157OSM   H16T17572   1.573   1.031   4.066  0.2775 -0.9491  0.8115
  157OSM   C17S17573   1.747   0.973   4.167  0.9912  1.4574  0.6022
  157OSM   H17S17574   1.734   1.040   4.254 -0.0870 -0.6779  2.1770
  157OSM   H17T17575   1.856   0.962   4.149  1.0955 -1.7067  2.4281
  157OSM   C18S17576   1.688   0.838   4.212  0.4303 -0.1218  0.7661
  157OSM   H18S17577   1.585   0.858   4.248  0.0260 -0.0920 -0.3790
  157OSM   H18T17578   1.734   0.807   4.309 -0.0413 -0.2695  0.9494
  157OSM   H18U17579   1.687   0.755   4.138 -1.5666 -0.7619  1.4305
  157OSM    C1F17580   2.057   0.860   2.697 -0.7602  0.1904 -0.3986
  157OSM     OF17581   2.176   0.863   2.674  0.2234  0.3381 -0.3817
  157OSM    C2F17582   1.996   0.758   2.782 -0.3210  0.1772 -0.4345
  157OSM    H2F17583   2.072   0.677   2.797 -1.5095 -0.5995  1.9506
  157OSM    H2G17584   1.902   0.714   2.743  0.1158 -0.8107 -0.4061
  157OSM    C3F17585   1.971   0.829   2.917 -0.4490 -0.3233 -0.3671
  157OSM    H3F17586   1.907   0.919   2.904  0.6517  0.3432 -1.4182
  157OSM    H3G17587   2.063   0.868   2.965 -1.3385  0.9548  0.3450
  157OSM    C4F17588   1.904   0.737   3.018  0.0962  0.6358 -0.2641
  157OSM    H4F17589   1.978   0.655   3.031  0.9068  1.7671  3.6055
  157OSM    H4G17590   1.806   0.704   2.976 -0.4240 -0.5813  1.7403
  157OSM    C5F17591   1.864   0.799   3.153  0.2857  0.5477  0.2989
  157OSM    H5F17592   1.770   0.857   3.144  0.7779  1.1792 -1.1441
  157OSM    H5G17593   1.941   0.869   3.193 -1.4686  2.3777  0.6411
  157OSM    C6F17594   1.853   0.691   3.266  0.4186  0.1277 -0.1302
  157OSM    H6F17595   1.943   0.628   3.286  0.6395  0.0433 -1.3254
  157OSM    H6G17596   1.776   0.623   3.224 -0.4491  0.8740  0.2192
  157OSM    C7F17597   1.805   0.750   3.395 -0.5247 -0.3877  0.1090
  157OSM    H7F17598   1.713   0.808   3.370  1.1595  2.3739 -0.1810
  157OSM    H7G17599   1.881   0.831   3.404  0.3270 -1.1248 -0.2688
  157OSM    C8F17600   1.802   0.650   3.509  0.8470  0.4790  0.1855
  157OSM    H8F17601   1.902   0.602   3.510  0.7457  0.1525 -2.0714
  157OSM    H8G17602   1.735   0.565   3.485  1.1573  0.6805 -1.5097
  157OSM    C9F17603   1.773   0.733   3.628  0.4919 -0.4381  0.5509
  157OSM    H9F17604   1.720   0.826   3.603 -0.0104 -0.7132  0.5789
  157OSM   C10F17605   1.816   0.713   3.756 -0.5636 -0.4346  0.2934
  157OSM   H10F17606   1.798   0.802   3.819  0.7535 -0.1766  0.3451
  157OSM   C11F17607   1.882   0.586   3.818  0.4624 -0.2943  0.1212
  157OSM   H11F17608   1.977   0.618   3.865 -0.1698  0.5315  0.8749
  157OSM   H11G17609   1.909   0.511   3.740  1.1681 -0.7785  0.8246
  157OSM   C12F17610   1.811   0.541   3.951 -0.0092 -0.5124 -0.1293
  157OSM   H12F17611   1.809   0.634   4.013  1.2374  0.6849 -1.7929
  157OSM   H12G17612   1.877   0.465   3.998  1.0218 -0.8169 -1.9978
  157OSM   C13F17613   1.662   0.487   3.924 -0.0346  0.2864 -0.5438
  157OSM   H13F17614   1.662   0.401   3.854  2.6880 -0.6994  0.5584
  157OSM   H13G17615   1.596   0.568   3.886 -0.7299  0.4155  0.8825
  157OSM   C14F17616   1.600   0.435   4.053  0.1802 -0.2555  0.6037
  157OSM   H14F17617   1.493   0.413   4.032 -0.2105  2.5127 -0.8380
  157OSM   H14G17618   1.609   0.512   4.133  0.1339 -0.2243  0.5788
  157OSM   C15F17619   1.659   0.300   4.114  0.8232  0.5095  0.4073
  157OSM   H15F17620   1.770   0.307   4.106  0.7152  2.5252 -0.0594
  157OSM   H15G17621   1.634   0.221   4.040 -0.2277  1.7560 -0.6188
  157OSM   C16F17622   1.594   0.261   4.244 -0.5993  1.0067 -0.1997
  157OSM   H16F17623   1.484   0.256   4.231 -0.7898 -0.5273  1.6083
  157OSM   H16G17624   1.614   0.353   4.303  1.3654  1.2987 -1.2124
  157OSM   C17F17625   1.655   0.134   4.293 -0.1008 -0.8515  0.2234
  157OSM   H17F17626   1.766   0.142   4.294 -0.0493 -1.4668  0.3187
  157OSM   H17G17627   1.640   0.069   4.204 -0.1416 -1.2966  0.5533
  157OSM   C18F17628   1.586   0.073   4.417 -0.3648 -0.0265 -0.1117
  157OSM   H18F17629   1.578   0.144   4.502  0.7825 -0.7707  0.6523
  157OSM   H18G17630   1.657   0.002   4.465  0.0204  1.5888  1.8659
  157OSM   H18H17631   1.484   0.040   4.390 -0.6254  0.3878  0.3602
  158OSM      N17632   5.853   6.618   2.168 -0.1133 -1.2861  0.1499
  158OSM    C1517633   5.738   6.582   2.252 -0.2181 -0.1287  0.0696
  158OSM   H15A17634   5.688   6.668   2.294  0.0589 -0.6010  1.4116
  158OSM   H15B17635   5.775   6.516   2.329 -0.9386 -0.5168  0.0969
  158OSM   H15C17636   5.661   6.535   2.192 -0.2832  0.3646 -0.2374
  158OSM    C1417637   5.903   6.495   2.106  0.0989  0.4807  0.8719
  158OSM   H14A17638   5.826   6.455   2.040  0.9686  1.3677 -0.7314
  158OSM   H14B17639   5.928   6.420   2.180 -2.4225  0.7567  2.1207
  158OSM   H14C17640   5.988   6.515   2.044 -0.3262 -2.2251 -0.7922
  158OSM    C1317641   5.812   6.718   2.064  0.6613  0.3778 -0.5645
  158OSM   H13A17642   5.765   6.810   2.098  1.2315  0.4798 -0.0336
  158OSM   H13B17643   5.754   6.662   1.993  1.9175 -2.6424  0.6067
  158OSM   H13C17644   5.896   6.737   1.999  0.4074  2.1271 -0.4297
  158OSM    C1217645   5.958   6.676   2.267 -0.1599  0.1448 -0.0497
  158OSM   H12A17646   5.909   6.748   2.331  1.2620  0.6613  0.4743
  158OSM   H12B17647   6.035   6.729   2.213  1.5351 -2.2742 -0.1765
  158OSM    C1117648   6.057   6.581   2.341  0.0177 -1.1064 -0.2386
  158OSM   H11A17649   6.091   6.642   2.427 -1.7722  1.3037 -1.1126
  158OSM   H11B17650   6.146   6.547   2.285 -0.9482 -0.5884 -2.1835
  158OSM      P17651   6.023   6.330   2.407 -0.2187 -0.0573 -0.1041
  158OSM    O1317652   5.910   6.248   2.448  0.1924  0.1197 -0.6050
  158OSM    O1417653   6.076   6.289   2.277 -0.3292 -0.1216 -0.1875
  158OSM    O1117654   6.134   6.313   2.518  0.2908  0.1147 -0.0280
  158OSM    O1217655   5.982   6.479   2.410 -0.2615 -0.1011  0.2370
  158OSM    C1S17656   6.130   6.362   2.650 -0.9226 -0.3329  0.2107
  158OSM    H1S17657   6.093   6.466   2.651  0.4029  0.1524  0.3879
  158OSM    H1T17658   6.230   6.355   2.698 -0.9892 -0.8723  0.2877
  158OSM     NF17659   6.021   6.341   2.872  0.2130  0.4547  0.4207
  158OSM    HNF17660   6.084   6.325   2.947 -0.0351 -0.1671  0.5031
  158OSM    C2S17661   6.048   6.276   2.745  0.2114  0.3833 -0.2483
  158OSM    H2S17662   5.949   6.256   2.697  1.2286 -2.2339 -1.4533
  158OSM    C3S17663   6.123   6.141   2.772 -0.0175 -0.4350 -0.2892
  158OSM    H3S17664   6.214   6.152   2.836 -0.3107  3.7472 -0.2715
  158OSM     O317665   6.165   6.081   2.653  0.1222 -0.3165 -0.1630
  158OSM    HO317666   6.157   6.158   2.596  0.1985 -0.9785 -1.0678
  158OSM    C4S17667   6.025   6.047   2.844  0.3161 -0.3358  0.3299
  158OSM    H4S17668   5.923   6.051   2.805  0.6770  0.0076 -0.6181
  158OSM    C5S17669   6.054   5.958   2.941  0.0649  0.5801 -0.0497
  158OSM    H5S17670   6.158   5.951   2.976 -0.0760 -1.3193  0.0960
  158OSM    C6S17671   5.961   5.853   3.010 -0.3291 -0.0405  0.2743
  158OSM    H6S17672   5.997   5.749   2.990 -2.3369 -0.5160 -1.2534
  158OSM    H6T17673   5.868   5.870   2.951  0.0835  1.0311 -0.0902
  158OSM    C7S17674   5.943   5.855   3.162 -0.2845 -0.0704 -0.2929
  158OSM    H7S17675   5.870   5.777   3.192  0.8778 -1.4725 -0.9988
  158OSM    H7T17676   5.888   5.946   3.194 -2.2558 -0.8518 -1.3004
  158OSM    C8S17677   6.074   5.824   3.239 -0.4418 -0.1248 -0.3642
  158OSM    H8S17678   6.149   5.897   3.201  1.4069 -0.6513  2.0630
  158OSM    H8T17679   6.108   5.722   3.213  1.7778  0.2193  0.9716
  158OSM    C9S17680   6.044   5.837   3.387  0.3659 -0.0769  0.3670
  158OSM    H9S17681   5.990   5.745   3.420 -1.7919  1.1548  0.4052
  158OSM    H9T17682   5.970   5.919   3.396  0.2904 -0.0976 -0.0410
  158OSM   C10S17683   6.161   5.871   3.483 -0.3040 -0.6398  0.4012
  158OSM   H10S17684   6.194   5.975   3.465 -1.5336 -0.3113 -0.0601
  158OSM   H10T17685   6.242   5.797   3.465 -1.2273 -1.0857 -2.4968
  158OSM   C11S17686   6.125   5.888   3.631  0.2439  0.2670  0.1808
  158OSM   H11S17687   6.097   5.788   3.672 -2.4886  0.6433 -0.5762
  158OSM   H11T17688   6.027   5.940   3.642  0.8895  1.1595  1.9467
  158OSM   C12S17689   6.223   5.957   3.721 -0.2088 -0.2453 -0.0878
  158OSM   H12S17690   6.232   6.066   3.701 -0.9462  0.1289  1.5002
  158OSM   H12T17691   6.323   5.917   3.694 -0.1496 -0.5732  0.6011
  158OSM   C13S17692   6.192   5.916   3.869 -0.7545  0.3074  0.8945
  158OSM   H13S17693   6.179   5.805   3.872 -0.3896  0.2318  0.0720
  158OSM   H13T17694   6.095   5.961   3.898 -1.9214 -1.1771 -0.4845
  158OSM   C14S17695   6.313   5.970   3.962  0.2421 -0.0922 -0.6175
  158OSM   H14S17696   6.310   6.080   3.954  0.3779 -0.2403 -3.5574
  158OSM   H14T17697   6.409   5.937   3.917  0.5096 -1.0802  0.6222
  158OSM   C15S17698   6.296   5.919   4.104  0.7373  0.1723 -0.8920
  158OSM   H15S17699   6.270   5.811   4.108  0.1048  0.3009 -1.4518
  158OSM   H15T17700   6.210   5.973   4.147 -1.7656  0.2241 -5.3827
  158OSM   C16S17701   6.422   5.950   4.191 -0.8707 -0.4367 -0.3522
  158OSM   H16S17702   6.509   5.936   4.124  0.2630 -3.1194  1.5038
  158OSM   H16T17703   6.437   5.861   4.257  1.0746 -2.0773 -2.8539
  158OSM   C17S17704   6.412   6.084   4.272 -0.1306 -0.0784  0.2700
  158OSM   H17S17705   6.321   6.084   4.336 -0.5669  1.1250 -0.3117
  158OSM   H17T17706   6.389   6.156   4.190 -2.5755 -2.0666 -0.9142
  158OSM   C18S17707   6.535   6.128   4.352  1.1296 -0.4072 -0.3509
  158OSM   H18S17708   6.631   6.136   4.296  0.2476 -3.3028 -2.5587
  158OSM   H18T17709   6.557   6.058   4.436  0.8294  1.4053  1.3083
  158OSM   H18U17710   6.513   6.229   4.391 -0.8026 -0.2282 -1.7381
  158OSM    C1F17711   5.924   6.429   2.881  0.1293  0.9097  0.8222
  158OSM     OF17712   5.855   6.450   2.777 -0.2386  0.2302  0.0525
  158OSM    C2F17713   5.901   6.486   3.021 -0.3135  0.1323  0.6997
  158OSM    H2F17714   5.997   6.529   3.057  0.0914 -0.2855  0.1380
  158OSM    H2G17715   5.884   6.393   3.079  0.0901 -0.8533 -0.6989
  158OSM    C3F17716   5.791   6.594   3.035 -0.6592  1.0099  0.1655
  158OSM    H3F17717   5.694   6.540   3.034  1.6810 -3.7372 -1.0857
  158OSM    H3G17718   5.783   6.665   2.950  0.8615 -0.8442 -1.6194
  158OSM    C4F17719   5.791   6.677   3.161  0.8181 -0.7969 -0.4165
  158OSM    H4F17720   5.889   6.724   3.183  0.0159  0.3325  0.8602
  158OSM    H4G17721   5.780   6.602   3.242  1.2820  0.2631  0.6629
  158OSM    C5F17722   5.684   6.787   3.165 -0.4991  0.5255 -0.4544
  158OSM    H5F17723   5.597   6.757   3.103 -0.3802 -0.5597 -0.1010
  158OSM    H5G17724   5.737   6.858   3.097  1.0078 -0.5470 -0.4485
  158OSM    C6F17725   5.629   6.843   3.301  0.3225 -0.2591  0.1503
  158OSM    H6F17726   5.561   6.767   3.345 -0.7710  1.4148  1.4885
  158OSM    H6G17727   5.572   6.931   3.268  0.4991 -0.7871 -1.6330
  158OSM    C7F17728   5.735   6.876   3.409  0.4355  0.7766  0.5718
  158OSM    H7F17729   5.801   6.954   3.366 -1.6618  1.9134 -0.7367
  158OSM    H7G17730   5.790   6.781   3.421  0.8990  0.8744 -0.6445
  158OSM    C8F17731   5.672   6.912   3.544 -0.6873 -0.2781  0.6805
  158OSM    H8F17732   5.600   6.835   3.576 -0.7345  0.2452  1.9044
  158OSM    H8G17733   5.607   7.000   3.521 -2.1590 -1.5064  0.0118
  158OSM    C9F17734   5.768   6.938   3.658  0.1884  0.3537  0.4194
  158OSM    H9F17735   5.873   6.908   3.643  0.1603  0.0685  0.7742
  158OSM   C10F17736   5.730   6.979   3.776  0.1795 -0.3437 -0.0923
  158OSM   H10F17737   5.799   6.996   3.860 -0.3625 -1.9367  0.7096
  158OSM   C11F17738   5.594   7.028   3.816 -0.2775  0.5498  0.0445
  158OSM   H11F17739   5.516   7.043   3.738  0.8143  3.1787 -0.6650
  158OSM   H11G17740   5.604   7.132   3.854 -0.4772  1.2910 -1.7997
  158OSM   C12F17741   5.523   6.940   3.926  0.5082  0.1420 -0.0636
  158OSM   H12F17742   5.501   6.842   3.878 -2.9550  1.7903 -2.2293
  158OSM   H12G17743   5.424   6.982   3.952  0.7927  0.5446  0.3702
  158OSM   C13F17744   5.599   6.919   4.052 -0.4969 -0.4760  0.1616
  158OSM   H13F17745   5.700   6.874   4.045 -0.2009  0.1773  0.1438
  158OSM   H13G17746   5.545   6.844   4.113 -1.2855 -1.6737 -1.8767
  158OSM   C14F17747   5.610   7.047   4.138 -0.7288 -0.6195 -0.0773
  158OSM   H14F17748   5.513   7.101   4.136 -1.8235 -2.4903 -0.9386
  158OSM   H14G17749   5.692   7.109   4.096 -1.1015  1.2577  1.8180
  158OSM   C15F17750   5.647   7.003   4.279 -0.0014 -0.0799 -0.6366
  158OSM   H15F17751   5.730   6.931   4.294 -1.0595 -1.0439  0.8178
  158OSM   H15G17752   5.562   6.947   4.323 -0.6314  0.2324 -1.4322
  158OSM   C16F17753   5.670   7.129   4.363 -0.4112  0.4252  0.2088
  158OSM   H16F17754   5.580   7.194   4.372  0.9792  2.4866 -0.0098
  158OSM   H16G17755   5.746   7.190   4.310  0.2347 -0.7337 -0.2191
  158OSM   C17F17756   5.729   7.107   4.503 -0.3700 -0.3219  0.3124
  158OSM   H17F17757   5.759   7.210   4.532 -2.0455  1.2192 -2.8411
  158OSM   H17G17758   5.820   7.045   4.492 -0.2586 -0.0374 -0.4603
  158OSM   C18F17759   5.626   7.058   4.613  0.1123  0.8263  0.1830
  158OSM   H18F17760   5.662   6.958   4.645  2.6688  1.5886 -0.1004
  158OSM   H18G17761   5.529   7.039   4.562  1.7614 -0.2393 -2.8101
  158OSM   H18H17762   5.617   7.117   4.707  0.8231 -1.6746  1.9488
  159OSM      N17763   2.538   1.262   1.948  0.0208  0.6503 -0.1857
  159OSM    C1517764   2.429   1.161   1.941  0.6231  0.1054 -0.1890
  159OSM   H15A17765   2.376   1.129   2.029 -0.2902 -0.3107 -0.8790
  159OSM   H15B17766   2.457   1.068   1.894  0.4011  0.3044 -0.7232
  159OSM   H15C17767   2.345   1.207   1.892  2.1442  1.8206 -1.3367
  159OSM    C1417768   2.657   1.197   2.016 -0.4288 -0.3870 -0.5715
  159OSM   H14A17769   2.747   1.251   1.994 -1.2505  0.4653 -2.0758
  159OSM   H14B17770   2.673   1.102   1.967  1.4225  0.2362 -1.2610
  159OSM   H14C17771   2.638   1.189   2.122 -1.2492  1.0240 -0.5901
  159OSM    C1317772   2.571   1.295   1.807  0.0613  0.3295  0.4848
  159OSM   H13A17773   2.606   1.218   1.740  0.1328  0.3805  0.4637
  159OSM   H13B17774   2.655   1.362   1.796 -0.6164  0.9017 -1.7505
  159OSM   H13C17775   2.489   1.349   1.760  0.7092 -0.9115 -2.3104
  159OSM    C1217776   2.500   1.385   2.032  0.5300 -0.3211 -0.2899
  159OSM   H12A17777   2.468   1.359   2.132 -0.4144 -1.4886 -0.8617
  159OSM   H12B17778   2.409   1.426   1.990 -0.6678 -1.1648  1.3354
  159OSM    C1117779   2.593   1.509   2.048  0.7578  0.8555  0.1989
  159OSM   H11A17780   2.695   1.482   2.083  1.0000  1.3238 -0.1312
  159OSM   H11B17781   2.569   1.571   2.137  0.4609  3.1387 -1.3881
  159OSM      P17782   2.471   1.699   1.903 -0.0033 -0.0925  0.1289
  159OSM    O1317783   2.486   1.757   1.766 -0.3524  0.3601  0.2690
  159OSM    O1417784   2.345   1.619   1.924 -0.6870 -0.0884  0.8991
  159OSM    O1117785   2.483   1.814   2.014  0.1062 -0.6241 -0.2580
  159OSM    O1217786   2.593   1.608   1.941 -0.0801  0.4323  0.2155
  159OSM    C1S17787   2.399   1.813   2.133 -0.3568 -0.9197 -0.7506
  159OSM    H1S17788   2.356   1.712   2.153 -0.5261 -0.8971 -1.0002
  159OSM    H1T17789   2.316   1.882   2.106  0.6772  0.7666  0.2044
  159OSM     NF17790   2.395   1.892   2.364 -1.2420  0.0655 -0.1482
  159OSM    HNF17791   2.356   1.984   2.363 -1.3635  0.0228 -1.8647
  159OSM    C2S17792   2.485   1.876   2.254  0.0881 -0.0458 -0.0757
  159OSM    H2S17793   2.559   1.799   2.284 -0.1944  0.2116  1.3669
  159OSM    C3S17794   2.564   2.003   2.214  0.1026  0.0183 -0.5263
  159OSM    H3S17795   2.501   2.093   2.199 -0.3698 -0.1019  0.5880
  159OSM     O317796   2.635   1.994   2.091  0.3687 -0.1259 -0.3414
  159OSM    HO317797   2.600   1.917   2.046  0.9771 -2.5438  2.9611
  159OSM    C4S17798   2.657   2.042   2.334 -0.0218 -0.3983  0.0847
  159OSM    H4S17799   2.599   2.075   2.422 -0.9943  2.3640 -1.4910
  159OSM    C5S17800   2.790   2.037   2.341 -0.1992 -0.2659 -0.2576
  159OSM    H5S17801   2.847   2.010   2.251 -0.0949 -0.7162 -0.0610
  159OSM    C6S17802   2.882   2.063   2.459  0.1647  0.0683 -0.5722
  159OSM    H6S17803   2.963   2.138   2.444 -0.3570  1.5686  3.1314
  159OSM    H6T17804   2.927   1.968   2.492  2.4610  1.4176  0.4215
  159OSM    C7S17805   2.811   2.127   2.589 -0.2384 -0.2642 -0.7130
  159OSM    H7S17806   2.731   2.059   2.626 -0.9322  2.0414  2.4665
  159OSM    H7T17807   2.761   2.223   2.562  1.2486  0.2277 -1.8667
  159OSM    C8S17808   2.907   2.159   2.714 -0.7091  0.2377 -0.1416
  159OSM    H8S17809   2.983   2.234   2.683 -1.1388  0.2482 -1.2281
  159OSM    H8T17810   2.954   2.060   2.731  1.6950  1.2801 -0.3766
  159OSM    C9S17811   2.831   2.189   2.840  0.5923  0.0829  0.3247
  159OSM    H9S17812   2.776   2.097   2.868  0.5225 -0.3962 -1.2535
  159OSM    H9T17813   2.759   2.267   2.805 -0.2532 -0.9962 -0.4034
  159OSM   C10S17814   2.918   2.250   2.948 -0.2232  0.3974  0.1350
  159OSM   H10S17815   2.955   2.351   2.918 -1.1921  0.4938 -0.7814
  159OSM   H10T17816   3.006   2.182   2.953 -1.8423 -1.9336 -1.3793
  159OSM   C11S17817   2.851   2.244   3.083  0.0437  0.0552  0.2664
  159OSM   H11S17818   2.744   2.273   3.083  0.1895  0.6314 -1.0332
  159OSM   H11T17819   2.901   2.324   3.142  0.7031  0.5386 -0.9088
  159OSM   C12S17820   2.893   2.119   3.158  0.2715 -0.1572  0.5276
  159OSM   H12S17821   3.004   2.120   3.160  0.3414 -1.1446 -0.8513
  159OSM   H12T17822   2.863   2.024   3.107 -1.6475  0.8545 -0.3660
  159OSM   C13S17823   2.840   2.116   3.302 -0.3978  0.2867  0.2635
  159OSM   H13S17824   2.857   2.218   3.343  0.8464  1.1450 -2.1637
  159OSM   H13T17825   2.898   2.042   3.361 -0.6577  0.2799  0.5132
  159OSM   C14S17826   2.690   2.082   3.299  0.4099 -0.1167  0.3182
  159OSM   H14S17827   2.673   1.976   3.271 -1.9395 -0.4263  2.4967
  159OSM   H14T17828   2.643   2.159   3.234  2.0196  1.3861  0.8781
  159OSM   C15S17829   2.624   2.094   3.433 -0.1682  0.0722 -0.3656
  159OSM   H15S17830   2.683   2.034   3.505 -2.6145 -0.5270  1.2751
  159OSM   H15T17831   2.529   2.037   3.426 -0.0490 -0.0340 -1.1855
  159OSM   C16S17832   2.591   2.234   3.496  0.3806 -0.1307  0.5969
  159OSM   H16S17833   2.531   2.292   3.422 -0.9991 -1.7792  0.3698
  159OSM   H16T17834   2.688   2.287   3.502 -0.2046  1.3451 -1.5142
  159OSM   C17S17835   2.520   2.237   3.633 -0.7661 -0.4771  0.2476
  159OSM   H17S17836   2.522   2.343   3.666 -4.2988  0.4509 -1.9727
  159OSM   H17T17837   2.572   2.169   3.703  0.8791  0.3533 -0.1281
  159OSM   C18S17838   2.372   2.196   3.625 -0.6208  0.5506 -0.7162
  159OSM   H18S17839   2.352   2.143   3.720  0.4334  0.5088 -0.5068
  159OSM   H18T17840   2.375   2.117   3.547  0.3412 -1.6051  1.3917
  159OSM   H18U17841   2.295   2.274   3.607 -0.1402  0.7993 -1.7588
  159OSM    C1F17842   2.338   1.793   2.433 -0.1273  0.1043  0.8026
  159OSM     OF17843   2.374   1.679   2.404 -0.2796 -0.4115 -0.5878
  159OSM    C2F17844   2.238   1.822   2.542 -0.1341  0.9030 -0.0144
  159OSM    H2F17845   2.141   1.778   2.512  0.3893 -0.1841 -0.1416
  159OSM    H2G17846   2.238   1.932   2.558  0.4624  1.5552 -3.5770
  159OSM    C3F17847   2.273   1.741   2.664  0.3460  0.0566  0.0059
  159OSM    H3F17848   2.376   1.761   2.701  0.3612 -0.9848  0.5491
  159OSM    H3G17849   2.286   1.632   2.650 -0.4647 -0.0384 -0.0254
  159OSM    C4F17850   2.171   1.762   2.776  0.0098  0.0185  0.0277
  159OSM    H4F17851   2.120   1.858   2.755  0.1555  0.1054  0.0674
  159OSM    H4G17852   2.217   1.771   2.877  0.6300 -0.8445 -0.1654
  159OSM    C5F17853   2.060   1.658   2.786  0.8528 -0.7379 -1.0056
  159OSM    H5F17854   2.096   1.563   2.832 -0.3321 -0.4039  0.6889
  159OSM    H5G17855   2.019   1.639   2.684 -1.6873 -2.2125  0.1984
  159OSM    C6F17856   1.946   1.712   2.872  0.1411  0.3848 -0.3647
  159OSM    H6F17857   1.869   1.631   2.874  0.7589 -0.2036  1.6179
  159OSM    H6G17858   1.894   1.797   2.822 -1.2923  0.0188  0.4223
  159OSM    C7F17859   1.981   1.751   3.018 -0.0396 -0.3472 -0.3901
  159OSM    H7F17860   2.055   1.834   3.014 -0.1079 -0.1621  1.4424
  159OSM    H7G17861   2.040   1.667   3.059  1.6216  1.2770  0.7301
  159OSM    C8F17862   1.853   1.784   3.105  0.3574 -0.3641 -0.5146
  159OSM    H8F17863   1.788   1.863   3.062 -2.1010 -0.4942  2.5625
  159OSM    H8G17864   1.902   1.819   3.198  0.2448  3.2963 -1.7035
  159OSM    C9F17865   1.762   1.666   3.125  0.1227  0.4287  0.3204
  159OSM    H9F17866   1.695   1.658   3.039  1.8710 -0.0523 -1.0547
  159OSM   C10F17867   1.766   1.581   3.230  0.0439 -0.1168 -0.0894
  159OSM   H10F17868   1.688   1.506   3.247 -1.6779  1.4984 -0.5218
  159OSM   C11F17869   1.857   1.590   3.349  0.5181 -0.8214  0.1693
  159OSM   H11F17870   1.920   1.682   3.348 -1.4771  0.5947 -1.1698
  159OSM   H11G17871   1.922   1.499   3.351 -1.4298 -2.3052 -0.7141
  159OSM   C12F17872   1.783   1.577   3.484  0.4545 -0.3123  0.7814
  159OSM   H12F17873   1.737   1.475   3.483  0.8737 -0.5061  0.0982
  159OSM   H12G17874   1.697   1.648   3.485  0.3508 -0.4023 -0.2299
  159OSM   C13F17875   1.882   1.605   3.592  0.5955 -0.1281  0.9150
  159OSM   H13F17876   1.911   1.711   3.576 -0.6625  0.0577 -0.2479
  159OSM   H13G17877   1.973   1.541   3.582  2.4483  2.4578  0.2376
  159OSM   C14F17878   1.817   1.595   3.730  0.5303  0.4720  0.6980
  159OSM   H14F17879   1.782   1.489   3.731  1.6813  0.0291 -0.9130
  159OSM   H14G17880   1.731   1.666   3.729 -0.4235 -0.6476  0.5821
  159OSM   C15F17881   1.924   1.613   3.832  0.0719 -0.4973 -0.6734
  159OSM   H15F17882   1.954   1.718   3.854  2.5282 -1.6363  2.0951
  159OSM   H15G17883   2.019   1.578   3.785 -0.3597 -1.2571 -0.9941
  159OSM   C16F17884   1.884   1.543   3.966 -0.1220 -0.3678  0.2658
  159OSM   H16F17885   1.970   1.530   4.036 -0.7317 -1.2523  0.8727
  159OSM   H16G17886   1.847   1.440   3.951  2.2230 -1.3615  0.8840
  159OSM   C17F17887   1.772   1.629   4.036  0.3952  0.2549 -0.1201
  159OSM   H17F17888   1.681   1.588   3.989  0.2239  1.1152 -0.5471
  159OSM   H17G17889   1.782   1.739   4.024  1.2057  0.0993 -0.9467
  159OSM   C18F17890   1.750   1.594   4.190 -0.0449 -0.0982  0.4320
  159OSM   H18F17891   1.653   1.639   4.219  0.5034  1.6328 -0.2729
  159OSM   H18G17892   1.829   1.631   4.259 -0.0190 -1.0049  0.9048
  159OSM   H18H17893   1.745   1.483   4.197 -0.9634 -0.0551  0.5555
  160OSM      N17894   5.557   1.410   1.681  0.0762 -0.5235 -0.0690
  160OSM    C1517895   5.655   1.492   1.753 -0.2814 -0.3640 -0.0555
  160OSM   H15A17896   5.630   1.597   1.764  0.4402 -0.1815 -0.1112
  160OSM   H15B17897   5.749   1.489   1.699 -0.2668 -0.3142 -0.0328
  160OSM   H15C17898   5.682   1.470   1.855  0.9380 -0.0258 -0.2877
  160OSM    C1417899   5.524   1.476   1.549  0.1172  0.7494 -0.6723
  160OSM   H14A17900   5.474   1.571   1.566  1.8325  1.8314 -1.3877
  160OSM   H14B17901   5.461   1.416   1.485  1.0192 -2.2257  1.0664
  160OSM   H14C17902   5.615   1.509   1.500  0.3342  0.2807 -0.5876
  160OSM    C1317903   5.629   1.284   1.651 -0.6849 -0.1071 -0.3106
  160OSM   H13A17904   5.565   1.209   1.608  0.2393 -0.6290 -0.7969
  160OSM   H13B17905   5.682   1.236   1.732  0.3268  0.2500 -0.7366
  160OSM   H13C17906   5.712   1.303   1.585 -0.2749  0.9312  0.4685
  160OSM    C1217907   5.435   1.391   1.767 -0.3494  0.4018  0.2849
  160OSM   H12A17908   5.368   1.321   1.720  0.5979  0.2503 -0.8611
  160OSM   H12B17909   5.384   1.486   1.777  0.5250  1.0438 -1.1500
  160OSM    C1117910   5.450   1.335   1.914  0.0249 -0.7385 -0.2633
  160OSM   H11A17911   5.529   1.257   1.920  0.3010 -0.3648  1.3187
  160OSM   H11B17912   5.359   1.278   1.944 -0.6600  0.9641  1.0218
  160OSM      P17913   5.369   1.525   2.062 -0.5502 -0.0659  0.0049
  160OSM    O1317914   5.414   1.634   2.150 -0.1644 -0.2215  0.3924
  160OSM    O1417915   5.273   1.559   1.957  0.0124 -0.4676 -0.1686
  160OSM    O1117916   5.300   1.417   2.157  0.2104  0.3335  1.1465
  160OSM    O1217917   5.490   1.443   1.997 -0.4912  0.5592 -0.1845
  160OSM    C1S17918   5.365   1.342   2.256  0.1580 -0.2505  0.5833
  160OSM    H1S17919   5.443   1.404   2.306  0.4570  0.6999 -0.9560
  160OSM    H1T17920   5.423   1.258   2.213  0.9638  0.0959  0.9579
  160OSM     NF17921   5.339   1.284   2.499  0.4677  0.2336  0.1803
  160OSM    HNF17922   5.347   1.188   2.527 -1.5986  0.3635  1.4388
  160OSM    C2S17923   5.268   1.306   2.373 -0.5859 -0.6132 -0.0918
  160OSM    H2S17924   5.208   1.397   2.391 -0.2141  0.0129 -1.7727
  160OSM    C3S17925   5.181   1.192   2.313 -0.0398  0.5317  0.9607
  160OSM    H3S17926   5.230   1.099   2.276 -3.9427 -0.6349 -1.9248
  160OSM     O317927   5.112   1.228   2.194  0.1307  0.3514 -0.0671
  160OSM    HO317928   5.148   1.317   2.185 -2.8940  1.7223 -0.1350
  160OSM    C4S17929   5.085   1.139   2.415  0.1395 -0.4273  0.3906
  160OSM    H4S17930   5.107   1.036   2.446 -2.0314 -1.5342 -1.4890
  160OSM    C5S17931   4.970   1.188   2.463 -0.2278 -0.5835  0.1445
  160OSM    H5S17932   4.918   1.278   2.426 -0.3812 -0.2472  1.1589
  160OSM    C6S17933   4.896   1.114   2.574 -0.0377 -0.5953  0.2186
  160OSM    H6S17934   4.951   1.121   2.670  1.7034 -1.0465 -0.7110
  160OSM    H6T17935   4.879   1.009   2.541  1.6263 -0.2544 -1.9246
  160OSM    C7S17936   4.764   1.185   2.616  0.1533 -0.1770  0.2289
  160OSM    H7S17937   4.703   1.214   2.528  0.1924 -0.2089  0.1910
  160OSM    H7T17938   4.797   1.286   2.649  0.2938  0.0473 -0.5839
  160OSM    C8S17939   4.692   1.103   2.728  0.3258 -0.6288 -0.8162
  160OSM    H8S17940   4.674   0.998   2.695  0.1103 -0.8656  0.0404
  160OSM    H8T17941   4.600   1.163   2.749  0.5751 -0.5890  0.1851
  160OSM    C9S17942   4.756   1.093   2.867 -0.3485 -0.0083  0.0086
  160OSM    H9S17943   4.802   1.187   2.903  2.4861 -1.5241  0.6296
  160OSM    H9T17944   4.843   1.027   2.844 -0.7529 -0.2122 -1.0142
  160OSM   C10S17945   4.657   1.050   2.981  0.5257  1.0011  0.3491
  160OSM   H10S17946   4.638   0.941   2.991 -1.0032  1.3731  1.7692
  160OSM   H10T17947   4.564   1.100   2.949  0.1120  0.7419  1.1276
  160OSM   C11S17948   4.695   1.094   3.119  0.0662  0.0536  0.4200
  160OSM   H11S17949   4.719   1.203   3.115 -2.1892  0.6100  0.6875
  160OSM   H11T17950   4.780   1.030   3.151 -0.9232 -1.3746  0.2872
  160OSM   C12S17951   4.583   1.078   3.228 -0.6483 -0.7978 -0.1615
  160OSM   H12S17952   4.531   0.980   3.221 -2.5656  0.2251 -1.0583
  160OSM   H12T17953   4.506   1.157   3.220  0.0710 -0.1286 -0.6571
  160OSM   C13S17954   4.646   1.080   3.369 -0.8176 -0.0167 -0.3110
  160OSM   H13S17955   4.663   1.186   3.399  1.4168 -0.8565  1.7492
  160OSM   H13T17956   4.747   1.036   3.382 -0.3709  1.5626  2.4104
  160OSM   C14S17957   4.555   1.027   3.473  0.4116  0.1330 -0.8188
  160OSM   H14S17958   4.535   0.919   3.458 -3.5647  0.3664  1.3531
  160OSM   H14T17959   4.462   1.086   3.458  0.9467  1.1932 -0.0720
  160OSM   C15S17960   4.599   1.054   3.622 -0.4342  0.6803  0.4489
  160OSM   H15S17961   4.629   1.160   3.642  1.1226  0.3074  0.2111
  160OSM   H15T17962   4.685   0.995   3.659 -0.2971  0.1696 -0.6615
  160OSM   C16S17963   4.490   1.017   3.720  0.4566  0.1865 -0.7718
  160OSM   H16S17964   4.410   1.094   3.714  2.0777  2.0251  0.0170
  160OSM   H16T17965   4.543   1.028   3.817  1.0181 -0.9241 -0.9348
  160OSM   C17S17966   4.409   0.883   3.704 -0.5536  0.7128  0.5459
  160OSM   H17S17967   4.486   0.806   3.681 -0.7527  0.5154  0.5419
  160OSM   H17T17968   4.337   0.883   3.620 -0.7856 -1.1041  0.7151
  160OSM   C18S17969   4.332   0.857   3.831  0.0122  0.1167 -0.9047
  160OSM   H18S17970   4.402   0.807   3.902  0.1981  0.7256 -0.6513
  160OSM   H18T17971   4.249   0.789   3.802  2.2124 -3.5237  0.6147
  160OSM   H18U17972   4.286   0.953   3.863  0.8372  0.0632  0.5592
  160OSM    C1F17973   5.375   1.385   2.579  0.5512 -0.5749  0.4134
  160OSM     OF17974   5.378   1.502   2.548 -0.0812 -0.1049 -0.4085
  160OSM    C2F17975   5.415   1.330   2.712 -0.1870 -0.6942 -0.5698
  160OSM    H2F17976   5.516   1.284   2.703 -0.0358 -0.4758  0.0209
  160OSM    H2G17977   5.343   1.250   2.741  0.8621 -1.4965 -0.1322
  160OSM    C3F17978   5.424   1.439   2.819  0.2868  0.1798 -0.8359
  160OSM    H3F17979   5.322   1.477   2.842  0.4493 -0.4208  1.0787
  160OSM    H3G17980   5.482   1.529   2.790  0.4239  0.8106  1.2196
  160OSM    C4F17981   5.470   1.389   2.957 -0.1635  0.2441  0.1547
  160OSM    H4F17982   5.579   1.373   2.950 -0.1537 -0.3970  1.5047
  160OSM    H4G17983   5.417   1.294   2.983  1.7133 -0.7093  0.6470
  160OSM    C5F17984   5.453   1.491   3.073  0.0732 -0.3136 -0.0751
  160OSM    H5F17985   5.345   1.518   3.070 -0.4792 -1.9987  2.2125
  160OSM    H5G17986   5.512   1.583   3.053  0.2476 -0.0376  1.5763
  160OSM    C6F17987   5.486   1.436   3.207  0.4743 -0.0057  0.4309
  160OSM    H6F17988   5.567   1.362   3.192  1.0873  0.7861 -0.1953
  160OSM    H6G17989   5.398   1.375   3.239 -0.5170 -1.3913 -4.2755
  160OSM    C7F17990   5.527   1.547   3.301 -0.3919 -0.5191 -0.3083
  160OSM    H7F17991   5.584   1.615   3.234 -2.0488 -0.2437 -1.4996
  160OSM    H7G17992   5.600   1.503   3.373  1.4206  3.0879  0.2913
  160OSM    C8F17993   5.412   1.620   3.385  0.5671  0.2775 -0.0230
  160OSM    H8F17994   5.352   1.687   3.321 -0.4697 -0.3122  0.3200
  160OSM    H8G17995   5.456   1.694   3.456  1.6639  1.0044 -1.4067
  160OSM    C9F17996   5.339   1.517   3.458  0.2149  0.1553 -0.4262
  160OSM    H9F17997   5.370   1.412   3.456 -0.2789 -0.0796  1.8410
  160OSM   C10F17998   5.213   1.528   3.499  0.3329 -0.0768 -0.1383
  160OSM   H10F17999   5.176   1.444   3.561  0.5292  0.0993  0.2190
  160OSM   C11F18000   5.127   1.652   3.495  0.6424 -0.0736 -0.4250
  160OSM   H11F18001   5.043   1.631   3.426  0.1107  1.0257 -0.1368
  160OSM   H11G18002   5.188   1.732   3.448 -0.4324  0.9205 -0.1929
  160OSM   C12F18003   5.080   1.706   3.630  0.6890 -0.2901 -0.4190
  160OSM   H12F18004   5.036   1.619   3.683  0.5120  0.0035 -0.0847
  160OSM   H12G18005   5.000   1.780   3.605 -0.6421 -1.7832 -0.7195
  160OSM   C13F18006   5.188   1.782   3.710  0.2070 -0.6841 -0.4269
  160OSM   H13F18007   5.262   1.710   3.751  1.5698  1.4448  1.0637
  160OSM   H13G18008   5.139   1.831   3.797 -1.3594 -0.5239 -1.3608
  160OSM   C14F18009   5.260   1.897   3.640 -0.0532  0.2960  0.1034
  160OSM   H14F18010   5.183   1.962   3.594 -1.9019  1.0799  3.9263
  160OSM   H14G18011   5.328   1.853   3.563 -0.7438 -1.4333  0.4490
  160OSM   C15F18012   5.337   1.985   3.742  0.9271 -0.7903  0.3335
  160OSM   H15F18013   5.415   1.922   3.789  0.2860 -0.9567  1.1868
  160OSM   H15G18014   5.271   2.018   3.824  0.0379  0.1616 -0.7267
  160OSM   C16F18015   5.389   2.122   3.684  0.0052  0.2856 -0.1840
  160OSM   H16F18016   5.435   2.169   3.774 -0.9541 -1.5288  1.3322
  160OSM   H16G18017   5.305   2.189   3.654  0.9590  1.6322  0.0665
  160OSM   C17F18018   5.475   2.115   3.562  0.5215  0.1448  0.0019
  160OSM   H17F18019   5.441   2.045   3.484  2.4671 -0.5190 -0.3124
  160OSM   H17G18020   5.573   2.071   3.592 -0.3621 -2.6790 -0.9559
  160OSM   C18F18021   5.504   2.245   3.505 -0.1455 -0.4155 -0.0729
  160OSM   H18F18022   5.588   2.251   3.432  0.4692  0.0325  0.6643
  160OSM   H18G18023   5.539   2.319   3.580 -0.3837  0.7415 -1.0732
  160OSM   H18H18024   5.408   2.280   3.461  0.3952 -1.0748 -1.8769
  161OSM      N18025   3.849   6.526   1.929 -0.2918 -0.1907  0.8827
  161OSM    C1518026   3.931   6.449   2.034  0.7640 -0.2536  0.3032
  161OSM   H15A18027   3.893   6.461   2.135 -0.0376  2.6936 -0.2595
  161OSM   H15B18028   4.033   6.476   2.015  1.4369 -0.4429  3.1441
  161OSM   H15C18029   3.922   6.344   2.012 -0.5174  0.0975 -1.0035
  161OSM    C1418030   3.840   6.672   1.973  0.3244 -0.3510 -0.4188
  161OSM   H14A18031   3.811   6.667   2.077  1.9285  2.0621  0.2233
  161OSM   H14B18032   3.775   6.734   1.913  2.3702  0.3584 -1.9967
  161OSM   H14C18033   3.941   6.709   1.972  0.5684 -1.0198 -1.4355
  161OSM    C1318034   3.909   6.536   1.796  0.0618 -0.1691 -0.1388
  161OSM   H13A18035   3.846   6.583   1.722  2.4473  2.0003 -0.9354
  161OSM   H13B18036   3.924   6.437   1.754  0.9214  0.3462 -1.1086
  161OSM   H13C18037   4.004   6.588   1.795  0.2092 -0.4328 -1.1286
  161OSM    C1218038   3.708   6.470   1.929  0.3283  0.7039  0.1092
  161OSM   H12A18039   3.726   6.372   1.888  0.1606  0.1452  1.3522
  161OSM   H12B18040   3.637   6.523   1.868 -1.9063 -0.2306  1.7978
  161OSM    C1118041   3.646   6.443   2.070 -0.0184 -0.2339  0.9266
  161OSM   H11A18042   3.703   6.366   2.127  1.0757  0.1723  0.4089
  161OSM   H11B18043   3.550   6.396   2.039 -0.2688  1.6195 -1.3940
  161OSM      P18044   3.506   6.634   2.161  0.4132 -0.1192 -0.0732
  161OSM    O1318045   3.519   6.758   2.242  0.4639  0.0111  0.2296
  161OSM    O1418046   3.454   6.646   2.022 -0.3663  0.2415 -0.6388
  161OSM    O1118047   3.409   6.537   2.241 -0.6688 -0.2092 -0.0455
  161OSM    O1218048   3.637   6.557   2.159  0.4160  0.5010 -0.4781
  161OSM    C1S18049   3.448   6.538   2.388  0.8103 -0.6923  0.5322
  161OSM    H1S18050   3.415   6.633   2.435 -1.3258 -0.9279 -0.3811
  161OSM    H1T18051   3.556   6.515   2.405  0.6781 -2.9774 -1.2837
  161OSM     NF18052   3.382   6.457   2.609  0.1366  0.5940 -0.1875
  161OSM    HNF18053   3.456   6.423   2.667 -0.8259  1.8952  1.9154
  161OSM    C2S18054   3.385   6.424   2.466  0.7701  0.3509 -0.4282
  161OSM    H2S18055   3.279   6.408   2.435 -0.1983  2.3434  1.5618
  161OSM    C3S18056   3.448   6.285   2.423 -0.2446 -0.2276  0.3245
  161OSM    H3S18057   3.558   6.279   2.439  0.3901  3.1811 -1.7890
  161OSM     O318058   3.446   6.274   2.279  0.4874 -0.2059  0.0215
  161OSM    HO318059   3.428   6.362   2.245  0.6969 -0.2598 -0.2285
  161OSM    C4S18060   3.382   6.167   2.484 -0.1983 -0.5359 -0.5154
  161OSM    H4S18061   3.410   6.169   2.590 -1.5241  1.6014 -0.1429
  161OSM    C5S18062   3.289   6.078   2.441  0.1746  0.0989 -0.1908
  161OSM    H5S18063   3.246   6.082   2.340 -1.5869 -1.5334  0.4348
  161OSM    C6S18064   3.226   5.977   2.537  0.4190  0.6193 -0.6454
  161OSM    H6S18065   3.119   5.958   2.516 -0.6258  1.7933  2.9248
  161OSM    H6T18066   3.232   6.033   2.633  0.2303 -0.5893  0.0911
  161OSM    C7S18067   3.309   5.851   2.550  0.4030 -1.1165  0.5443
  161OSM    H7S18068   3.413   5.889   2.558  0.1443 -0.5324  1.2916
  161OSM    H7T18069   3.288   5.790   2.460  1.5085 -1.6966  0.6669
  161OSM    C8S18070   3.283   5.770   2.674 -0.5914  0.6392  1.0628
  161OSM    H8S18071   3.343   5.678   2.660 -1.0922  0.2506  1.4095
  161OSM    H8T18072   3.180   5.729   2.672  0.6168 -2.6660  1.0337
  161OSM    C9S18073   3.319   5.838   2.809 -0.5580 -0.3862 -0.1104
  161OSM    H9S18074   3.250   5.924   2.820  1.2981  0.9234  2.0986
  161OSM    H9T18075   3.420   5.881   2.792 -1.7677  2.0283 -1.7173
  161OSM   C10S18076   3.304   5.747   2.939 -0.0974  0.4081  0.1695
  161OSM   H10S18077   3.393   5.682   2.959 -0.7343  0.4623  3.9001
  161OSM   H10T18078   3.210   5.689   2.927  0.3857 -0.0426 -1.7276
  161OSM   C11S18079   3.284   5.825   3.070  0.2076 -0.3884  0.3638
  161OSM   H11S18080   3.201   5.896   3.055 -0.9322 -1.8326 -0.5057
  161OSM   H11T18081   3.380   5.881   3.078  1.5223 -1.7651 -3.3550
  161OSM   C12S18082   3.279   5.730   3.187  0.0087 -0.1094  0.0476
  161OSM   H12S18083   3.359   5.653   3.177 -1.1454 -1.1593 -1.6114
  161OSM   H12T18084   3.181   5.680   3.174 -0.6157  0.8580  0.8312
  161OSM   C13S18085   3.282   5.806   3.321  0.3640  0.5886 -0.4871
  161OSM   H13S18086   3.202   5.883   3.323 -1.0412 -0.6437 -3.2379
  161OSM   H13T18087   3.380   5.858   3.329  1.0277 -0.3393 -2.0287
  161OSM   C14S18088   3.263   5.720   3.445 -0.7099 -0.4286 -0.4623
  161OSM   H14S18089   3.347   5.647   3.446  0.1956  0.5951  0.5828
  161OSM   H14T18090   3.175   5.654   3.430  0.1883 -1.9103  0.4891
  161OSM   C15S18091   3.257   5.803   3.576 -0.7717 -0.1910 -0.5759
  161OSM   H15S18092   3.152   5.837   3.584 -0.8574 -0.1630 -1.6581
  161OSM   H15T18093   3.322   5.893   3.569 -0.0594 -0.5755  0.7780
  161OSM   C16S18094   3.274   5.733   3.705  0.1527  0.0381 -0.0177
  161OSM   H16S18095   3.360   5.663   3.699 -0.8996 -1.1667 -2.3277
  161OSM   H16T18096   3.188   5.666   3.725  0.0616 -0.4305 -1.8626
  161OSM   C17S18097   3.285   5.827   3.830 -0.5512 -0.4107 -0.3499
  161OSM   H17S18098   3.193   5.883   3.856 -1.1086 -1.3263 -0.2847
  161OSM   H17T18099   3.358   5.909   3.816 -1.1365  0.8736  3.1305
  161OSM   C18S18100   3.331   5.742   3.956 -0.0949 -0.9744  0.2677
  161OSM   H18S18101   3.426   5.688   3.932  1.0921  0.6198  1.2373
  161OSM   H18T18102   3.254   5.664   3.975 -1.8091  0.1008 -1.8223
  161OSM   H18U18103   3.342   5.804   4.047  1.3181 -1.0855  0.1975
  161OSM    C1F18104   3.310   6.555   2.655 -0.0395 -0.8531  0.6484
  161OSM     OF18105   3.220   6.601   2.585 -0.0328 -0.2494  0.5284
  161OSM    C2F18106   3.356   6.602   2.791 -0.4736  0.3727  0.5252
  161OSM    H2F18107   3.459   6.641   2.782  0.1085 -1.3439 -0.9083
  161OSM    H2G18108   3.360   6.511   2.856 -1.3158  1.8278  2.7204
  161OSM    C3F18109   3.255   6.700   2.866 -0.4430  0.0957  0.1132
  161OSM    H3F18110   3.156   6.651   2.877 -0.1592 -0.8042 -1.1600
  161OSM    H3G18111   3.236   6.784   2.797  1.2579  0.5630  0.1515
  161OSM    C4F18112   3.293   6.739   3.006 -0.1230 -0.1503  0.1856
  161OSM    H4F18113   3.321   6.644   3.056 -1.0808 -0.6781 -0.2435
  161OSM    H4G18114   3.200   6.776   3.053 -0.9331  3.3927 -3.5942
  161OSM    C5F18115   3.406   6.847   3.019 -0.4329  0.7678 -0.3271
  161OSM    H5F18116   3.364   6.944   2.986 -0.8913  0.8599  0.4956
  161OSM    H5G18117   3.487   6.827   2.946 -1.6553 -1.5445 -1.1376
  161OSM    C6F18118   3.454   6.853   3.164 -0.3208  0.3535  0.5711
  161OSM    H6F18119   3.543   6.919   3.166 -1.1084  1.4182  1.3615
  161OSM    H6G18120   3.501   6.753   3.177 -1.3901 -0.2731 -0.2084
  161OSM    C7F18121   3.355   6.892   3.266  0.8695 -0.1499  0.2204
  161OSM    H7F18122   3.277   6.813   3.272 -2.1552  2.3744 -2.1459
  161OSM    H7G18123   3.314   6.993   3.243  3.7492  1.9418  3.2315
  161OSM    C8F18124   3.422   6.908   3.407  0.2944 -0.1147 -0.2439
  161OSM    H8F18125   3.338   6.945   3.470 -1.6271 -3.2804 -0.7133
  161OSM    H8G18126   3.508   6.978   3.408  0.9962 -0.9123 -1.4634
  161OSM    C9F18127   3.480   6.782   3.463  0.0561 -0.2296 -0.5731
  161OSM    H9F18128   3.548   6.718   3.404 -0.2112 -1.7414  0.6929
  161OSM   C10F18129   3.460   6.725   3.582 -0.3739 -0.1116 -0.1758
  161OSM   H10F18130   3.507   6.627   3.599 -0.1808  0.2981  1.8168
  161OSM   C11F18131   3.361   6.774   3.683  0.9930  0.3488 -0.0451
  161OSM   H11F18132   3.287   6.695   3.706  0.2445  0.5668 -1.5990
  161OSM   H11G18133   3.309   6.861   3.637  0.7221 -1.2452 -2.9523
  161OSM   C12F18134   3.438   6.811   3.811  0.5483  0.2420  0.1136
  161OSM   H12F18135   3.498   6.903   3.790 -1.7681  1.5159 -1.3113
  161OSM   H12G18136   3.496   6.724   3.849 -0.1884 -0.0897  0.4822
  161OSM   C13F18137   3.342   6.846   3.919  0.0274 -0.0693  0.2232
  161OSM   H13F18138   3.281   6.757   3.944  1.6508 -1.2385  0.1103
  161OSM   H13G18139   3.277   6.930   3.884 -0.0739  0.9435  2.6495
  161OSM   C14F18140   3.396   6.895   4.052  0.3091 -0.1859  0.4412
  161OSM   H14F18141   3.471   6.976   4.035  1.1437 -1.1582 -0.7493
  161OSM   H14G18142   3.452   6.808   4.092 -0.9368 -0.5160  1.5122
  161OSM   C15F18143   3.295   6.943   4.161 -0.3768  0.3200  0.0571
  161OSM   H15F18144   3.217   6.865   4.175 -1.4277  1.4586  0.7414
  161OSM   H15G18145   3.224   7.017   4.116 -0.6659  0.3479  0.5520
  161OSM   C16F18146   3.350   6.989   4.293 -0.0007 -0.0726  0.1114
  161OSM   H16F18147   3.374   7.097   4.291  0.3880 -0.1218  1.1863
  161OSM   H16G18148   3.445   6.931   4.305 -0.2766 -0.8201 -1.1595
  161OSM   C17F18149   3.249   6.961   4.412 -0.2353 -0.6951 -0.2807
  161OSM   H17F18150   3.210   6.857   4.423 -2.0457  0.1695  2.3598
  161OSM   H17G18151   3.158   7.023   4.401 -0.6039 -1.0954  0.4194
  161OSM   C18F18152   3.319   7.004   4.542 -0.2137 -0.0960 -0.5549
  161OSM   H18F18153   3.364   6.922   4.602  1.2707  0.9295 -0.2090
  161OSM   H18G18154   3.245   7.048   4.612 -0.6276 -1.0596 -0.3715
  161OSM   H18H18155   3.405   7.074   4.537  0.8878 -1.2642  1.0570
  162OSM      N18156   3.861   0.591   1.926 -0.2197 -0.0242  0.0835
  162OSM    C1518157   3.806   0.706   1.851  0.7182 -0.1507  0.4485
  162OSM   H15A18158   3.882   0.775   1.816 -0.4603  0.0511 -1.8924
  162OSM   H15B18159   3.731   0.754   1.912 -0.6158 -0.7682 -0.6758
  162OSM   H15C18160   3.744   0.681   1.767 -1.3119 -2.1294  2.4090
  162OSM    C1418161   3.943   0.517   1.822 -0.0894 -0.9873  0.0622
  162OSM   H14A18162   3.881   0.484   1.740  0.3082 -1.6828  0.0370
  162OSM   H14B18163   3.980   0.423   1.860 -0.6106 -0.6867  1.3655
  162OSM   H14C18164   4.024   0.573   1.777 -2.0242 -0.0251 -2.4931
  162OSM    C1318165   3.945   0.635   2.041 -0.6151 -0.1755  0.0180
  162OSM   H13A18166   3.967   0.542   2.091  1.8048 -1.6261 -3.3334
  162OSM   H13B18167   3.900   0.717   2.095  1.3826  0.8411  0.2607
  162OSM   H13C18168   4.034   0.686   2.007 -0.0631 -0.3202  1.1734
  162OSM    C1218169   3.749   0.487   1.964  0.1295  0.2532  0.5978
  162OSM   H12A18170   3.799   0.410   2.021  1.1048  0.5843  0.2068
  162OSM   H12B18171   3.719   0.454   1.865 -0.6868  0.8544  0.6318
  162OSM    C1118172   3.621   0.533   2.038  0.1510  0.1401 -1.0378
  162OSM   H11A18173   3.549   0.449   2.033  0.4774 -0.1150 -1.4813
  162OSM   H11B18174   3.576   0.621   1.987  0.1089  0.4725 -0.4487
  162OSM      P18175   3.675   0.448   2.284  0.1552 -0.1325  0.2778
  162OSM    O1318176   3.550   0.373   2.288  0.2053 -0.5684  0.1445
  162OSM    O1418177   3.804   0.377   2.253  0.4806 -0.1116 -0.3445
  162OSM    O1118178   3.692   0.515   2.432 -0.1502 -0.2431 -0.1769
  162OSM    O1218179   3.651   0.568   2.178 -0.0130  0.1151  0.4263
  162OSM    C1S18180   3.721   0.654   2.446  0.1295 -0.6185 -0.4445
  162OSM    H1S18181   3.630   0.715   2.425  0.1227 -1.0594 -1.8069
  162OSM    H1T18182   3.789   0.701   2.372 -2.3992  1.5967 -1.5332
  162OSM     NF18183   3.776   0.827   2.616 -0.4883 -0.3334  0.1124
  162OSM    HNF18184   3.865   0.865   2.595  0.3306 -1.4346  1.3737
  162OSM    C2S18185   3.770   0.684   2.591 -0.5948  0.0247 -0.1008
  162OSM    H2S18186   3.702   0.642   2.668 -1.3215  1.2522 -0.0485
  162OSM    C3S18187   3.907   0.615   2.603  0.2601 -0.1566 -0.1281
  162OSM    H3S18188   3.983   0.654   2.531 -0.1429 -0.7118 -0.8757
  162OSM     O318189   3.897   0.479   2.576 -0.3831  0.7302  0.0036
  162OSM    HO318190   3.811   0.476   2.532 -1.0368 -1.3769  1.3081
  162OSM    C4S18191   3.973   0.647   2.738  0.2422 -0.3028  0.1576
  162OSM    H4S18192   4.024   0.744   2.744 -2.3221  1.1874 -0.5756
  162OSM    C5S18193   3.969   0.577   2.849 -0.0847  0.3927  0.3324
  162OSM    H5S18194   3.907   0.486   2.853  1.4087 -0.6948 -0.3267
  162OSM    C6S18195   4.035   0.632   2.979  0.0671 -0.0279 -0.0729
  162OSM    H6S18196   4.089   0.726   2.957  0.0012  0.3120  1.1931
  162OSM    H6T18197   4.108   0.563   3.025 -0.5539 -1.2670 -0.8757
  162OSM    C7S18198   3.929   0.650   3.087  0.0937  0.2960 -0.1319
  162OSM    H7S18199   3.882   0.550   3.101  1.2759 -0.4638 -1.3532
  162OSM    H7T18200   3.853   0.721   3.048 -2.1406 -1.2005  1.2721
  162OSM    C8S18201   3.985   0.711   3.220  0.2719 -0.2828  0.0460
  162OSM    H8S18202   4.054   0.796   3.203  2.2491 -1.3579  2.1363
  162OSM    H8T18203   4.058   0.630   3.242  1.8207  0.7911 -0.9757
  162OSM    C9S18204   3.876   0.745   3.328  0.0001  0.6514  0.8015
  162OSM    H9S18205   3.806   0.660   3.340  0.2797  0.2990 -0.0284
  162OSM    H9T18206   3.825   0.837   3.291  0.6573  1.2716  1.3996
  162OSM   C10S18207   3.913   0.765   3.473  0.7331  0.4281  0.1191
  162OSM   H10S18208   3.999   0.835   3.481 -0.0464  1.2554  1.6090
  162OSM   H10T18209   3.945   0.666   3.512  2.4048  0.9427  0.1490
  162OSM   C11S18210   3.795   0.823   3.552 -0.2038  0.1928  0.1972
  162OSM   H11S18211   3.706   0.757   3.539  0.3411 -0.0775 -3.5354
  162OSM   H11T18212   3.771   0.916   3.496  0.4194 -1.0960 -2.4051
  162OSM   C12S18213   3.833   0.837   3.696  0.1767  0.6895  0.1904
  162OSM   H12S18214   3.745   0.866   3.757  0.4217  2.8258 -0.4018
  162OSM   H12T18215   3.905   0.919   3.717 -0.6142  1.4418  0.0007
  162OSM   C13S18216   3.902   0.713   3.765 -0.0577 -0.2004 -0.1986
  162OSM   H13S18217   3.998   0.686   3.716  0.7200 -2.2765  2.2076
  162OSM   H13T18218   3.824   0.633   3.760 -0.2460  0.0403 -1.3349
  162OSM   C14S18219   3.933   0.728   3.920 -0.0619 -0.3550  0.7861
  162OSM   H14S18220   3.839   0.739   3.980  0.0694 -0.1319  0.9542
  162OSM   H14T18221   3.979   0.828   3.934  0.8709 -0.5518 -0.6659
  162OSM   C15S18222   4.009   0.600   3.965  0.1392 -0.1425 -0.4775
  162OSM   H15S18223   4.093   0.575   3.897  1.5652 -1.9383  1.8024
  162OSM   H15T18224   3.940   0.512   3.968 -2.1186  1.5135 -0.7164
  162OSM   C16S18225   4.089   0.611   4.093 -0.0065 -0.1402 -0.5006
  162OSM   H16S18226   4.037   0.605   4.191 -0.3581  2.8297 -0.4258
  162OSM   H16T18227   4.147   0.705   4.081  0.1787 -0.1079  0.5746
  162OSM   C17S18228   4.199   0.505   4.110 -0.1211 -0.4248 -0.0522
  162OSM   H17S18229   4.257   0.540   4.198 -1.8274 -0.0346  0.9472
  162OSM   H17T18230   4.271   0.509   4.024  0.5449  0.7820  0.5404
  162OSM   C18S18231   4.157   0.361   4.153  0.3287  0.1432  0.0214
  162OSM   H18S18232   4.248   0.313   4.197  2.5035  2.4103 -1.7042
  162OSM   H18T18233   4.130   0.307   4.059  0.9912 -2.2331  1.1255
  162OSM   H18U18234   4.081   0.355   4.233  0.5511  0.0803  0.2275
  162OSM    C1F18235   3.664   0.903   2.622  0.6080  0.3040 -0.6055
  162OSM     OF18236   3.555   0.846   2.617 -0.3880 -0.0416 -0.0563
  162OSM    C2F18237   3.689   1.051   2.623  0.5408  0.0606 -0.3428
  162OSM    H2F18238   3.634   1.090   2.534 -0.1836 -0.7170 -0.2471
  162OSM    H2G18239   3.798   1.075   2.625  0.2950  1.2792 -0.6323
  162OSM    C3F18240   3.635   1.106   2.752  0.7825 -1.0297  0.3182
  162OSM    H3F18241   3.527   1.081   2.765 -0.0247  2.0628  0.4704
  162OSM    H3G18242   3.649   1.216   2.746  3.6313 -1.3710 -1.2373
  162OSM    C4F18243   3.722   1.067   2.871  0.6948  0.1673 -0.1817
  162OSM    H4F18244   3.820   1.118   2.870 -0.1525  1.8404 -0.3502
  162OSM    H4G18245   3.741   0.958   2.884  1.4360  0.5065  1.9722
  162OSM    C5F18246   3.651   1.101   3.008  0.2262  0.0483  0.5560
  162OSM    H5F18247   3.547   1.063   3.002  0.4941 -0.5408 -0.5547
  162OSM    H5G18248   3.643   1.212   3.013 -0.3734 -0.0083  0.8256
  162OSM    C6F18249   3.724   1.047   3.129  0.6028 -0.7290 -0.3028
  162OSM    H6F18250   3.832   1.070   3.118  0.2847  0.5376 -1.1669
  162OSM    H6G18251   3.703   0.939   3.137 -1.0433 -0.5057 -1.0882
  162OSM    C7F18252   3.669   1.115   3.256  0.0691 -0.7312 -0.0894
  162OSM    H7F18253   3.678   1.225   3.249  0.2773 -0.4337  3.2660
  162OSM    H7G18254   3.735   1.083   3.340 -0.8651 -0.4512  0.7796
  162OSM    C8F18255   3.527   1.085   3.291  0.1499 -0.4617 -0.1464
  162OSM    H8F18256   3.450   1.117   3.217 -1.8549 -0.7076  1.7252
  162OSM    H8G18257   3.518   1.158   3.374 -1.3520 -0.6080 -0.1586
  162OSM    C9F18258   3.499   0.945   3.343  0.4646 -0.3050 -0.0934
  162OSM    H9F18259   3.503   0.873   3.260  3.2179  0.7533 -0.9857
  162OSM   C10F18260   3.465   0.907   3.467  0.4781  0.1246 -0.1544
  162OSM   H10F18261   3.459   0.802   3.499 -0.1093  0.0495 -0.5069
  162OSM   C11F18262   3.447   0.999   3.589  0.2156  1.0873  0.2938
  162OSM   H11F18263   3.377   1.081   3.563 -0.9781 -0.0168 -0.0470
  162OSM   H11G18264   3.540   1.056   3.610 -0.2151  1.4358  1.3037
  162OSM   C12F18265   3.418   0.928   3.722 -0.9218  0.9226 -0.0112
  162OSM   H12F18266   3.510   0.879   3.760 -0.7187  1.1942 -0.1493
  162OSM   H12G18267   3.345   0.845   3.715  2.5086 -2.5439  1.2970
  162OSM   C13F18268   3.367   1.033   3.817 -0.4397  0.3279 -0.2262
  162OSM   H13F18269   3.291   1.093   3.763  0.6531  0.4970 -1.6466
  162OSM   H13G18270   3.438   1.113   3.846  0.2905 -0.7455  1.0674
  162OSM   C14F18271   3.303   0.975   3.947  0.3414 -0.6496 -0.4172
  162OSM   H14F18272   3.384   0.925   4.005 -1.8802 -0.2165  3.3178
  162OSM   H14G18273   3.226   0.897   3.930 -1.4314  0.0049  3.4530
  162OSM   C15F18274   3.235   1.077   4.038 -0.4321 -0.8806 -1.1166
  162OSM   H15F18275   3.167   1.138   3.975 -0.6328 -0.0003 -0.0680
  162OSM   H15G18276   3.316   1.132   4.091  1.1539 -3.3914 -0.7780
  162OSM   C16F18277   3.159   1.022   4.154 -0.1477 -0.2511  0.2606
  162OSM   H16F18278   3.211   0.939   4.207 -0.0699 -1.3523 -1.4591
  162OSM   H16G18279   3.062   0.978   4.122 -0.8789  0.7451  1.0281
  162OSM   C17F18280   3.129   1.129   4.261 -0.3114  0.3152  0.1042
  162OSM   H17F18281   3.088   1.222   4.216 -0.8728  1.8895  3.5500
  162OSM   H17G18282   3.224   1.162   4.308 -0.4190 -0.4723  0.8915
  162OSM   C18F18283   3.034   1.080   4.365 -0.0233 -0.4991  0.2765
  162OSM   H18F18284   3.019   1.163   4.437 -0.7656  1.4872 -2.0089
  162OSM   H18G18285   3.079   0.990   4.411  1.2280 -0.2018 -0.3354
  162OSM   H18H18286   2.934   1.055   4.322 -0.4198 -1.6302  1.7984
  163OSM      N18287   3.061   6.543   1.947 -0.2608 -0.0510  0.0830
  163OSM    C1518288   3.134   6.664   1.989  0.4407  0.3180 -0.4443
  163OSM   H15A18289   3.172   6.722   1.907 -1.0330 -0.7567 -1.9498
  163OSM   H15B18290   3.216   6.638   2.055 -2.1390 -0.5455  2.7087
  163OSM   H15C18291   3.077   6.735   2.048 -0.2932 -0.9069  0.3728
  163OSM    C1418292   2.934   6.588   1.895  0.8513 -0.3258  0.5609
  163OSM   H14A18293   2.877   6.504   1.858  2.6063 -0.8592 -1.1105
  163OSM   H14B18294   2.949   6.665   1.821  0.5975 -1.1881 -0.4008
  163OSM   H14C18295   2.876   6.627   1.978  1.6995 -0.1618  1.0963
  163OSM    C1318296   3.144   6.470   1.843  0.9038  0.0107  0.9820
  163OSM   H13A18297   3.118   6.511   1.746 -0.5814 -0.7206  1.0407
  163OSM   H13B18298   3.117   6.366   1.859  2.4556 -0.2018  2.5458
  163OSM   H13C18299   3.248   6.488   1.865  1.4622 -0.9993 -0.6724
  163OSM    C1218300   3.042   6.448   2.066 -0.0106 -0.5015  0.4274
  163OSM   H12A18301   3.023   6.505   2.156  1.3237  0.6844  0.0038
  163OSM   H12B18302   3.136   6.397   2.083 -0.1229 -1.1950 -0.9152
  163OSM    C1118303   2.928   6.339   2.038  0.3706  0.5002 -0.4791
  163OSM   H11A18304   2.956   6.264   2.114 -1.8437 -0.1340 -0.2076
  163OSM   H11B18305   2.943   6.298   1.936  1.3799  1.8990 -0.9199
  163OSM      P18306   2.688   6.324   2.153 -0.2739  0.1600 -0.4990
  163OSM    O1318307   2.590   6.430   2.187  0.2190  0.6579 -0.2512
  163OSM    O1418308   2.638   6.208   2.080  0.0825 -0.2701 -0.5115
  163OSM    O1118309   2.768   6.266   2.275 -0.6984 -0.2906  0.8572
  163OSM    O1218310   2.800   6.393   2.061 -0.1403 -0.4407 -0.3421
  163OSM    C1S18311   2.849   6.338   2.363 -0.2528 -0.7168  0.6158
  163OSM    H1S18312   2.835   6.448   2.356  2.7703 -0.2914 -0.3183
  163OSM    H1T18313   2.956   6.314   2.344 -0.8496 -2.7882 -0.4046
  163OSM     NF18314   2.857   6.400   2.601 -0.2220 -0.0654 -0.4562
  163OSM    HNF18315   2.954   6.390   2.622  0.1382  2.5789 -0.5966
  163OSM    C2S18316   2.810   6.300   2.509  0.7147  0.2450  0.1399
  163OSM    H2S18317   2.699   6.308   2.505  0.6418 -0.9670 -0.5595
  163OSM    C3S18318   2.846   6.156   2.542  0.0269  0.3006  0.6247
  163OSM    H3S18319   2.953   6.132   2.524 -1.1578 -4.8755 -1.4916
  163OSM     O318320   2.793   6.060   2.449  1.1328 -0.5401  0.7494
  163OSM    HO318321   2.789   6.117   2.372 -1.0916  0.2369  1.3648
  163OSM    C4S18322   2.823   6.118   2.686 -0.1606 -1.3426 -0.2440
  163OSM    H4S18323   2.723   6.138   2.728 -0.7213 -2.1280 -1.1708
  163OSM    C5S18324   2.913   6.063   2.773 -0.0179 -0.5958  0.6844
  163OSM    H5S18325   3.009   6.034   2.728  0.3179 -1.5074  1.9369
  163OSM    C6S18326   2.883   6.029   2.910 -1.2982 -0.0834 -0.0918
  163OSM    H6S18327   2.977   5.999   2.961 -1.6271  0.1477  0.6584
  163OSM    H6T18328   2.824   5.936   2.926 -3.0109  1.1460  1.1569
  163OSM    C7S18329   2.820   6.132   3.001  0.1180  0.1468 -0.2730
  163OSM    H7S18330   2.721   6.169   2.965 -0.1436 -1.9279 -1.9041
  163OSM    H7T18331   2.885   6.222   3.003  0.6959 -0.2782  0.7213
  163OSM    C8S18332   2.803   6.075   3.144 -0.5625  0.3792 -0.0322
  163OSM    H8S18333   2.899   6.038   3.186  0.1821 -0.7342 -2.5160
  163OSM    H8T18334   2.738   5.985   3.140  0.4083 -0.5274  2.6448
  163OSM    C9S18335   2.743   6.173   3.243  0.1231  0.0253 -0.5863
  163OSM    H9S18336   2.648   6.214   3.204  0.1742 -0.7247 -1.5410
  163OSM    H9T18337   2.803   6.265   3.257  0.9116 -0.8613  2.6921
  163OSM   C10S18338   2.715   6.111   3.379 -0.2470 -0.5048 -0.1668
  163OSM   H10S18339   2.791   6.034   3.405  1.1225  0.7242 -0.4196
  163OSM   H10T18340   2.620   6.054   3.368  1.2114 -2.5519 -3.4784
  163OSM   C11S18341   2.715   6.215   3.490  0.0532 -0.8283  0.3745
  163OSM   H11S18342   2.618   6.267   3.474 -0.9784 -3.1175 -1.4686
  163OSM   H11T18343   2.809   6.272   3.474  0.1529 -1.2449 -0.6010
  163OSM   C12S18344   2.731   6.145   3.631  0.0711 -0.1662  0.0353
  163OSM   H12S18345   2.813   6.071   3.644  0.1329  0.2042  2.0153
  163OSM   H12T18346   2.637   6.085   3.635 -0.5685  0.8349  0.6512
  163OSM   C13S18347   2.732   6.238   3.748  0.5879  0.2393 -0.4195
  163OSM   H13S18348   2.635   6.292   3.741  0.6790  1.3928  4.0468
  163OSM   H13T18349   2.815   6.312   3.742  2.5632 -1.3933  3.2286
  163OSM   C14S18350   2.751   6.145   3.871 -1.4592  0.0652 -0.3791
  163OSM   H14S18351   2.829   6.068   3.853 -0.8482  0.7530 -0.7248
  163OSM   H14T18352   2.658   6.088   3.892 -0.9325 -0.1361  1.6777
  163OSM   C15S18353   2.799   6.226   3.991 -0.2378 -0.3700  0.6030
  163OSM   H15S18354   2.731   6.314   3.993  0.2529  0.0079  2.4448
  163OSM   H15T18355   2.898   6.269   3.962  0.5568 -1.3370  1.8186
  163OSM   C16S18356   2.790   6.146   4.123 -0.4348  0.0282 -0.3226
  163OSM   H16S18357   2.842   6.051   4.096 -1.1612 -0.3695 -0.3374
  163OSM   H16T18358   2.684   6.120   4.144 -0.4230 -0.9340 -1.3431
  163OSM   C17S18359   2.837   6.218   4.246  0.2089  0.4361  0.4031
  163OSM   H17S18360   2.945   6.243   4.234  0.4691 -0.3659  0.9300
  163OSM   H17T18361   2.836   6.144   4.329 -0.6512  0.7362  0.6640
  163OSM   C18S18362   2.747   6.338   4.286  0.2596 -0.5814 -0.4354
  163OSM   H18S18363   2.771   6.357   4.393  1.3980 -3.9570  0.0467
  163OSM   H18T18364   2.640   6.311   4.282 -0.4368  1.3756  2.1586
  163OSM   H18U18365   2.768   6.428   4.224 -1.3611  0.6640  0.7271
  163OSM    C1F18366   2.791   6.514   2.630 -0.4162 -0.1452 -0.0597
  163OSM     OF18367   2.683   6.544   2.584 -0.4070 -0.6802  0.3933
  163OSM    C2F18368   2.868   6.605   2.717 -0.3171 -0.0744  0.1432
  163OSM    H2F18369   2.911   6.687   2.656  0.8246  1.2817  2.6238
  163OSM    H2G18370   2.959   6.550   2.747  0.6622  1.4642  0.0608
  163OSM    C3F18371   2.800   6.655   2.845  0.2891 -0.2698 -0.1506
  163OSM    H3F18372   2.709   6.713   2.820  0.3875 -0.3323 -0.6546
  163OSM    H3G18373   2.869   6.736   2.879  0.8441 -0.1697 -1.4530
  163OSM    C4F18374   2.764   6.558   2.950 -0.7628 -0.5726 -0.0685
  163OSM    H4F18375   2.696   6.480   2.908 -1.0346 -0.1779 -0.3742
  163OSM    H4G18376   2.708   6.613   3.029 -0.5013  0.5390 -0.6440
  163OSM    C5F18377   2.881   6.488   3.020 -0.2001 -0.2115 -0.1184
  163OSM    H5F18378   2.946   6.431   2.950  1.8812 -0.3841  1.8426
  163OSM    H5G18379   2.840   6.409   3.087 -0.1176 -0.1924 -0.0457
  163OSM    C6F18380   2.962   6.579   3.117  0.2274 -0.0611  0.6943
  163OSM    H6F18381   2.978   6.681   3.077  1.4296 -0.9537 -1.2556
  163OSM    H6G18382   3.059   6.529   3.139  0.7927  0.0285 -1.4288
  163OSM    C7F18383   2.895   6.592   3.254  0.2906  1.1750  0.1622
  163OSM    H7F18384   2.877   6.495   3.305  2.2133  0.5086 -0.3224
  163OSM    H7G18385   2.795   6.637   3.240 -0.4218 -0.3478  0.0969
  163OSM    C8F18386   2.972   6.684   3.346 -0.3417  0.3321 -0.2254
  163OSM    H8F18387   2.898   6.738   3.409  1.4595  2.6497  0.0514
  163OSM    H8G18388   3.028   6.762   3.291 -1.4359  0.4295 -1.2228
  163OSM    C9F18389   3.054   6.613   3.439 -0.1394 -0.4554  0.0488
  163OSM    H9F18390   3.156   6.601   3.400  0.9143  0.3428  2.3499
  163OSM   C10F18391   3.028   6.574   3.566  0.4168  0.0966  0.1305
  163OSM   H10F18392   3.110   6.520   3.616 -1.2625 -0.9148  1.9282
  163OSM   C11F18393   2.904   6.585   3.645 -0.1122  0.2734 -0.5487
  163OSM   H11F18394   2.835   6.499   3.635  0.8154 -0.5409 -0.0682
  163OSM   H11G18395   2.848   6.679   3.628 -0.2909  0.3849  0.6040
  163OSM   C12F18396   2.954   6.597   3.797 -0.0885 -0.2949  0.1962
  163OSM   H12F18397   3.022   6.685   3.808 -1.1072  0.3690  1.4719
  163OSM   H12G18398   3.008   6.505   3.827 -0.2087  0.1811  1.9844
  163OSM   C13F18399   2.841   6.608   3.895  1.0812  0.2783  0.5161
  163OSM   H13F18400   2.778   6.516   3.895 -0.7001  1.4168 -1.0670
  163OSM   H13G18401   2.762   6.675   3.854  1.3256  0.1890 -0.1108
  163OSM   C14F18402   2.873   6.644   4.035  0.0113  0.3168  0.6524
  163OSM   H14F18403   2.786   6.622   4.099 -2.5183  2.8044 -1.6477
  163OSM   H14G18404   2.895   6.753   4.039  1.1385  0.2144 -1.1688
  163OSM   C15F18405   3.001   6.577   4.095 -0.0404 -0.2129 -0.4494
  163OSM   H15F18406   3.086   6.627   4.044  0.2101 -0.8212 -0.6389
  163OSM   H15G18407   2.999   6.467   4.079  0.5741 -0.2960 -0.0096
  163OSM   C16F18408   3.028   6.585   4.250 -0.5464 -0.7341 -0.3847
  163OSM   H16F18409   2.940   6.550   4.308 -1.7182  0.4669 -1.3580
  163OSM   H16G18410   3.036   6.691   4.282 -0.8004 -0.9954  0.5494
  163OSM   C17F18411   3.156   6.515   4.297  0.7077  0.0977 -0.0927
  163OSM   H17F18412   3.233   6.518   4.217  1.7091  1.5525  0.8670
  163OSM   H17G18413   3.123   6.409   4.308  0.4226  0.2435  0.5160
  163OSM   C18F18414   3.225   6.555   4.424  0.2132 -0.3894 -0.4035
  163OSM   H18F18415   3.256   6.661   4.430 -3.6233  0.7762  2.0633
  163OSM   H18G18416   3.302   6.475   4.435 -1.2260 -1.9854 -1.4860
  163OSM   H18H18417   3.152   6.537   4.506  1.2960  1.4281  1.0402
  164OSM      N18418   4.888   1.932   1.746 -0.0630 -0.1736  0.8170
  164OSM    C1518419   4.831   2.074   1.728  0.8265 -0.0498 -0.5327
  164OSM   H15A18420   4.833   2.128   1.821  1.6856 -3.3302  1.5349
  164OSM   H15B18421   4.729   2.063   1.694  0.7373  0.6726 -0.5012
  164OSM   H15C18422   4.894   2.130   1.661 -0.3004  1.6438 -0.2302
  164OSM    C1418423   4.880   1.854   1.609 -0.1444 -0.0997  0.6940
  164OSM   H14A18424   4.776   1.848   1.580  0.5977 -1.0873 -2.0004
  164OSM   H14B18425   4.914   1.753   1.621  0.1140 -0.3427 -1.6718
  164OSM   H14C18426   4.938   1.911   1.538 -0.7038 -1.6705 -1.0820
  164OSM    C1318427   5.027   1.940   1.792  0.4321  0.2261  0.4754
  164OSM   H13A18428   5.089   1.975   1.712 -1.0539  0.4305 -0.6436
  164OSM   H13B18429   5.058   1.841   1.822  1.5262 -0.0992 -1.5761
  164OSM   H13C18430   5.032   2.015   1.869  1.2985  1.9881 -1.2108
  164OSM    C1218431   4.802   1.850   1.839 -0.1833  0.3359  0.4169
  164OSM   H12A18432   4.842   1.751   1.830  1.0238  0.9232 -1.0286
  164OSM   H12B18433   4.703   1.846   1.796  0.5884 -0.3963 -1.3903
  164OSM    C1118434   4.790   1.891   1.987 -0.1567 -0.4825  0.5436
  164OSM   H11A18435   4.721   1.815   2.031  2.1193 -2.4854  0.8538
  164OSM   H11B18436   4.744   1.992   1.991  0.1651 -0.3675  2.8132
  164OSM      P18437   4.937   1.933   2.205  0.1480 -0.6982 -0.0757
  164OSM    O1318438   5.042   2.040   2.219 -0.2842  0.6824  0.6157
  164OSM    O1418439   4.806   1.963   2.263  0.3409 -0.0205 -0.7278
  164OSM    O1118440   4.994   1.803   2.278 -0.2293  0.1323 -0.3513
  164OSM    O1218441   4.917   1.898   2.054 -0.1411  0.1867 -0.2818
  164OSM    C1S18442   5.118   1.785   2.344 -0.5256  0.0364  0.5137
  164OSM    H1S18443   5.194   1.865   2.330  0.7940 -1.0455  1.2587
  164OSM    H1T18444   5.166   1.690   2.312 -1.1499 -0.2813  0.5117
  164OSM     NF18445   5.249   1.772   2.558  0.6502  0.4282  0.3519
  164OSM    HNF18446   5.305   1.690   2.565  0.9293  0.4299 -1.3673
  164OSM    C2S18447   5.113   1.765   2.499  0.3631 -0.3912 -0.5641
  164OSM    H2S18448   5.057   1.849   2.545  2.2278  0.8314 -0.3898
  164OSM    C3S18449   5.051   1.626   2.520  0.3023  0.1716 -0.4163
  164OSM    H3S18450   5.104   1.556   2.452 -0.7265 -0.3800 -0.6719
  164OSM     O318451   4.913   1.626   2.492  0.1000  0.0736 -0.1947
  164OSM    HO318452   4.903   1.678   2.411 -2.5502  0.4762  0.2954
  164OSM    C4S18453   5.072   1.582   2.669 -0.5106 -0.1814 -0.1659
  164OSM    H4S18454   5.148   1.504   2.685 -0.1750  0.1698 -0.0435
  164OSM    C5S18455   4.992   1.615   2.779 -0.0195  0.5405  0.8530
  164OSM    H5S18456   4.903   1.676   2.758 -0.4465 -0.4459 -0.2779
  164OSM    C6S18457   5.008   1.565   2.921  0.0094  0.1256  0.0248
  164OSM    H6S18458   4.919   1.606   2.973 -0.3237  0.4622 -0.8022
  164OSM    H6T18459   5.097   1.612   2.969  0.8402 -0.8048 -0.5529
  164OSM    C7S18460   5.012   1.415   2.940  0.0579  0.0978 -0.2914
  164OSM    H7S18461   5.086   1.377   2.867 -0.6473  0.7170 -1.3620
  164OSM    H7T18462   4.908   1.379   2.921  0.6534 -0.9367 -1.7572
  164OSM    C8S18463   5.064   1.371   3.081  0.0808  0.3186  0.4960
  164OSM    H8S18464   4.989   1.384   3.162 -0.0328  1.0719  0.2771
  164OSM    H8T18465   5.160   1.422   3.106  1.6838 -2.7082  0.9164
  164OSM    C9S18466   5.097   1.219   3.085 -0.0131  0.1742 -0.6734
  164OSM    H9S18467   5.171   1.194   3.005  0.4535  0.2831 -0.2810
  164OSM    H9T18468   5.006   1.160   3.061 -0.3612  0.7988 -0.9150
  164OSM   C10S18469   5.143   1.171   3.224 -0.6240  0.1503  0.0839
  164OSM   H10S18470   5.248   1.204   3.241 -0.3835 -1.2881  1.6545
  164OSM   H10T18471   5.157   1.062   3.233 -2.2692 -0.0767  0.2730
  164OSM   C11S18472   5.046   1.193   3.342  0.7045 -0.0666  0.1877
  164OSM   H11S18473   4.951   1.149   3.304 -1.2833  2.0175  2.4484
  164OSM   H11T18474   5.050   1.300   3.369 -1.9456  0.3632 -0.8096
  164OSM   C12S18475   5.078   1.121   3.473  0.1610 -0.3758  0.7461
  164OSM   H12S18476   5.170   1.161   3.522 -0.7173  1.6888  0.8046
  164OSM   H12T18477   5.095   1.013   3.453  0.2727 -0.2350  0.0407
  164OSM   C13S18478   4.973   1.154   3.575  0.2024 -0.0014  0.1490
  164OSM   H13S18479   4.884   1.107   3.527 -0.2325  1.1124 -0.1649
  164OSM   H13T18480   4.961   1.265   3.577  0.9342  0.0746  0.4081
  164OSM   C14S18481   5.009   1.106   3.721 -0.3859 -0.3755  0.1765
  164OSM   H14S18482   5.070   1.013   3.716  1.8918  1.0679 -0.7771
  164OSM   H14T18483   4.915   1.090   3.778 -0.5244 -1.0453 -0.2419
  164OSM   C15S18484   5.082   1.213   3.796  0.1142  0.1592 -1.0985
  164OSM   H15S18485   5.007   1.289   3.828  0.1912  0.3630 -1.4010
  164OSM   H15T18486   5.165   1.259   3.738 -0.8768  1.5293 -1.4878
  164OSM   C16S18487   5.141   1.155   3.931  0.6791 -0.2879  0.2564
  164OSM   H16S18488   5.199   1.229   3.990 -0.2135 -0.3936  1.3030
  164OSM   H16T18489   5.210   1.069   3.915  0.8042  0.2448 -2.7607
  164OSM   C17S18490   5.028   1.108   4.022 -0.2291 -0.4967  0.0558
  164OSM   H17S18491   4.979   1.019   3.977  0.5491 -0.2615 -1.2991
  164OSM   H17T18492   4.943   1.179   4.017  0.9915  1.2352  2.2449
  164OSM   C18S18493   5.067   1.096   4.163 -0.1388  0.6224  0.0834
  164OSM   H18S18494   4.981   1.095   4.233 -0.7046  1.0657 -0.5878
  164OSM   H18T18495   5.145   1.170   4.191 -0.8932  2.0668 -1.4212
  164OSM   H18U18496   5.111   0.994   4.170  2.2153  1.6188  0.6740
  164OSM    C1F18497   5.312   1.890   2.570 -0.2117 -0.1676  1.0342
  164OSM     OF18498   5.249   1.995   2.549 -0.0720 -0.0494 -0.2916
  164OSM    C2F18499   5.461   1.882   2.608  0.0134 -0.0843 -0.3527
  164OSM    H2F18500   5.513   1.885   2.510  0.9563 -2.9736 -0.0258
  164OSM    H2G18501   5.490   1.801   2.678  0.8065  0.6885  0.2368
  164OSM    C3F18502   5.501   2.021   2.666 -0.0990  0.0798 -0.1778
  164OSM    H3F18503   5.488   2.103   2.592  2.3449  0.2746 -0.4595
  164OSM    H3G18504   5.611   2.008   2.666 -0.3173 -2.4352 -1.8777
  164OSM    C4F18505   5.450   2.047   2.808 -0.1951  0.1915  0.0009
  164OSM    H4F18506   5.344   2.060   2.777 -0.1513  1.0365  0.1773
  164OSM    H4G18507   5.492   2.143   2.846 -0.6453  1.5259 -2.6102
  164OSM    C5F18508   5.469   1.925   2.906  0.0907  0.1891 -0.1563
  164OSM    H5F18509   5.572   1.885   2.897 -0.4045 -0.9105 -1.3167
  164OSM    H5G18510   5.397   1.844   2.882 -0.9810  0.3856  2.1434
  164OSM    C6F18511   5.449   1.970   3.048  0.4410 -0.2193  0.3669
  164OSM    H6F18512   5.434   1.882   3.114 -0.2949 -1.1764 -1.0212
  164OSM    H6G18513   5.362   2.040   3.050  1.4935  1.1234  0.6056
  164OSM    C7F18514   5.562   2.050   3.116  0.7215 -0.9308  0.4483
  164OSM    H7F18515   5.525   2.064   3.220 -0.0196  0.0443  0.0767
  164OSM    H7G18516   5.578   2.148   3.065 -1.5055 -1.5459 -1.6232
  164OSM    C8F18517   5.694   1.981   3.123 -0.5957  0.1690  0.1500
  164OSM    H8F18518   5.736   1.965   3.022  0.4275  1.3407  0.3645
  164OSM    H8G18519   5.677   1.877   3.159 -2.1114  0.4745  0.4002
  164OSM    C9F18520   5.793   2.061   3.203  0.1300  0.0468 -0.5450
  164OSM    H9F18521   5.770   2.169   3.200  0.6594  0.1422 -1.4985
  164OSM   C10F18522   5.856   2.020   3.316 -0.3087  1.3345  0.3035
  164OSM   H10F18523   5.907   2.096   3.378 -0.6011  0.8719  1.1228
  164OSM   C11F18524   5.872   1.876   3.353 -0.1077  0.1569  0.5980
  164OSM   H11F18525   5.982   1.860   3.364  0.5784  1.7797 -2.4727
  164OSM   H11G18526   5.847   1.812   3.265  1.0897  0.8954 -0.3260
  164OSM   C12F18527   5.798   1.852   3.479 -0.3870 -0.0986 -0.7089
  164OSM   H12F18528   5.696   1.895   3.469  1.1547  4.7267  1.4334
  164OSM   H12G18529   5.845   1.904   3.565  0.6337 -1.1074 -0.6217
  164OSM   C13F18530   5.797   1.711   3.531 -0.1271  0.3865  0.1362
  164OSM   H13F18531   5.889   1.651   3.510 -0.7363  0.5063 -3.6220
  164OSM   H13G18532   5.721   1.649   3.478 -0.6912 -0.0984  1.4849
  164OSM   C14F18533   5.754   1.699   3.675  0.4681  0.1978  0.0874
  164OSM   H14F18534   5.656   1.751   3.683  0.2116 -0.3381  0.5067
  164OSM   H14G18535   5.834   1.748   3.735  1.5455 -0.5274 -0.7145
  164OSM   C15F18536   5.737   1.556   3.725  0.5389 -0.5794 -0.0647
  164OSM   H15F18537   5.833   1.505   3.699  0.5197  0.1491 -1.7228
  164OSM   H15G18538   5.656   1.504   3.668 -1.3429  1.3794  0.7096
  164OSM   C16F18539   5.710   1.541   3.874 -0.0133  0.4950  0.1611
  164OSM   H16F18540   5.793   1.594   3.924  2.1223 -0.9302 -1.6901
  164OSM   H16G18541   5.706   1.434   3.904 -0.1566 -0.1870 -2.1183
  164OSM   C17F18542   5.576   1.602   3.910  0.3639 -0.3684 -0.5827
  164OSM   H17F18543   5.565   1.710   3.888 -0.2241  0.1806  2.0729
  164OSM   H17G18544   5.561   1.600   4.020 -0.6084  2.3295 -0.5956
  164OSM   C18F18545   5.451   1.524   3.853  0.2573 -0.2005  0.0242
  164OSM   H18F18546   5.362   1.539   3.918 -0.8374 -1.1779 -1.1785
  164OSM   H18G18547   5.476   1.416   3.847  1.0086 -0.0335  0.1026
  164OSM   H18H18548   5.427   1.567   3.753 -2.8437  2.3092  1.6386
  165SAPS     N18549   1.175   3.589   7.052 -0.0133  0.1542  0.9671
  165SAPS   HN118550   1.217   3.677   7.090 -0.0912  0.2170  0.9093
  165SAPS   HN218551   1.194   3.573   6.951  2.0804  1.7352  1.0409
  165SAPS   HN318552   1.072   3.602   7.055 -0.1929 -0.2017 -1.5708
  165SAPS   C1218553   1.206   3.468   7.117 -0.0118 -0.0091 -0.4999
  165SAPS  H12A18554   1.314   3.464   7.118  0.1561  0.4956  3.7063
  165SAPS   C1318555   1.175   3.454   7.266 -0.2981 -0.0161  0.2430
  165SAPS  O13A18556   1.112   3.543   7.317  0.0148 -0.0153  0.6414
  165SAPS  O13B18557   1.218   3.361   7.333  0.5430  0.6195 -0.6044
  165SAPS   C1118558   1.154   3.344   7.043 -0.1744 -0.1404 -0.5390
  165SAPS  H11A18559   1.043   3.347   7.042 -0.1822  0.0318  0.2895
  165SAPS  H11B18560   1.185   3.249   7.092  1.7035 -0.7874 -2.7835
  165SAPS     P18561   1.297   3.249   6.848 -0.0462  0.0934 -0.5025
  165SAPS   O1318562   1.430   3.277   6.893 -0.3337 -0.1046  0.8664
  165SAPS   O1418563   1.257   3.109   6.874  0.4449  0.1038 -0.1765
  165SAPS   O1218564   1.194   3.345   6.910  0.2779 -0.0617  1.0241
  165SAPS   O1118565   1.282   3.288   6.698  0.4586  0.1238  0.8058
  165SAPS    C118566   1.261   3.421   6.635 -0.0527  0.1394  0.4843
  165SAPS    HA18567   1.152   3.442   6.628 -0.0282  0.9013  2.0437
  165SAPS    HB18568   1.316   3.497   6.695 -0.8025  1.5725 -0.5747
  165SAPS    C218569   1.323   3.433   6.493  0.3346 -0.3347  0.7074
  165SAPS    HS18570   1.422   3.483   6.496  1.1159 -1.4140 -2.6021
  165SAPS   O2118571   1.229   3.500   6.404 -0.0466 -0.1614 -0.0245
  165SAPS   C2118572   1.204   3.630   6.423 -1.0697 -0.1925  0.4534
  165SAPS   O2218573   1.259   3.696   6.513 -0.3370 -0.1027  0.1936
  165SAPS   C2218574   1.094   3.681   6.333  0.1205  0.4330 -0.4206
  165SAPS   H2R18575   1.005   3.617   6.352 -1.7564  1.9715 -3.2544
  165SAPS   H2S18576   1.074   3.786   6.364  0.7463  0.7916 -1.1850
  165SAPS    C318577   1.341   3.297   6.432 -0.0816 -0.0892  0.4195
  165SAPS    HX18578   1.250   3.237   6.452 -0.2740  0.4729  1.2976
  165SAPS    HY18579   1.425   3.244   6.481  0.3543 -1.0942 -1.3111
  165SAPS   O3118580   1.359   3.300   6.287  0.1319 -0.0786  0.1704
  165SAPS   C3118581   1.460   3.369   6.237 -0.3897  0.1994 -0.6154
  165SAPS   O3218582   1.549   3.418   6.301 -0.5269 -0.1256 -0.2152
  165SAPS   C3218583   1.464   3.355   6.086  0.4522  0.4377 -0.4725
  165SAPS   H2X18584   1.383   3.418   6.042 -0.2943 -0.9441 -1.1314
  165SAPS   H2Y18585   1.451   3.250   6.054 -0.1272 -0.0589  1.2981
  165SAPS   C2318586   1.138   3.692   6.181 -0.3038 -0.1058 -0.1258
  165SAPS   H3R18587   1.044   3.723   6.131  0.1754  0.2211 -0.8480
  165SAPS   H3S18588   1.145   3.591   6.133  3.6703  0.9076 -2.1421
  165SAPS   C2418589   1.250   3.789   6.158 -0.3486 -0.3820 -0.2008
  165SAPS   H4R18590   1.238   3.871   6.233 -0.4188 -1.9153  1.5188
  165SAPS   H4S18591   1.248   3.832   6.055  0.4497  1.1499  0.3900
  165SAPS   C2518592   1.383   3.729   6.172 -0.3110  0.0684  0.1447
  165SAPS   H5R18593   1.402   3.688   6.272 -1.7489 -1.9567 -0.3495
  165SAPS   C2618594   1.480   3.742   6.080 -0.1413  0.9938  0.0818
  165SAPS   H6R18595   1.575   3.688   6.092 -0.2587  0.9821  1.0674
  165SAPS   C2718596   1.468   3.802   5.945  0.3252  0.8787 -0.2088
  165SAPS   H7R18597   1.561   3.853   5.911  0.5796  0.2505 -0.4753
  165SAPS   H7S18598   1.398   3.887   5.951  0.1330  0.6231  3.9650
  165SAPS   C2818599   1.420   3.706   5.839 -0.3330 -0.6049 -0.4074
  165SAPS   H8R18600   1.335   3.641   5.862 -0.0574 -0.4978  1.0432
  165SAPS   C2918601   1.460   3.703   5.712 -0.4481 -0.2789  0.6846
  165SAPS   H9R18602   1.409   3.628   5.649 -2.3607  1.2005  0.3922
  165SAPS  C21018603   1.565   3.785   5.641  0.1601  0.0314  0.2172
  165SAPS  H10R18604   1.604   3.726   5.555  0.1523 -0.3157  0.4484
  165SAPS  H10S18605   1.656   3.799   5.702 -0.0549  0.6605  0.4011
  165SAPS  C21118606   1.516   3.923   5.603 -0.6051  0.3067 -0.2331
  165SAPS  H11R18607   1.479   3.985   5.686  0.3747  0.1805  0.3109
  165SAPS  C21218608   1.535   3.979   5.481 -0.0141  0.1736  0.5125
  165SAPS  H12R18609   1.517   4.086   5.464 -1.8548  0.0457  1.3384
  165SAPS  C21318610   1.585   3.916   5.351 -0.0236 -0.6032  0.8565
  165SAPS  H13R18611   1.675   3.853   5.368  0.4407 -0.1547  0.1468
  165SAPS  H13S18612   1.617   3.994   5.279 -0.0536 -1.5508 -0.2256
  165SAPS  C21418613   1.468   3.838   5.288 -0.8040 -1.1384  0.0372
  165SAPS  H14R18614   1.405   3.781   5.358  0.9198 -3.9208 -0.5353
  165SAPS  C21518615   1.429   3.842   5.161  0.5519 -0.2585 -0.7998
  165SAPS  H15R18616   1.345   3.774   5.140  1.9450 -2.1436 -0.4671
  165SAPS  C21618617   1.497   3.910   5.045  1.3225 -0.1255  0.4590
  165SAPS  H16R18618   1.583   3.972   5.080  0.1588  0.7962  1.7706
  165SAPS  H16S18619   1.425   3.981   4.999  0.7280  0.2934  1.9869
  165SAPS  C21718620   1.550   3.803   4.952  0.5586 -0.0901 -0.1246
  165SAPS  H17R18621   1.464   3.735   4.933  0.2307  0.3684 -0.2872
  165SAPS  H17S18622   1.632   3.744   4.998  1.4162  1.3334  0.2400
  165SAPS  C21818623   1.606   3.875   4.827 -0.0163  0.7271 -0.0172
  165SAPS  H18R18624   1.514   3.929   4.795 -0.3717  0.2371  0.1828
  165SAPS  H18S18625   1.646   3.799   4.757 -1.3478 -0.3866  0.3944
  165SAPS  C21918626   1.702   3.997   4.855  0.7216  0.3244 -0.4782
  165SAPS  H19R18627   1.767   3.968   4.940 -1.1769 -3.6227 -0.1605
  165SAPS  H19S18628   1.643   4.087   4.881  2.2749  0.9556  1.0407
  165SAPS  C22018629   1.776   4.027   4.729  0.2410  0.1204  0.7533
  165SAPS  H20R18630   1.803   3.941   4.663  0.0378  1.1479 -0.7129
  165SAPS  H20S18631   1.865   4.087   4.757  2.2093 -0.9519 -2.5834
  165SAPS  H20T18632   1.716   4.097   4.668  0.9272  0.7462  0.7904
  165SAPS   C3318633   1.602   3.390   6.033 -0.4846 -0.7059  0.3792
  165SAPS   H3X18634   1.689   3.341   6.081  1.1923  0.4165 -1.3849
  165SAPS   H3Y18635   1.634   3.496   6.038  1.3285 -1.2827  1.9913
  165SAPS   C3418636   1.626   3.350   5.881  0.7637 -0.4267 -0.4543
  165SAPS   H4X18637   1.555   3.417   5.828  1.8133 -0.3177 -1.7965
  165SAPS   H4Y18638   1.605   3.241   5.869  0.9159 -1.0263  3.4535
  165SAPS   C3518639   1.766   3.394   5.832  0.0256 -0.2703  0.0086
  165SAPS   H5X18640   1.838   3.332   5.889 -1.2831  0.6076  2.7637
  165SAPS   H5Y18641   1.775   3.504   5.844  0.4656 -0.4332  1.2776
  165SAPS   C3618642   1.783   3.366   5.682  0.5896  0.3835  0.6517
  165SAPS   H6X18643   1.779   3.258   5.660  0.8590  0.6065 -0.5861
  165SAPS   H6Y18644   1.885   3.396   5.649  1.6283 -0.2812  3.1210
  165SAPS   C3718645   1.676   3.439   5.597 -0.0191  0.2302 -0.4964
  165SAPS   H7X18646   1.711   3.544   5.600  0.9902 -0.1056  1.4470
  165SAPS   H7Y18647   1.575   3.425   5.640  0.7301  1.4618  1.8383
  165SAPS   C3818648   1.663   3.391   5.451 -0.2050 -0.5975 -0.1099
  165SAPS   H8X18649   1.652   3.281   5.438  0.6635 -1.0642  2.5055
  165SAPS   H8Y18650   1.755   3.425   5.399 -1.0351  0.0770 -1.1939
  165SAPS   C3918651   1.548   3.465   5.388  0.8630  0.2022  0.2378
  165SAPS   H9X18652   1.547   3.576   5.395  0.3065  0.2038  0.2061
  165SAPS   H9Y18653   1.462   3.440   5.453 -0.4955  3.3502 -0.1488
  165SAPS  C31018654   1.509   3.427   5.246  0.4792 -0.7734 -0.2028
  165SAPS  H10X18655   1.600   3.441   5.183  0.9144  1.4599  0.8217
  165SAPS  H10Y18656   1.425   3.486   5.202  0.0347 -1.7092 -0.6278
  165SAPS  C31118657   1.478   3.276   5.226  0.1257 -0.3981  0.0920
  165SAPS  H11X18658   1.429   3.227   5.313  0.0651 -1.4252 -0.5014
  165SAPS  H11Y18659   1.575   3.223   5.235 -0.2872 -1.0335  1.0385
  165SAPS  C31218660   1.420   3.243   5.090 -0.1067  0.2386  0.1004
  165SAPS  H12X18661   1.314   3.275   5.083  0.0192  0.5409 -0.5342
  165SAPS  H12Y18662   1.398   3.137   5.067 -0.5789 -0.0143  1.6114
  165SAPS  C31318663   1.498   3.285   4.964 -0.2525 -1.0983  0.0641
  165SAPS  H13X18664   1.592   3.230   4.941  0.1048 -0.2358 -0.6421
  165SAPS  H13Y18665   1.528   3.392   4.978  0.8403 -1.4555  0.5625
  165SAPS  C31418666   1.415   3.281   4.840 -0.3447 -0.7382 -0.6809
  165SAPS  H14X18667   1.333   3.355   4.854 -0.5430 -1.3600  1.9158
  165SAPS  H14Y18668   1.373   3.179   4.831 -1.3393 -0.2551 -1.7664
  165SAPS  C31518669   1.483   3.316   4.706 -0.5047  0.1930 -0.5070
  165SAPS  H15X18670   1.568   3.245   4.694  0.1298  0.4336  1.9034
  165SAPS  H15Y18671   1.528   3.417   4.698  1.4295 -0.6270 -0.6754
  165SAPS  C31618672   1.400   3.291   4.581 -0.2276 -0.0087  0.1490
  165SAPS  H16X18673   1.355   3.190   4.569  1.5196 -0.5478 -2.7274
  165SAPS  H16Y18674   1.460   3.309   4.489  1.1178  1.5602  1.2613
  165SAPS  C31718675   1.294   3.404   4.582 -0.0289 -1.5842 -0.6454
  165SAPS  H17X18676   1.345   3.500   4.607 -1.1626 -0.8152 -1.2079
  165SAPS  H17Y18677   1.220   3.397   4.664  0.1928 -0.3559 -0.3053
  165SAPS  C31818678   1.211   3.428   4.455 -0.0231  0.2591  0.0775
  165SAPS  H18X18679   1.188   3.331   4.408 -0.2723 -0.0364  0.7885
  165SAPS  H18Y18680   1.273   3.484   4.382  0.7273  0.5907  0.9445
  165SAPS  H18Z18681   1.118   3.482   4.484 -0.3995 -0.5472  0.3797
  166SAPS     N18682   6.583   3.620   6.982  0.2604 -0.0907  0.6866
  166SAPS   HN118683   6.676   3.609   6.938  0.1218 -0.7242  0.5460
  166SAPS   HN218684   6.553   3.525   7.012  0.3899 -1.0412 -1.9512
  166SAPS   HN318685   6.528   3.645   6.897 -1.4670 -1.4818  1.3282
  166SAPS   C1218686   6.588   3.733   7.080  0.0489 -0.4875  0.1300
  166SAPS  H12A18687   6.509   3.716   7.151 -0.4725  0.1155 -0.3072
  166SAPS   C1318688   6.723   3.750   7.158 -0.1239 -0.0313 -0.0100
  166SAPS  O13A18689   6.812   3.665   7.135 -0.2894  0.0616  0.2767
  166SAPS  O13B18690   6.741   3.854   7.226  0.0234  0.2837  0.5464
  166SAPS   C1118691   6.548   3.862   7.013  0.0212  0.2414 -0.7450
  166SAPS  H11A18692   6.627   3.900   6.944  0.1459 -2.2909 -2.1086
  166SAPS  H11B18693   6.552   3.930   7.101 -3.7216 -0.6602  0.2876
  166SAPS     P18694   6.283   3.914   7.007 -0.0133 -0.0013 -0.5967
  166SAPS   O1318695   6.176   3.816   6.967 -0.0889 -0.3707  0.4700
  166SAPS   O1418696   6.299   3.943   7.150 -0.0070 -0.3462 -0.2622
  166SAPS   O1218697   6.419   3.858   6.947  0.1404  0.5914 -0.1405
  166SAPS   O1118698   6.279   4.049   6.931  0.0290  0.4394 -0.0703
  166SAPS    C118699   6.261   4.062   6.789 -0.1051  0.4752  0.1607
  166SAPS    HA18700   6.196   3.977   6.758 -1.1184  1.3958 -0.2939
  166SAPS    HB18701   6.202   4.155   6.775 -1.4174 -0.2326  0.7724
  166SAPS    C218702   6.383   4.065   6.703 -0.0067 -0.1794 -0.1897
  166SAPS    HS18703   6.443   3.973   6.721 -0.2511 -0.6686 -1.7652
  166SAPS   O2118704   6.451   4.183   6.743  0.2487 -0.3497 -0.0783
  166SAPS   C2118705   6.584   4.178   6.734 -0.1630  0.2737  0.3878
  166SAPS   O2218706   6.652   4.081   6.706  0.0132 -0.1323  0.1986
  166SAPS   C2218707   6.639   4.310   6.779 -0.3247  0.2888  0.7289
  166SAPS   H2R18708   6.599   4.399   6.726 -1.9335  0.1396  1.6215
  166SAPS   H2S18709   6.619   4.324   6.888 -0.6729  1.6202  0.5078
  166SAPS    C318710   6.330   4.071   6.550 -0.7051  0.0036 -0.1134
  166SAPS    HX18711   6.415   4.074   6.478 -0.4954 -1.3061  0.0581
  166SAPS    HY18712   6.280   4.170   6.545 -1.5491 -0.2369  2.3955
  166SAPS   O3118713   6.232   3.970   6.506  0.2676  0.0530 -0.0528
  166SAPS   C3118714   6.298   3.852   6.482  0.2859 -0.0347  0.0109
  166SAPS   O3218715   6.411   3.831   6.517  0.1526 -0.2708 -0.1719
  166SAPS   C3218716   6.208   3.765   6.399 -0.2957 -0.4940  0.2272
  166SAPS   H2X18717   6.116   3.737   6.455 -0.2253 -1.4335 -0.1099
  166SAPS   H2Y18718   6.267   3.680   6.359  1.0913  1.0158 -1.0930
  166SAPS   C2318719   6.797   4.309   6.769  0.2599  0.0300  0.0383
  166SAPS   H3R18720   6.836   4.208   6.746  0.5530  0.4427 -1.3932
  166SAPS   H3S18721   6.843   4.349   6.862 -0.3896  0.8208  0.0323
  166SAPS   C2418722   6.849   4.385   6.639 -0.1102  0.1819 -0.1081
  166SAPS   H4R18723   6.833   4.321   6.550  1.2973 -0.6288  0.2012
  166SAPS   H4S18724   6.959   4.383   6.655 -0.0729 -1.3623 -0.3812
  166SAPS   C2518725   6.810   4.529   6.623 -0.0138  0.0573 -0.2987
  166SAPS   H5R18726   6.842   4.594   6.706 -1.1682  0.1937  0.0551
  166SAPS   C2618727   6.745   4.585   6.521  0.0728  0.4228 -0.1851
  166SAPS   H6R18728   6.742   4.695   6.511 -0.6423  0.3015 -1.5404
  166SAPS   C2718729   6.713   4.511   6.395  0.9570 -0.3889  0.0385
  166SAPS   H7R18730   6.800   4.454   6.355  1.4162  0.2408  0.1258
  166SAPS   H7S18731   6.691   4.587   6.317 -0.0015  2.2193  2.6297
  166SAPS   C2818732   6.588   4.432   6.407  0.2821 -0.1573 -0.4086
  166SAPS   H8R18733   6.550   4.428   6.510 -0.2219  2.2608 -0.4445
  166SAPS   C2918734   6.523   4.361   6.308  0.6419  0.7531 -0.4141
  166SAPS   H9R18735   6.426   4.316   6.336  0.3273  1.5459 -0.2012
  166SAPS  C21018736   6.546   4.370   6.164  0.6760 -0.4071  0.1871
  166SAPS  H10R18737   6.473   4.298   6.121 -1.7549  2.0638 -0.1829
  166SAPS  H10S18738   6.643   4.329   6.129  1.1689  0.8391  0.0307
  166SAPS  C21118739   6.523   4.513   6.110  0.2423  0.4339 -1.4639
  166SAPS  H11R18740   6.517   4.593   6.186  0.5082 -0.9498  0.0752
  166SAPS  C21218741   6.496   4.538   5.981  0.2067  0.0071  0.7530
  166SAPS  H12R18742   6.481   4.639   5.942  0.8169 -0.7883 -1.7215
  166SAPS  C21318743   6.480   4.433   5.871  0.0010 -0.4760  0.0648
  166SAPS  H13R18744   6.415   4.355   5.916 -1.6844  0.4836 -0.5931
  166SAPS  H13S18745   6.571   4.372   5.855 -0.3111 -1.0374  0.3743
  166SAPS  C21418746   6.437   4.491   5.737  0.5137 -0.3525  0.5480
  166SAPS  H14R18747   6.366   4.574   5.746 -0.8249 -1.0970 -2.0320
  166SAPS  C21518748   6.456   4.432   5.618 -0.5952  0.2772 -0.7029
  166SAPS  H15R18749   6.422   4.478   5.524 -0.0810  0.5603 -0.7553
  166SAPS  C21618750   6.541   4.308   5.596 -0.5648 -0.1888  0.8843
  166SAPS  H16R18751   6.553   4.242   5.684 -2.9486 -1.0352  0.6637
  166SAPS  H16S18752   6.636   4.337   5.546 -1.2997  1.8846  0.5922
  166SAPS  C21718753   6.475   4.204   5.502  0.6070 -0.5389  0.7135
  166SAPS  H17R18754   6.377   4.167   5.539  0.3508 -0.1437  0.4350
  166SAPS  H17S18755   6.539   4.113   5.504 -2.7310 -3.1123  0.6193
  166SAPS  C21818756   6.469   4.244   5.356  0.3208  0.7195 -0.2308
  166SAPS  H18R18757   6.571   4.262   5.316  0.4748 -2.4995 -1.6600
  166SAPS  H18S18758   6.406   4.335   5.346  0.2214  0.6861  0.0884
  166SAPS  C21918759   6.409   4.136   5.267 -0.5649 -0.0467 -0.0575
  166SAPS  H19R18760   6.315   4.087   5.302 -2.3034  2.1546 -1.4103
  166SAPS  H19S18761   6.491   4.062   5.269  0.0499  0.6067 -0.8102
  166SAPS  C22018762   6.374   4.172   5.113  0.3116  0.3061  0.0301
  166SAPS  H20R18763   6.440   4.241   5.057 -2.0157  1.2444 -1.6996
  166SAPS  H20S18764   6.283   4.235   5.108  0.8282  0.9527 -2.7391
  166SAPS  H20T18765   6.366   4.086   5.044  1.1041  1.4136 -1.4970
  166SAPS   C3318766   6.148   3.841   6.273 -0.0566 -0.4144  0.7370
  166SAPS   H3X18767   6.141   3.952   6.274 -1.6781 -0.4993  0.7332
  166SAPS   H3Y18768   6.050   3.798   6.244  0.2633 -0.1459 -0.8349
  166SAPS   C3418769   6.247   3.818   6.154 -0.5786  0.1681 -0.4146
  166SAPS   H4X18770   6.289   3.715   6.153  0.2894  0.4806  0.8674
  166SAPS   H4Y18771   6.329   3.890   6.175  0.7624 -1.4722  0.2104
  166SAPS   C3518772   6.206   3.848   6.007  0.8905  0.0743 -0.0844
  166SAPS   H5X18773   6.172   3.952   5.988  0.8530 -0.0600 -0.7872
  166SAPS   H5Y18774   6.124   3.773   6.000  1.2857 -0.5857  1.8028
  166SAPS   C3618775   6.326   3.801   5.918 -0.5039  0.1808 -0.5543
  166SAPS   H6X18776   6.334   3.693   5.940 -1.2117  0.4844  1.4392
  166SAPS   H6Y18777   6.421   3.853   5.943  0.3319 -0.6690 -1.8486
  166SAPS   C3718778   6.284   3.821   5.776 -0.4369 -0.3032  0.5234
  166SAPS   H7X18779   6.282   3.931   5.759  0.2259 -0.1589  1.3609
  166SAPS   H7Y18780   6.181   3.787   5.750 -0.3066  0.6898 -1.4899
  166SAPS   C3818781   6.376   3.772   5.667 -0.4451  0.2266 -0.7294
  166SAPS   H8X18782   6.393   3.665   5.690 -0.5845  0.3697  0.0697
  166SAPS   H8Y18783   6.477   3.818   5.664  0.1051 -0.9770 -1.3135
  166SAPS   C3918784   6.317   3.778   5.522  0.3762 -0.4867  0.7456
  166SAPS   H9X18785   6.294   3.884   5.499 -1.4280 -0.7295  1.2841
  166SAPS   H9Y18786   6.229   3.710   5.515  0.0333 -0.1502  1.6542
  166SAPS  C31018787   6.418   3.728   5.421  0.1637 -0.4553 -0.5107
  166SAPS  H10X18788   6.440   3.623   5.452  0.7203  0.1455  1.2258
  166SAPS  H10Y18789   6.512   3.788   5.423 -0.0580 -0.1062  1.6229
  166SAPS  C31118790   6.354   3.728   5.278 -0.2921 -0.4041 -0.3891
  166SAPS  H11X18791   6.334   3.831   5.244 -0.4499 -0.6648 -1.1128
  166SAPS  H11Y18792   6.259   3.670   5.277 -1.0349  0.6091  2.3123
  166SAPS  C31218793   6.438   3.663   5.174  0.2673  0.4716  0.7122
  166SAPS  H12X18794   6.457   3.556   5.197  0.8441  0.6155  0.9271
  166SAPS  H12Y18795   6.543   3.698   5.161  0.1679  0.4905 -0.1203
  166SAPS  C31318796   6.377   3.694   5.037  0.3474  0.4331  0.3429
  166SAPS  H13X18797   6.379   3.804   5.023 -0.5485  0.4445  0.2001
  166SAPS  H13Y18798   6.268   3.674   5.028  0.1455  1.7774 -0.4592
  166SAPS  C31418799   6.454   3.627   4.925  0.0874 -0.3680 -0.0027
  166SAPS  H14X18800   6.451   3.516   4.929 -0.1315 -0.3134  2.4723
  166SAPS  H14Y18801   6.557   3.670   4.921 -0.2679  0.4714 -0.2893
  166SAPS  C31518802   6.382   3.659   4.784 -0.4774  0.4688  0.0929
  166SAPS  H15X18803   6.421   3.757   4.750  1.4484 -0.5732 -0.8768
  166SAPS  H15Y18804   6.271   3.650   4.790 -0.3612 -1.3781  0.1201
  166SAPS  C31618805   6.401   3.558   4.664  0.0443  0.0186 -0.9249
  166SAPS  H16X18806   6.309   3.551   4.602  0.3795  1.5797 -1.6554
  166SAPS  H16Y18807   6.406   3.459   4.715 -1.2309  1.2900  1.8785
  166SAPS  C31718808   6.521   3.593   4.578  0.0037  0.2549  0.7773
  166SAPS  H17X18809   6.611   3.612   4.641 -1.7621  0.5713  3.3401
  166SAPS  H17Y18810   6.497   3.684   4.518 -0.5411 -0.2302  0.2392
  166SAPS  C31818811   6.552   3.479   4.479 -0.2036  0.1979 -0.8059
  166SAPS  H18X18812   6.642   3.500   4.418  0.7284  1.0690  0.8108
  166SAPS  H18Y18813   6.463   3.452   4.417 -0.6458  0.9070 -0.4938
  166SAPS  H18Z18814   6.579   3.393   4.544 -2.6205  0.8323  1.2066
  167SAPS     N18815   3.004   5.155   7.177 -0.2517  0.0757  0.5041
  167SAPS   HN118816   2.952   5.065   7.179  2.7822 -1.8611 -0.7003
  167SAPS   HN218817   3.024   5.158   7.075 -1.0389  2.7763  0.3568
  167SAPS   HN318818   3.079   5.163   7.250  0.1392 -1.1830  0.2684
  167SAPS   C1218819   2.915   5.268   7.191 -0.1915  0.3109 -0.0037
  167SAPS  H12A18820   2.841   5.236   7.264 -1.1350 -1.4555 -1.6334
  167SAPS   C1318821   2.972   5.403   7.231 -0.8703  0.1402 -1.0207
  167SAPS  O13A18822   3.094   5.418   7.273  0.0184 -0.1736  0.0623
  167SAPS  O13B18823   2.885   5.500   7.246  0.7051  0.2076  0.5206
  167SAPS   C1118824   2.844   5.286   7.056 -0.0340 -0.5963 -0.5129
  167SAPS  H11A18825   2.762   5.359   7.076  0.5727  0.7680 -2.6796
  167SAPS  H11B18826   2.798   5.192   7.018  1.3418 -0.9418 -1.3659
  167SAPS     P18827   2.973   5.257   6.826  0.0048 -0.2191 -0.3944
  167SAPS   O1318828   3.071   5.336   6.747 -0.0658  0.2280 -0.3469
  167SAPS   O1418829   3.015   5.125   6.879 -0.0565  0.1686 -0.1693
  167SAPS   O1218830   2.928   5.340   6.951 -0.6023 -0.2077 -0.3667
  167SAPS   O1118831   2.835   5.244   6.748  0.2773  0.4579  0.8322
  167SAPS    C118832   2.749   5.359   6.739  0.6210 -0.2644 -0.0565
  167SAPS    HA18833   2.648   5.354   6.785 -0.9647  1.7914 -2.9533
  167SAPS    HB18834   2.792   5.449   6.787  0.2343  1.1084 -2.1702
  167SAPS    C218835   2.726   5.406   6.593 -0.3630  0.1439 -0.1413
  167SAPS    HS18836   2.663   5.497   6.601 -0.7461 -0.0170 -1.2302
  167SAPS   O2118837   2.663   5.302   6.517  0.0580 -0.7165  0.5914
  167SAPS   C2118838   2.584   5.335   6.422 -0.1293  0.1813  0.6010
  167SAPS   O2218839   2.530   5.446   6.412  0.1470  0.2673  0.0974
  167SAPS   C2218840   2.558   5.217   6.333 -0.3700 -0.1025 -0.0505
  167SAPS   H2R18841   2.648   5.157   6.311 -0.1824  0.0621  0.2582
  167SAPS   H2S18842   2.497   5.147   6.394  0.2357  1.0802  2.0030
  167SAPS    C318843   2.858   5.447   6.528 -0.0242  0.5022  0.5840
  167SAPS    HX18844   2.922   5.363   6.494 -0.7358  0.2724 -0.2180
  167SAPS    HY18845   2.913   5.501   6.608 -0.8158  0.6116  1.0559
  167SAPS   O3118846   2.846   5.540   6.415  0.5482  0.3110 -0.2351
  167SAPS   C3118847   2.877   5.497   6.295 -0.4655  0.2330 -0.2625
  167SAPS   O3218848   2.886   5.378   6.256 -0.2367  0.0224 -0.3346
  167SAPS   C3218849   2.900   5.615   6.207 -0.3086 -0.2695 -0.1826
  167SAPS   H2X18850   3.008   5.640   6.218 -0.1440 -0.9277 -0.2400
  167SAPS   H2Y18851   2.832   5.698   6.235  1.3515  1.1650 -0.2270
  167SAPS   C2318852   2.487   5.259   6.205 -0.0564 -0.2469  0.2042
  167SAPS   H3R18853   2.384   5.299   6.220  0.5085  1.7559 -0.8445
  167SAPS   H3S18854   2.472   5.166   6.146  1.6890 -1.2323  1.2382
  167SAPS   C2418855   2.564   5.355   6.114 -0.6808 -0.2861  0.1765
  167SAPS   H4R18856   2.614   5.433   6.176 -1.5616 -0.4117  1.0777
  167SAPS   H4S18857   2.497   5.418   6.053  2.2817  3.4888  0.4138
  167SAPS   C2518858   2.651   5.286   6.021 -0.6545 -0.1826 -0.6235
  167SAPS   H5R18859   2.750   5.260   6.062 -1.7139 -0.8914  1.5916
  167SAPS   C2618860   2.641   5.261   5.892  0.0331  0.1946 -0.5442
  167SAPS   H6R18861   2.729   5.206   5.855 -1.3336 -1.2608 -1.7625
  167SAPS   C2718862   2.520   5.297   5.808 -0.2394  0.7874  0.0464
  167SAPS   H7R18863   2.543   5.394   5.760  0.2020  0.5613 -0.2035
  167SAPS   H7S18864   2.433   5.321   5.873  1.2701 -0.6677  2.8064
  167SAPS   C2818865   2.480   5.187   5.720 -0.3075  0.3715 -0.0902
  167SAPS   H8R18866   2.543   5.098   5.731  0.1065  0.5465 -1.0178
  167SAPS   C2918867   2.397   5.195   5.616 -0.1483 -0.7588  0.3885
  167SAPS   H9R18868   2.374   5.098   5.569 -0.7161 -2.0562  3.1198
  167SAPS  C21018869   2.313   5.305   5.569  1.0225 -0.4384  0.5715
  167SAPS  H10R18870   2.366   5.378   5.504  0.7513  0.3021  1.1797
  167SAPS  H10S18871   2.284   5.349   5.666  1.1680 -1.9232  1.3105
  167SAPS  C21118872   2.179   5.263   5.508  0.4134  0.4181  0.8687
  167SAPS  H11R18873   2.097   5.243   5.579  0.4480 -0.2144  0.7350
  167SAPS  C21218874   2.156   5.255   5.375  0.0456 -0.7575  0.2552
  167SAPS  H12R18875   2.057   5.218   5.344 -0.2980  0.3398  0.0194
  167SAPS  C21318876   2.258   5.275   5.272  0.1977  0.6320  1.1885
  167SAPS  H13R18877   2.362   5.301   5.301 -0.0636  3.1423  0.1150
  167SAPS  H13S18878   2.225   5.357   5.206 -0.2563 -0.4673  0.0030
  167SAPS  C21418879   2.256   5.141   5.204 -0.4469 -0.2587  0.6153
  167SAPS  H14R18880   2.304   5.058   5.257  1.6593  0.6381  0.2180
  167SAPS  C21518881   2.186   5.111   5.091 -0.3562 -0.0894  0.8151
  167SAPS  H15R18882   2.200   5.010   5.050 -1.5835 -0.8531  2.1624
  167SAPS  C21618883   2.100   5.196   4.997  0.2508  0.6528 -0.0188
  167SAPS  H16R18884   2.060   5.288   5.044 -0.4272 -0.2966  1.3413
  167SAPS  H16S18885   2.002   5.148   4.980 -0.0708  1.3807 -0.2538
  167SAPS  C21718886   2.162   5.218   4.859  0.4183  0.1926 -0.4694
  167SAPS  H17R18887   2.216   5.128   4.822  1.7441  0.8605 -0.1987
  167SAPS  H17S18888   2.245   5.290   4.869  1.4251 -0.7238 -1.8016
  167SAPS  C21818889   2.062   5.272   4.753 -0.6505 -0.4570 -0.6889
  167SAPS  H18R18890   2.115   5.266   4.655  2.4272 -0.1984  0.8634
  167SAPS  H18S18891   2.039   5.377   4.778 -1.0939 -0.5163 -0.8167
  167SAPS  C21918892   1.927   5.196   4.734  0.0538 -0.0808  0.3166
  167SAPS  H19R18893   1.866   5.250   4.660 -0.0998 -2.1486 -1.1527
  167SAPS  H19S18894   1.874   5.209   4.831 -1.9498 -1.4282 -0.5275
  167SAPS  C22018895   1.937   5.047   4.701 -0.6314 -0.0960  0.0530
  167SAPS  H20R18896   2.016   4.999   4.763  1.3514  1.4116 -1.1724
  167SAPS  H20S18897   1.980   5.031   4.600  0.0997 -1.5540  0.5702
  167SAPS  H20T18898   1.833   5.008   4.709 -0.2406 -1.4021 -0.7983
  167SAPS   C3318899   2.887   5.573   6.060  0.0412  0.3917  0.5714
  167SAPS   H3X18900   2.787   5.529   6.044 -0.8220  2.4984 -0.2399
  167SAPS   H3Y18901   2.966   5.500   6.034  0.3622  1.7702 -2.7913
  167SAPS   C3418902   2.905   5.692   5.969  0.0494  0.3700 -0.1991
  167SAPS   H4X18903   2.943   5.650   5.874  2.2561  1.0479  0.3309
  167SAPS   H4Y18904   2.987   5.757   6.005 -0.3701 -0.0926  1.7076
  167SAPS   C3518905   2.780   5.774   5.947 -0.5863 -0.5497  0.6125
  167SAPS   H5X18906   2.806   5.866   5.890 -3.1270  0.1294  0.4284
  167SAPS   H5Y18907   2.755   5.819   6.046 -0.3663  1.6866 -0.2940
  167SAPS   C3618908   2.663   5.701   5.884  0.6651 -0.4171  0.5126
  167SAPS   H6X18909   2.568   5.758   5.886 -1.3137 -3.4850  1.2140
  167SAPS   H6Y18910   2.647   5.597   5.920 -0.7967 -0.3802  0.0287
  167SAPS   C3718911   2.685   5.687   5.728  0.3712 -0.0500 -0.1120
  167SAPS   H7X18912   2.759   5.608   5.705  0.4770 -0.2244  0.7991
  167SAPS   H7Y18913   2.727   5.782   5.687 -1.2036 -0.3260 -2.5732
  167SAPS   C3818914   2.562   5.678   5.641  0.0123  0.1035 -0.5943
  167SAPS   H8X18915   2.493   5.762   5.663 -1.4590 -1.3917  0.7919
  167SAPS   H8Y18916   2.498   5.589   5.659 -0.2769 -0.0363 -2.1574
  167SAPS   C3918917   2.603   5.683   5.491  0.3543  0.4828  0.0886
  167SAPS   H9X18918   2.646   5.585   5.459 -1.7270  0.2924 -2.4294
  167SAPS   H9Y18919   2.675   5.763   5.465  1.0150 -0.5133 -1.2374
  167SAPS  C31018920   2.479   5.698   5.400  0.7801 -0.6043  0.1530
  167SAPS  H10X18921   2.443   5.803   5.408  0.9109 -0.5847  0.4651
  167SAPS  H10Y18922   2.404   5.622   5.431  0.2923 -0.0852  0.2767
  167SAPS  C31118923   2.513   5.690   5.240  0.5947  0.0487  0.4706
  167SAPS  H11X18924   2.607   5.748   5.224  1.0902 -0.8408  0.0853
  167SAPS  H11Y18925   2.435   5.742   5.181  0.0939 -0.8715  0.3121
  167SAPS  C31218926   2.550   5.553   5.185  0.4629  0.7430 -0.1277
  167SAPS  H12X18927   2.462   5.489   5.205  0.9804  0.2198  0.5422
  167SAPS  H12Y18928   2.633   5.516   5.249  1.3042  0.1264 -1.5275
  167SAPS  C31318929   2.588   5.559   5.038  0.6538 -0.6128 -0.0823
  167SAPS  H13X18930   2.629   5.462   5.004  2.0372 -0.5661  1.3437
  167SAPS  H13Y18931   2.666   5.638   5.036  0.2361 -0.1780  0.2961
  167SAPS  C31418932   2.474   5.603   4.936 -0.2167 -0.1725 -0.6799
  167SAPS  H14X18933   2.453   5.712   4.943  0.0244 -0.1416 -0.3910
  167SAPS  H14Y18934   2.380   5.550   4.962  0.5646 -1.4099 -0.2871
  167SAPS  C31518935   2.515   5.579   4.791  0.5363  0.0059  0.0307
  167SAPS  H15X18936   2.471   5.480   4.764  0.1520  0.3955 -0.8180
  167SAPS  H15Y18937   2.622   5.574   4.764 -0.4758  1.4157 -5.4360
  167SAPS  C31618938   2.442   5.680   4.695  0.1524  0.0784  0.2318
  167SAPS  H16X18939   2.492   5.779   4.697  1.2649 -0.4656 -0.1815
  167SAPS  H16Y18940   2.336   5.692   4.728 -0.4780  0.8851 -1.8748
  167SAPS  C31718941   2.440   5.637   4.546 -0.2223 -0.4431 -0.9932
  167SAPS  H17X18942   2.542   5.609   4.512  0.0544  0.7839 -1.2091
  167SAPS  H17Y18943   2.412   5.725   4.485 -0.7922 -0.5985 -0.9704
  167SAPS  C31818944   2.342   5.527   4.507 -0.0556 -0.4204  0.0520
  167SAPS  H18X18945   2.390   5.427   4.504 -1.9599 -1.3567 -0.8648
  167SAPS  H18Y18946   2.304   5.536   4.403 -0.7193 -1.1366  0.2206
  167SAPS  H18Z18947   2.257   5.528   4.578 -0.2096  1.2271 -0.1176
  168SAPS     N18948   0.895   5.216   6.918  0.1387  0.6913 -0.4134
  168SAPS   HN118949   0.811   5.159   6.940  1.0351 -1.0139 -1.2791
  168SAPS   HN218950   0.866   5.293   6.854  0.0699 -0.3027 -1.6189
  168SAPS   HN318951   0.964   5.156   6.869  2.8501 -0.4884  4.2227
  168SAPS   C1218952   0.957   5.283   7.043  0.3519 -0.1077  0.0617
  168SAPS  H12A18953   0.888   5.359   7.078  0.7215  0.9702 -1.4671
  168SAPS   C1318954   0.993   5.190   7.159 -0.2916  0.7618  0.2665
  168SAPS  O13A18955   0.969   5.064   7.158  0.0711 -0.0751  0.2815
  168SAPS  O13B18956   1.063   5.236   7.247 -0.1138  0.4697 -0.5475
  168SAPS   C1118957   1.088   5.356   6.984  0.2462  0.2444 -0.2413
  168SAPS  H11A18958   1.156   5.285   6.932  0.9781 -0.3585  1.4583
  168SAPS  H11B18959   1.137   5.411   7.067  1.9842 -0.5094 -0.7039
  168SAPS     P18960   1.146   5.581   6.856  0.5133 -0.3782  0.1411
  168SAPS   O1318961   1.147   5.681   6.970  0.0458 -0.2563 -0.3011
  168SAPS   O1418962   1.275   5.531   6.800 -0.0641 -0.0502  0.0946
  168SAPS   O1218963   1.055   5.454   6.886  0.1971 -0.0380  0.1162
  168SAPS   O1118964   1.070   5.643   6.728  0.0649  0.6591  0.1401
  168SAPS    C118965   1.061   5.572   6.605 -0.0884  0.3796  0.2639
  168SAPS    HA18966   1.116   5.475   6.607  0.9531  0.9570  0.5140
  168SAPS    HB18967   0.955   5.540   6.591 -0.5935  1.2387  1.8883
  168SAPS    C218968   1.110   5.656   6.482 -0.6293 -0.2904 -0.3037
  168SAPS    HS18969   1.205   5.707   6.509 -0.6836  0.2994 -1.1851
  168SAPS   O2118970   1.009   5.753   6.461  0.6424 -0.6939 -0.3169
  168SAPS   C2118971   1.035   5.877   6.440  0.1556 -0.0473  0.5799
  168SAPS   O2218972   1.144   5.928   6.404  0.0469  0.1061 -0.1271
  168SAPS   C2218973   0.906   5.953   6.455  0.0588 -0.2121 -0.1980
  168SAPS   H2R18974   0.824   5.878   6.445 -1.6485  1.5819 -0.1990
  168SAPS   H2S18975   0.900   5.973   6.564  3.0074  1.7536 -0.2841
  168SAPS    C318976   1.138   5.577   6.354 -0.0072 -0.5419  0.2092
  168SAPS    HX18977   1.033   5.550   6.330 -0.5318  1.6629 -0.1932
  168SAPS    HY18978   1.204   5.488   6.369 -0.3202 -0.9807 -0.8902
  168SAPS   O3118979   1.190   5.655   6.244  0.5216  0.2804  0.1074
  168SAPS   C3118980   1.321   5.673   6.235 -0.2533  0.3667  0.0119
  168SAPS   O3218981   1.401   5.630   6.318  0.1364 -0.0895  0.0560
  168SAPS   C3218982   1.363   5.743   6.108 -0.1532 -0.2578  0.2898
  168SAPS   H2X18983   1.382   5.660   6.037 -0.6851 -0.8513  0.8336
  168SAPS   H2Y18984   1.459   5.797   6.116 -0.9356  1.2437 -0.0225
  168SAPS   C2318985   0.902   6.076   6.372  0.2716 -0.1932 -1.0603
  168SAPS   H3R18986   0.951   6.064   6.273 -0.4702 -1.9516 -1.2580
  168SAPS   H3S18987   0.962   6.154   6.423  1.7314 -1.8391 -0.1505
  168SAPS   C2418988   0.761   6.128   6.356  0.1118 -0.6187  0.3108
  168SAPS   H4R18989   0.705   6.148   6.450 -1.5348  1.0619 -0.9506
  168SAPS   H4S18990   0.700   6.055   6.299  0.2319  0.5722 -1.4156
  168SAPS   C2518991   0.761   6.257   6.275  0.3839  0.0772  0.0174
  168SAPS   H5R18992   0.773   6.348   6.334 -1.9080 -1.1715  2.6483
  168SAPS   C2618993   0.733   6.271   6.145 -0.6016 -0.6183 -0.4918
  168SAPS   H6R18994   0.740   6.369   6.094  1.9454 -0.3574  0.2144
  168SAPS   C2718995   0.700   6.162   6.054 -0.1558  0.2383  0.2145
  168SAPS   H7R18996   0.626   6.207   5.984 -1.1021 -0.3471  0.8207
  168SAPS   H7S18997   0.632   6.090   6.103  1.0669  0.6102  2.5888
  168SAPS   C2818998   0.816   6.092   5.983 -0.9304 -0.1047  0.1372
  168SAPS   H8R18999   0.910   6.092   6.040 -0.4690  1.9170 -0.5395
  168SAPS   C2919000   0.821   6.070   5.851  0.0943 -0.6536  0.7017
  168SAPS   H9R19001   0.910   6.022   5.808  0.1259 -0.9650  1.1039
  168SAPS  C21019002   0.700   6.077   5.756 -0.6655 -0.4927 -0.4873
  168SAPS  H10R19003   0.608   6.078   5.819 -0.5754 -2.0714 -0.3027
  168SAPS  H10S19004   0.682   5.989   5.692 -0.8310  0.0308 -1.1744
  168SAPS  C21119005   0.719   6.206   5.679  0.4433  0.0078 -0.3634
  168SAPS  H11R19006   0.783   6.282   5.727  1.6467 -0.9853 -0.3394
  168SAPS  C21219007   0.668   6.232   5.553  0.2422  0.3018  0.1535
  168SAPS  H12R19008   0.695   6.331   5.513  0.6443  0.5032  0.9062
  168SAPS  C21319009   0.579   6.146   5.463  0.3572 -0.6737  0.3001
  168SAPS  H13R19010   0.530   6.067   5.524 -0.1581 -0.9090 -0.4038
  168SAPS  H13S19011   0.646   6.102   5.386  0.4273  0.9902 -0.6473
  168SAPS  C21419012   0.467   6.232   5.396  0.5494  0.2403 -0.3328
  168SAPS  H14R19013   0.406   6.289   5.466 -2.7174  0.2344 -2.9413
  168SAPS  C21519014   0.446   6.247   5.266 -0.0765  0.8933 -0.5564
  168SAPS  H15R19015   0.363   6.310   5.230 -1.4802  0.6592  2.0483
  168SAPS  C21619016   0.520   6.196   5.150 -0.5953 -0.0892  0.0027
  168SAPS  H16R19017   0.612   6.145   5.187 -1.1462 -1.3659 -0.3353
  168SAPS  H16S19018   0.544   6.290   5.095 -0.5789  1.1472  2.0223
  168SAPS  C21719019   0.445   6.093   5.068 -0.5537 -0.2311  0.0552
  168SAPS  H17R19020   0.353   6.143   5.031 -0.0521  1.0288  0.4855
  168SAPS  H17S19021   0.419   6.010   5.138  1.2757 -0.9822 -0.1190
  168SAPS  C21819022   0.527   6.033   4.955  0.4114  0.1729 -0.0115
  168SAPS  H18R19023   0.610   5.981   5.007 -0.3513  2.6856  4.1132
  168SAPS  H18S19024   0.570   6.114   4.893 -3.1970  2.3021 -0.0400
  168SAPS  C21919025   0.452   5.936   4.868 -0.0956 -0.5360 -0.2837
  168SAPS  H19R19026   0.387   5.992   4.797 -0.5466 -2.1850 -1.2415
  168SAPS  H19S19027   0.379   5.876   4.927 -1.7799 -1.0544 -2.7096
  168SAPS  C22019028   0.540   5.832   4.801 -0.3317 -0.2559 -0.0472
  168SAPS  H20R19029   0.479   5.782   4.722 -0.3274 -1.5467  0.7294
  168SAPS  H20S19030   0.575   5.763   4.880 -1.9917  0.2249  1.1532
  168SAPS  H20T19031   0.621   5.892   4.753 -0.7728  0.2370 -0.1795
  168SAPS   C3319032   1.257   5.835   6.046  0.6837  0.1292 -0.3097
  168SAPS   H3X19033   1.231   5.909   6.124  0.5694 -0.3644  0.1308
  168SAPS   H3Y19034   1.164   5.775   6.038 -0.4501  1.8412 -0.4989
  168SAPS   C3419035   1.289   5.883   5.906 -0.4177 -0.4401 -0.3610
  168SAPS   H4X19036   1.350   5.798   5.867 -0.6168 -1.8235  2.1408
  168SAPS   H4Y19037   1.358   5.970   5.898 -1.4276  0.2632 -1.7141
  168SAPS   C3519038   1.172   5.912   5.813  0.1746 -0.1486 -0.0501
  168SAPS   H5X19039   1.124   6.011   5.829 -1.0734 -0.5501 -1.1161
  168SAPS   H5Y19040   1.094   5.833   5.819 -2.9503  2.4862 -2.2501
  168SAPS   C3619041   1.236   5.918   5.675  0.1229 -0.0604  0.7031
  168SAPS   H6X19042   1.291   5.822   5.669 -0.1924 -0.2001 -0.1172
  168SAPS   H6Y19043   1.317   5.994   5.673 -1.6995  2.0280 -2.8085
  168SAPS   C3719044   1.123   5.936   5.572 -0.2406 -1.0242 -0.0330
  168SAPS   H7X19045   1.068   6.032   5.585 -0.7235 -1.5598  2.5314
  168SAPS   H7Y19046   1.032   5.874   5.591 -1.4547  0.7107  0.1129
  168SAPS   C3819047   1.174   5.919   5.428 -0.4458 -0.0904 -0.5319
  168SAPS   H8X19048   1.217   5.816   5.422 -0.5754 -0.1757 -0.0401
  168SAPS   H8Y19049   1.249   5.999   5.413 -0.7890  0.2916 -0.2158
  168SAPS   C3919050   1.049   5.924   5.341 -0.3514  0.3921 -0.2092
  168SAPS   H9X19051   0.976   5.852   5.384  1.5347 -2.4802 -1.5014
  168SAPS   H9Y19052   1.080   5.893   5.239  2.0510 -0.2434  0.6490
  168SAPS  C31019053   0.982   6.067   5.329 -0.5337  0.2173  0.4371
  168SAPS  H10X19054   1.057   6.148   5.316  0.1108 -0.4438 -0.1079
  168SAPS  H10Y19055   0.920   6.083   5.419  0.3113  1.7205  0.7906
  168SAPS  C31119056   0.892   6.081   5.209  0.2066  0.5847 -0.1126
  168SAPS  H11X19057   0.849   6.183   5.200 -1.0107  0.1543  0.6833
  168SAPS  H11Y19058   0.807   6.011   5.224  0.1406  1.2153  3.0086
  168SAPS  C31219059   0.967   6.048   5.081  0.2840  0.0313  0.2256
  168SAPS  H12X19060   0.963   5.941   5.051  0.9135  0.0069  0.2087
  168SAPS  H12Y19061   1.072   6.066   5.113  1.4596 -3.1107 -1.4424
  168SAPS  C31319062   0.946   6.139   4.952 -0.4766 -0.2014 -0.7870
  168SAPS  H13X19063   0.910   6.239   4.983 -1.5600 -0.6088 -0.6951
  168SAPS  H13Y19064   0.864   6.086   4.899  0.8198 -2.7812 -0.3572
  168SAPS  C31419065   1.076   6.153   4.872  0.3089 -0.2091 -0.6132
  168SAPS  H14X19066   1.126   6.057   4.848  0.6127  0.0776 -1.1437
  168SAPS  H14Y19067   1.151   6.210   4.930  0.1602  0.6472 -1.2430
  168SAPS  C31519068   1.053   6.234   4.738  0.3051  0.4488 -0.7290
  168SAPS  H15X19069   1.034   6.337   4.773  1.6367  0.3149  0.4514
  168SAPS  H15Y19070   0.967   6.195   4.678  1.5262 -1.0689 -1.5657
  168SAPS  C31619071   1.179   6.241   4.646  0.4589  0.5052 -0.8628
  168SAPS  H16X19072   1.184   6.136   4.609 -0.9623  0.2779 -0.4543
  168SAPS  H16Y19073   1.276   6.261   4.696 -0.1013 -0.3002  0.5953
  168SAPS  C31719074   1.156   6.346   4.542 -0.0218 -0.0328  0.7577
  168SAPS  H17X19075   1.143   6.444   4.593 -1.1774  0.4567 -0.4026
  168SAPS  H17Y19076   1.060   6.331   4.487 -1.9336  3.2572  2.8487
  168SAPS  C31819077   1.272   6.349   4.434  0.5039  0.0353  0.0831
  168SAPS  H18X19078   1.365   6.357   4.494 -0.6262 -0.7520  2.0261
  168SAPS  H18Y19079   1.265   6.433   4.362 -0.2395 -1.2236 -1.3597
  168SAPS  H18Z19080   1.288   6.259   4.371  0.0810  0.9049 -1.3116
  169SAPS     N19081   3.082   0.927   7.409  0.2178  0.6883 -0.4229
  169SAPS   HN119082   3.051   0.960   7.502  1.1806  3.3874 -0.9763
  169SAPS   HN219083   2.993   0.946   7.358 -0.8939 -2.3086  0.1754
  169SAPS   HN319084   3.107   0.826   7.413 -1.2001  0.3402  0.4841
  169SAPS   C1219085   3.189   1.007   7.349  0.3138 -0.4556  0.2774
  169SAPS  H12A19086   3.198   1.101   7.402  0.4350 -1.2397  1.7088
  169SAPS   C1319087   3.331   0.950   7.367  0.2852 -0.1855  0.4198
  169SAPS  O13A19088   3.358   0.851   7.437 -0.4545 -0.0148  0.3060
  169SAPS  O13B19089   3.419   1.036   7.353 -0.0646  0.3631  0.3063
  169SAPS   C1119090   3.175   1.029   7.189  0.3496  0.0046 -0.2642
  169SAPS  H11A19091   3.261   1.091   7.156 -0.2981  0.3072 -1.4849
  169SAPS  H11B19092   3.084   1.093   7.174  0.0328 -0.1906  0.7440
  169SAPS     P19093   3.210   0.885   6.973 -0.0965 -0.3884 -0.3686
  169SAPS   O1319094   3.356   0.851   6.980  0.1973 -0.5369 -0.4033
  169SAPS   O1419095   3.120   0.790   6.905 -1.0300  0.0310  0.0764
  169SAPS   O1219096   3.161   0.906   7.122 -0.4446  0.0639 -0.6563
  169SAPS   O1119097   3.203   1.025   6.911 -0.2586  0.1801 -0.3304
  169SAPS    C119098   3.076   1.094   6.899  0.3528  0.3596 -0.7419
  169SAPS    HA19099   3.000   1.070   6.977  0.8933  0.2927 -0.2285
  169SAPS    HB19100   3.094   1.203   6.893 -0.8724  0.6249 -0.0431
  169SAPS    C219101   3.010   1.062   6.761  0.5816 -0.8683  0.0017
  169SAPS    HS19102   2.971   0.961   6.785  0.5662 -0.3807  2.3710
  169SAPS   O2119103   3.107   1.077   6.653 -0.8848  0.3552 -0.1593
  169SAPS   C2119104   3.088   1.000   6.548  0.4957  0.2689  0.2526
  169SAPS   O2219105   3.012   0.904   6.545 -0.1731 -0.5254 -0.4083
  169SAPS   C2219106   3.206   1.015   6.450 -0.0614 -0.5901  0.1041
  169SAPS   H2R19107   3.220   1.120   6.418 -1.2857 -0.5942 -0.4674
  169SAPS   H2S19108   3.289   0.997   6.522 -0.5395 -0.6060  0.6548
  169SAPS    C319109   2.887   1.161   6.736  0.1502  0.1992 -0.7595
  169SAPS    HX19110   2.932   1.263   6.739 -0.0757  0.3098 -1.1000
  169SAPS    HY19111   2.812   1.156   6.818  2.0464  0.7736  1.1027
  169SAPS   O3119112   2.831   1.140   6.606  0.5137 -0.5942  0.4564
  169SAPS   C3119113   2.749   1.035   6.599  0.6634 -0.8515  0.0733
  169SAPS   O3219114   2.705   0.969   6.694  0.6213 -0.5027  0.2656
  169SAPS   C3219115   2.690   1.027   6.457 -0.2509  0.0566 -0.0353
  169SAPS   H2X19116   2.761   1.082   6.391 -0.9822  0.8406 -0.1830
  169SAPS   H2Y19117   2.596   1.086   6.462 -0.0076  0.7459 -2.3817
  169SAPS   C2319118   3.225   0.923   6.329  0.0157 -0.6759  0.6011
  169SAPS   H3R19119   3.225   0.815   6.358 -0.5435 -1.0391 -0.6916
  169SAPS   H3S19120   3.320   0.956   6.282 -1.3237 -0.6681 -2.2764
  169SAPS   C2419121   3.127   0.947   6.214  0.3977  0.3001  0.7073
  169SAPS   H4R19122   3.101   1.055   6.207 -2.2792 -0.2983  0.4046
  169SAPS   H4S19123   3.029   0.904   6.242  0.5064 -0.1056  0.4623
  169SAPS   C2519124   3.183   0.887   6.091 -0.2109 -0.2499  0.1829
  169SAPS   H5R19125   3.206   0.779   6.096  0.4659 -0.3324 -2.8344
  169SAPS   C2619126   3.227   0.948   5.982  0.3517  0.1328  0.2120
  169SAPS   H6R19127   3.265   0.875   5.909 -0.1311 -0.4760  0.5519
  169SAPS   C2719128   3.223   1.097   5.948  0.1928 -0.1069  0.6665
  169SAPS   H7R19129   3.319   1.121   5.898 -0.6276  1.0575 -0.4205
  169SAPS   H7S19130   3.223   1.169   6.033 -1.8109  1.6202 -0.7007
  169SAPS   C2819131   3.108   1.133   5.857  0.1910 -0.3068 -0.8999
  169SAPS   H8R19132   3.031   1.195   5.905 -0.6816 -3.0926  1.5604
  169SAPS   C2919133   3.093   1.092   5.736 -0.1651 -0.2023  0.1765
  169SAPS   H9R19134   3.005   1.131   5.684 -1.1142  0.3606  2.1137
  169SAPS  C21019135   3.190   1.018   5.654 -0.2742  0.1207  0.8207
  169SAPS  H10R19136   3.259   0.957   5.717  1.1867 -1.6329 -2.2592
  169SAPS  H10S19137   3.260   1.089   5.606  1.4062 -2.3160 -0.5553
  169SAPS  C21119138   3.118   0.929   5.555 -0.5420  0.6865  0.2409
  169SAPS  H11R19139   3.009   0.914   5.561 -0.2370 -1.5625  1.2630
  169SAPS  C21219140   3.184   0.881   5.446  0.1691  0.1654 -0.0759
  169SAPS  H12R19141   3.135   0.811   5.377  1.9532 -0.9747 -0.2445
  169SAPS  C21319142   3.332   0.901   5.413  0.1221 -0.4684  0.0887
  169SAPS  H13R19143   3.395   0.858   5.494  0.8734  3.6229  1.9158
  169SAPS  H13S19144   3.355   1.009   5.417  1.1582 -0.4926 -2.9673
  169SAPS  C21419145   3.383   0.838   5.281 -0.5713  0.1689 -0.0193
  169SAPS  H14R19146   3.465   0.770   5.308 -0.5858  0.1965  0.0966
  169SAPS  C21519147   3.352   0.867   5.153 -0.0182 -0.3652 -0.2659
  169SAPS  H15R19148   3.406   0.795   5.090 -1.8420 -0.8341 -1.3647
  169SAPS  C21619149   3.248   0.969   5.108 -0.0439  0.7660  0.8249
  169SAPS  H16R19150   3.257   1.068   5.157 -2.0606  0.9600  0.8983
  169SAPS  H16S19151   3.148   0.927   5.133 -0.2303  1.0890  0.6323
  169SAPS  C21719152   3.270   0.985   4.956  0.2744 -0.4470 -0.2814
  169SAPS  H17R19153   3.256   0.887   4.904 -0.7033 -2.5635  3.5761
  169SAPS  H17S19154   3.374   1.013   4.930  0.1199  0.7708  0.3654
  169SAPS  C21819155   3.189   1.090   4.879  0.0322 -0.2101  0.3787
  169SAPS  H18R19156   3.216   1.108   4.773 -0.0072 -1.1136  0.2050
  169SAPS  H18S19157   3.200   1.187   4.930  0.7564  0.9241 -1.8024
  169SAPS  C21919158   3.038   1.065   4.875 -0.1055 -0.1813  0.2931
  169SAPS  H19R19159   2.977   1.156   4.860  0.0297 -0.1917 -0.3429
  169SAPS  H19S19160   3.001   1.026   4.972 -1.4400  1.1825  0.3618
  169SAPS  C22019161   2.998   0.955   4.775 -0.2514 -0.1221 -0.1190
  169SAPS  H20R19162   2.887   0.947   4.777 -0.1732 -1.8306 -0.8459
  169SAPS  H20S19163   3.050   0.857   4.779 -0.8663 -0.6170 -2.6930
  169SAPS  H20T19164   3.036   1.000   4.681 -1.4429 -1.1112 -1.1151
  169SAPS   C3319165   2.680   0.877   6.405 -0.0859  0.4578 -0.4184
  169SAPS   H3X19166   2.628   0.821   6.485 -2.1756  1.6607 -0.8747
  169SAPS   H3Y19167   2.782   0.844   6.376  0.0536  1.3078 -0.9387
  169SAPS   C3419168   2.612   0.848   6.276  1.3880  0.0279 -0.0537
  169SAPS   H4X19169   2.507   0.876   6.296  1.5236 -0.2438  1.1087
  169SAPS   H4Y19170   2.603   0.739   6.260 -1.2559  0.1592  0.0806
  169SAPS   C3519171   2.680   0.920   6.154  0.5898 -0.0673  0.1956
  169SAPS   H5X19172   2.784   0.882   6.149  1.0937  1.4201 -1.6262
  169SAPS   H5Y19173   2.684   1.027   6.185 -2.0746  0.2678 -0.3740
  169SAPS   C3619174   2.600   0.902   6.023 -0.1849  0.1298  0.3211
  169SAPS   H6X19175   2.505   0.956   6.038 -0.2726 -0.6328  2.9999
  169SAPS   H6Y19176   2.579   0.794   6.009  1.3219 -0.0206 -1.2809
  169SAPS   C3719177   2.672   0.962   5.901  0.2309  0.1932  0.2815
  169SAPS   H7X19178   2.767   0.905   5.913 -0.1639 -0.7558 -0.9106
  169SAPS   H7Y19179   2.688   1.066   5.936 -1.1287 -0.1338  1.9700
  169SAPS   C3819180   2.615   0.944   5.759  0.2177  0.7536 -0.2366
  169SAPS   H8X19181   2.523   1.004   5.741  1.6328  2.3405 -2.5681
  169SAPS   H8Y19182   2.581   0.839   5.748 -1.4276  1.2704 -0.4837
  169SAPS   C3919183   2.725   0.980   5.655  0.6601 -0.2802  0.0599
  169SAPS   H9X19184   2.824   0.959   5.702  0.9547  0.7839 -0.0547
  169SAPS   H9Y19185   2.724   1.091   5.650  2.7279 -0.1522  1.0959
  169SAPS  C31019186   2.687   0.930   5.516  0.0886  0.1268 -0.4894
  169SAPS  H10X19187   2.606   0.990   5.470  0.4901 -0.8497 -2.5899
  169SAPS  H10Y19188   2.653   0.825   5.526  0.5674  0.0401  0.2922
  169SAPS  C31119189   2.797   0.943   5.412 -0.3406  0.1546  0.6045
  169SAPS  H11X19190   2.875   0.864   5.426 -0.5157  0.0514  1.0076
  169SAPS  H11Y19191   2.846   1.042   5.430  1.1233 -0.7580  1.9568
  169SAPS  C31219192   2.737   0.938   5.269  0.0662  0.7585  0.2784
  169SAPS  H12X19193   2.711   1.043   5.244 -1.1600  0.4684  0.3057
  169SAPS  H12Y19194   2.650   0.869   5.267  0.0584  0.7672 -1.5516
  169SAPS  C31319195   2.837   0.895   5.156  0.1330 -0.4063  0.2339
  169SAPS  H13X19196   2.926   0.955   5.187 -1.7618  1.3713  2.7457
  169SAPS  H13Y19197   2.802   0.933   5.058  0.9758 -0.2776 -0.0245
  169SAPS  C31419198   2.849   0.747   5.155  0.5417  0.5064 -0.2599
  169SAPS  H14X19199   2.750   0.698   5.165 -0.0906  1.9371  1.0022
  169SAPS  H14Y19200   2.901   0.706   5.244  1.3711  2.2633  0.1216
  169SAPS  C31519201   2.928   0.710   5.034 -0.0867  0.6787 -0.1506
  169SAPS  H15X19202   3.025   0.762   5.019 -0.0981  0.6795 -0.2225
  169SAPS  H15Y19203   2.867   0.751   4.951 -1.0491  0.9509  0.6757
  169SAPS  C31619204   2.957   0.559   5.014 -0.6718 -0.1939 -0.0831
  169SAPS  H16X19205   2.862   0.505   4.993 -0.1271 -0.1080 -3.4045
  169SAPS  H16Y19206   3.018   0.526   5.101  0.5404  2.7061  0.2884
  169SAPS  C31719207   3.042   0.526   4.888 -0.4867  0.0045 -0.1958
  169SAPS  H17X19208   3.010   0.585   4.800  0.3260 -1.6502 -1.6614
  169SAPS  H17Y19209   3.039   0.421   4.850  0.8138 -0.6822  1.4500
  169SAPS  C31819210   3.191   0.556   4.914  0.0430  0.6371  0.2447
  169SAPS  H18X19211   3.195   0.667   4.915 -1.7876  0.8087  3.8923
  169SAPS  H18Y19212   3.253   0.534   4.825 -0.9081 -0.4275 -0.1626
  169SAPS  H18Z19213   3.231   0.511   5.008 -0.9116 -2.1858 -0.6033
  170SAPS     N19214   3.536   2.630   6.631  0.2412 -0.1329 -0.3761
  170SAPS   HN119215   3.608   2.612   6.558 -1.6527 -1.9381 -1.9158
  170SAPS   HN219216   3.548   2.732   6.650  0.0502 -0.5843  2.4890
  170SAPS   HN319217   3.558   2.573   6.715 -2.3499  0.3309  0.7318
  170SAPS   C1219218   3.402   2.603   6.578  0.6031  0.2686  0.4350
  170SAPS  H12A19219   3.413   2.524   6.506 -1.4687 -0.2077  0.5777
  170SAPS   C1319220   3.301   2.565   6.687 -0.1604  0.2131  0.1386
  170SAPS  O13A19221   3.339   2.544   6.804  0.5023 -0.1174  0.1630
  170SAPS  O13B19222   3.182   2.542   6.655 -0.1638 -0.2213 -0.1922
  170SAPS   C1119223   3.362   2.739   6.514  0.2108  0.3178 -0.6744
  170SAPS  H11A19224   3.356   2.808   6.600 -1.2909  0.7926 -1.1249
  170SAPS  H11B19225   3.262   2.723   6.469 -0.0447  0.4006 -0.1402
  170SAPS     P19226   3.420   2.901   6.326 -0.3022  0.3038  0.1713
  170SAPS   O1319227   3.358   3.006   6.406  0.4136 -0.4586 -0.0605
  170SAPS   O1419228   3.543   2.943   6.256 -0.3045 -0.3739  0.8138
  170SAPS   O1219229   3.463   2.782   6.423 -0.6187  0.3791  0.0265
  170SAPS   O1119230   3.311   2.848   6.227  0.1719 -0.0395  0.3743
  170SAPS    C119231   3.309   2.713   6.180 -0.1666 -1.1743 -0.3014
  170SAPS    HA19232   3.363   2.648   6.252 -0.7308 -2.1074 -0.7016
  170SAPS    HB19233   3.206   2.680   6.157 -1.0687  1.6736 -0.6947
  170SAPS    C219234   3.364   2.712   6.030  0.0130  0.5775  0.0444
  170SAPS    HS19235   3.357   2.610   5.987  1.0597  0.6866 -0.4248
  170SAPS   O2119236   3.504   2.749   6.022 -0.1632  0.1030  0.0342
  170SAPS   C2119237   3.597   2.666   6.068 -0.0797 -0.0287 -0.8145
  170SAPS   O2219238   3.589   2.577   6.150  0.7905 -0.2186  0.4708
  170SAPS   C2219239   3.730   2.708   5.994 -0.2521 -0.0857 -0.2321
  170SAPS   H2R19240   3.710   2.782   5.914  3.7592  0.2966 -1.0821
  170SAPS   H2S19241   3.791   2.758   6.073 -0.6907  2.2228 -1.2644
  170SAPS    C319242   3.290   2.809   5.937 -1.2648 -0.6649  0.6879
  170SAPS    HX19243   3.311   2.916   5.959  0.0209 -1.0910  1.5916
  170SAPS    HY19244   3.181   2.786   5.942 -1.1573 -1.5520 -0.5651
  170SAPS   O3119245   3.321   2.780   5.797  0.1297  0.4098 -0.4717
  170SAPS   C3119246   3.429   2.835   5.736 -0.2710  0.1937  0.0322
  170SAPS   O3219247   3.497   2.926   5.781  0.1942 -0.1002 -0.0345
  170SAPS   C3219248   3.452   2.761   5.599  0.2924 -0.6030 -0.6227
  170SAPS   H2X19249   3.355   2.717   5.569 -0.3584  1.1799 -1.2634
  170SAPS   H2Y19250   3.531   2.684   5.611  0.0640 -0.4649  3.1490
  170SAPS   C2319251   3.811   2.591   5.930  0.2770 -0.3646 -0.6795
  170SAPS   H3R19252   3.848   2.512   5.999  0.9341  0.3114 -0.2511
  170SAPS   H3S19253   3.895   2.643   5.880 -1.3886  2.4270 -0.7524
  170SAPS   C2419254   3.753   2.529   5.804  0.1686 -0.1648  0.2160
  170SAPS   H4R19255   3.734   2.610   5.730 -0.7934 -0.3229  0.2777
  170SAPS   H4S19256   3.658   2.485   5.840  1.0053 -0.7765  1.7987
  170SAPS   C2519257   3.845   2.427   5.741 -0.0682 -0.2871 -0.2583
  170SAPS   H5R19258   3.857   2.331   5.793  1.6616 -0.1987 -0.4580
  170SAPS   C2619259   3.935   2.453   5.650 -0.1201  0.6181  0.2908
  170SAPS   H6R19260   3.997   2.371   5.611 -2.4847 -2.4368  2.5215
  170SAPS   C2719261   3.949   2.588   5.580 -0.4512 -0.1055  0.2745
  170SAPS   H7R19262   3.885   2.662   5.633  0.5782 -0.9244  2.8182
  170SAPS   H7S19263   3.906   2.580   5.477  0.2526 -1.8816  0.0845
  170SAPS   C2819264   4.100   2.622   5.587  0.1821  0.3050 -0.2848
  170SAPS   H8R19265   4.164   2.551   5.641  1.5927  0.0979 -2.1594
  170SAPS   C2919266   4.168   2.706   5.509 -0.0735 -0.0117 -0.2087
  170SAPS   H9R19267   4.278   2.705   5.514 -0.1158 -0.8341  1.0419
  170SAPS  C21019268   4.111   2.800   5.405 -0.1848 -0.9118  1.1459
  170SAPS  H10R19269   4.128   2.903   5.443 -1.9049 -1.1418  2.7405
  170SAPS  H10S19270   4.001   2.781   5.403 -0.2660 -0.4717  1.3318
  170SAPS  C21119271   4.175   2.805   5.264 -0.7413 -0.2120  0.7621
  170SAPS  H11R19272   4.253   2.880   5.241 -1.6088  0.6412  0.5154
  170SAPS  C21219273   4.143   2.736   5.155  1.2909  0.3686 -0.6570
  170SAPS  H12R19274   4.204   2.745   5.064  2.2029  0.5184 -0.0401
  170SAPS  C21319275   4.033   2.635   5.152 -0.1041 -0.2164  0.3640
  170SAPS  H13R19276   3.934   2.686   5.158  0.0065 -0.1425  1.6322
  170SAPS  H13S19277   4.029   2.585   5.251  0.2593  1.8010  1.4388
  170SAPS  C21419278   4.038   2.534   5.043 -0.2603 -0.1500  0.5685
  170SAPS  H14R19279   4.114   2.456   5.056  0.1049  0.0734 -0.1443
  170SAPS  C21519280   3.954   2.515   4.940 -0.9669  0.3604  0.0789
  170SAPS  H15R19281   3.972   2.430   4.872 -1.8354  0.5316 -0.3886
  170SAPS  C21619282   3.827   2.596   4.905 -0.5221  0.4216 -0.3625
  170SAPS  H16R19283   3.796   2.671   4.982  0.6561  2.2531 -1.5858
  170SAPS  H16S19284   3.742   2.527   4.888  0.5262 -0.4652 -2.3619
  170SAPS  C21719285   3.850   2.679   4.779  0.0596 -0.5706  0.0198
  170SAPS  H17R19286   3.935   2.749   4.790  0.3583 -0.9112 -0.0989
  170SAPS  H17S19287   3.756   2.735   4.763 -1.5265 -3.1445 -0.2793
  170SAPS  C21819288   3.870   2.591   4.655  0.1320 -0.8661  0.1496
  170SAPS  H18R19289   3.968   2.541   4.638 -0.5863 -1.4585 -2.8346
  170SAPS  H18S19290   3.850   2.663   4.573 -1.2624  0.5466  1.6586
  170SAPS  C21919291   3.764   2.479   4.630  0.0578  0.2636  0.5899
  170SAPS  H19R19292   3.792   2.398   4.701 -0.0208  0.3420  0.7086
  170SAPS  H19S19293   3.775   2.431   4.530 -3.2643 -4.4003  2.1024
  170SAPS  C22019294   3.617   2.519   4.644 -0.3658 -0.4457  0.6169
  170SAPS  H20R19295   3.603   2.589   4.559 -0.0198 -0.0907  0.8493
  170SAPS  H20S19296   3.585   2.560   4.742  0.0736 -1.0096  0.9977
  170SAPS  H20T19297   3.551   2.432   4.620  0.0697  0.0102 -2.7493
  170SAPS   C3319298   3.495   2.874   5.505  0.1857  0.2033 -0.0093
  170SAPS   H3X19299   3.594   2.910   5.540  0.3892 -0.7556  0.4261
  170SAPS   H3Y19300   3.422   2.957   5.493  0.6836  0.7312  0.4960
  170SAPS   C3419301   3.521   2.817   5.364 -0.2172  0.6720 -0.4005
  170SAPS   H4X19302   3.429   2.762   5.334 -0.1802  0.7583 -0.6762
  170SAPS   H4Y19303   3.608   2.749   5.365  0.2538  1.2727  0.2723
  170SAPS   C3519304   3.557   2.932   5.265  0.0246 -0.4165 -0.5792
  170SAPS   H5X19305   3.572   3.025   5.323  1.3277 -0.9823  0.0247
  170SAPS   H5Y19306   3.476   2.954   5.192  1.4047  2.5113 -1.3562
  170SAPS   C3619307   3.686   2.899   5.190  0.9660 -0.1896 -0.1992
  170SAPS   H6X19308   3.665   2.808   5.130 -0.6791 -1.6784  2.4025
  170SAPS   H6Y19309   3.762   2.874   5.267 -0.7602  4.6925  3.5748
  170SAPS   C3719310   3.730   3.007   5.089  0.2114 -0.7389 -0.5633
  170SAPS   H7X19311   3.834   2.982   5.058  2.3163  4.0618  1.5427
  170SAPS   H7Y19312   3.759   3.093   5.152 -1.1221  0.7143 -1.8323
  170SAPS   C3819313   3.639   3.019   4.967 -0.1408  0.2940  0.4986
  170SAPS   H8X19314   3.538   3.053   4.997 -0.2328 -0.4958  1.1241
  170SAPS   H8Y19315   3.625   2.919   4.919 -0.5390 -0.4947  2.1846
  170SAPS   C3919316   3.696   3.128   4.877 -0.3128  0.1119 -0.3372
  170SAPS   H9X19317   3.805   3.111   4.863 -0.2478  0.7688 -0.6736
  170SAPS   H9Y19318   3.677   3.215   4.943  3.0912 -0.7562  2.0551
  170SAPS  C31019319   3.631   3.146   4.736 -0.1911 -0.3266  0.2265
  170SAPS  H10X19320   3.659   3.238   4.681  0.0968 -0.1913  0.5950
  170SAPS  H10Y19321   3.520   3.147   4.742 -0.2877 -0.8032 -1.1721
  170SAPS  C31119322   3.673   3.026   4.653 -0.0865 -0.7892 -0.5937
  170SAPS  H11X19323   3.619   2.936   4.690 -2.3074  0.7878  0.2603
  170SAPS  H11Y19324   3.784   3.019   4.649  0.3709 -0.4100  4.5984
  170SAPS  C31219325   3.616   3.045   4.505  0.3213  0.1952  0.1006
  170SAPS  H12X19326   3.689   3.105   4.447 -2.1896  2.6276 -0.7784
  170SAPS  H12Y19327   3.519   3.100   4.505 -0.5057 -1.2120  0.3207
  170SAPS  C31319328   3.612   2.910   4.438 -0.6033  0.8788  0.3023
  170SAPS  H13X19329   3.554   2.840   4.501  2.1685 -2.8184 -0.8895
  170SAPS  H13Y19330   3.714   2.867   4.439 -1.0186 -0.1353  0.2888
  170SAPS  C31419331   3.566   2.910   4.291  0.5545  0.5323  0.6446
  170SAPS  H14X19332   3.611   2.996   4.236  0.0217 -0.5591 -1.6325
  170SAPS  H14Y19333   3.455   2.918   4.289  0.2742 -2.3517 -1.3658
  170SAPS  C31519334   3.607   2.783   4.213  0.0089 -0.5587 -1.2140
  170SAPS  H15X19335   3.715   2.766   4.228 -0.1383 -0.1012  0.6563
  170SAPS  H15Y19336   3.589   2.789   4.103 -1.8103 -0.8910 -0.9721
  170SAPS  C31619337   3.540   2.652   4.256 -0.3987  1.0495  0.1074
  170SAPS  H16X19338   3.451   2.639   4.191 -0.4113  2.2043 -0.1422
  170SAPS  H16Y19339   3.494   2.650   4.357 -0.3222  0.9394  0.1402
  170SAPS  C31719340   3.631   2.526   4.257 -0.7307  0.6815 -0.6111
  170SAPS  H17X19341   3.710   2.528   4.335  0.3872  1.1874 -1.7303
  170SAPS  H17Y19342   3.677   2.507   4.158  0.9131 -3.3081  0.7152
  170SAPS  C31819343   3.556   2.398   4.281 -0.4363 -0.3319  0.3603
  170SAPS  H18X19344   3.471   2.375   4.212 -0.8615  1.6535  0.1828
  170SAPS  H18Y19345   3.516   2.393   4.384 -0.6270  0.0657  0.3075
  170SAPS  H18Z19346   3.625   2.313   4.262  1.4442  1.3332 -0.5614
  171SAPS     N19347   4.223   5.403   6.572  0.0902  0.3866  0.5669
  171SAPS   HN119348   4.232   5.454   6.481  0.3648 -1.7521 -0.6865
  171SAPS   HN219349   4.229   5.302   6.547 -0.0198  0.8384 -1.4809
  171SAPS   HN319350   4.138   5.427   6.626 -2.5119 -4.2953 -0.8145
  171SAPS   C1219351   4.355   5.435   6.641  0.4697 -0.2299 -0.2952
  171SAPS  H12A19352   4.420   5.400   6.562 -0.0287 -1.8666 -0.0262
  171SAPS   C1319353   4.375   5.587   6.661 -0.1331 -0.0265 -0.1666
  171SAPS  O13A19354   4.289   5.670   6.618  0.0325  0.4206  0.0012
  171SAPS  O13B19355   4.444   5.624   6.762 -0.1705 -0.0539 -0.0249
  171SAPS   C1119356   4.383   5.352   6.772  0.3186  0.5738 -0.6232
  171SAPS  H11A19357   4.314   5.366   6.858  1.5555  1.3803  0.2733
  171SAPS  H11B19358   4.477   5.398   6.809 -1.1741  1.3316  2.5019
  171SAPS     P19359   4.306   5.106   6.710 -0.1465 -0.3022  0.1324
  171SAPS   O1319360   4.353   4.981   6.773 -0.2561 -0.1879 -0.5493
  171SAPS   O1419361   4.173   5.150   6.754 -0.7470 -0.4220  0.4333
  171SAPS   O1219362   4.416   5.215   6.736 -0.1697 -0.4757  0.2525
  171SAPS   O1119363   4.306   5.105   6.550 -0.2551  0.0660  0.4579
  171SAPS    C119364   4.422   5.065   6.478  0.9844  0.7071 -0.7211
  171SAPS    HA19365   4.432   5.123   6.384  2.0634  0.8965 -0.5115
  171SAPS    HB19366   4.516   5.088   6.533  1.3985  0.7009 -1.4105
  171SAPS    C219367   4.422   4.910   6.449  0.2091  0.1854  0.1882
  171SAPS    HS19368   4.404   4.847   6.539 -1.1171 -0.3908 -0.4576
  171SAPS   O2119369   4.546   4.884   6.398  0.8727  0.6866 -0.8188
  171SAPS   C2119370   4.586   4.765   6.429  0.1611  0.3593  0.3729
  171SAPS   O2219371   4.535   4.686   6.504 -0.2218 -0.2532  0.3214
  171SAPS   C2219372   4.728   4.759   6.369  0.6468 -0.9467  0.3467
  171SAPS   H2R19373   4.733   4.828   6.282  0.1914  0.5517  1.4743
  171SAPS   H2S19374   4.776   4.799   6.460 -1.3408  1.7705  0.3240
  171SAPS    C319375   4.297   4.878   6.360 -0.3318 -0.1614  0.0764
  171SAPS    HX19376   4.305   4.938   6.267 -1.4939 -1.0470 -0.6237
  171SAPS    HY19377   4.208   4.913   6.416  0.6997  0.4453  1.3824
  171SAPS   O3119378   4.287   4.744   6.312 -0.2144 -0.2452 -0.2352
  171SAPS   C3119379   4.205   4.670   6.376  0.6429  0.3601  0.0754
  171SAPS   O3219380   4.154   4.699   6.483 -0.0021  0.5812 -0.3162
  171SAPS   C3219381   4.176   4.542   6.301 -0.5075  0.2562 -0.3038
  171SAPS   H2X19382   4.088   4.484   6.336  0.9632 -2.0213 -0.1317
  171SAPS   H2Y19383   4.261   4.473   6.323 -0.7296 -0.2646 -1.0111
  171SAPS   C2319384   4.780   4.614   6.334 -0.5021  0.4665  0.3022
  171SAPS   H3R19385   4.773   4.536   6.413 -2.1040 -2.1857 -2.2624
  171SAPS   H3S19386   4.887   4.628   6.307  0.2230 -0.4254  2.5356
  171SAPS   C2419387   4.696   4.563   6.214  0.3461  0.1319  1.2852
  171SAPS   H4R19388   4.589   4.576   6.240 -0.1529  1.2227 -1.0970
  171SAPS   H4S19389   4.709   4.454   6.200 -0.0945  0.2663 -0.4002
  171SAPS   C2519390   4.728   4.620   6.075 -0.7245 -1.0031 -0.1382
  171SAPS   H5R19391   4.828   4.589   6.042  0.2577  1.4125  0.3264
  171SAPS   C2619392   4.651   4.690   5.987  0.0809 -0.1533 -0.3280
  171SAPS   H6R19393   4.682   4.718   5.886  1.2147  0.9628  0.2930
  171SAPS   C2719394   4.508   4.733   6.020  0.2385  0.1525 -0.1045
  171SAPS   H7R19395   4.482   4.685   6.116  0.0813 -2.1383 -1.2296
  171SAPS   H7S19396   4.447   4.689   5.938  0.6404  0.0575 -0.3589
  171SAPS   C2819397   4.491   4.883   6.031 -0.3718 -0.3950  0.6338
  171SAPS   H8R19398   4.561   4.935   6.098 -1.2508  2.3657 -0.4198
  171SAPS   C2919399   4.394   4.955   5.968  0.1440  0.1013 -0.0871
  171SAPS   H9R19400   4.392   5.063   5.987  0.1371 -0.3074  2.6706
  171SAPS  C21019401   4.294   4.906   5.865  0.3055 -0.7220  0.0335
  171SAPS  H10R19402   4.229   4.821   5.896 -2.4512  1.7515  1.5936
  171SAPS  H10S19403   4.354   4.872   5.778  0.1355  0.1885 -0.4621
  171SAPS  C21119404   4.204   5.018   5.812  0.1479  0.5254 -1.0520
  171SAPS  H11R19405   4.125   5.044   5.883  0.8441  0.8955 -0.4031
  171SAPS  C21219406   4.238   5.104   5.711  0.3979 -0.3906 -0.1844
  171SAPS  H12R19407   4.164   5.175   5.672  2.3582  2.1496  0.4309
  171SAPS  C21319408   4.365   5.109   5.628 -0.3987 -0.5399 -0.3113
  171SAPS  H13R19409   4.454   5.099   5.694  0.0787  1.6571 -0.5414
  171SAPS  H13S19410   4.372   5.212   5.586  1.5521  0.0562  1.2925
  171SAPS  C21419411   4.369   4.999   5.524  0.0677 -0.6304 -0.3215
  171SAPS  H14R19412   4.278   4.944   5.496 -1.2085  1.5258 -0.5842
  171SAPS  C21519413   4.481   4.951   5.466  0.4384 -0.5765 -0.2367
  171SAPS  H15R19414   4.468   4.867   5.397  1.6106 -2.5679  1.8429
  171SAPS  C21619415   4.624   4.992   5.486  0.0590 -0.4010 -0.3806
  171SAPS  H16R19416   4.675   4.894   5.498 -2.3921 -1.6989  0.2312
  171SAPS  H16S19417   4.629   5.043   5.585  2.0226  0.9615 -1.1121
  171SAPS  C21719418   4.694   5.069   5.385  0.6214  0.0178  0.4966
  171SAPS  H17R19419   4.790   5.102   5.431  0.2319  1.2039  0.4800
  171SAPS  H17S19420   4.642   5.164   5.362 -0.2539 -0.3562  0.9078
  171SAPS  C21819421   4.721   4.992   5.255 -0.2969 -0.6311  0.2135
  171SAPS  H18R19422   4.763   4.889   5.261  1.7040  0.1181 -0.1645
  171SAPS  H18S19423   4.784   5.065   5.199 -0.8614  0.0551  0.4601
  171SAPS  C21919424   4.594   4.983   5.161  0.0643  0.1322 -0.0783
  171SAPS  H19R19425   4.541   5.078   5.179 -0.4321 -0.2668  0.5912
  171SAPS  H19S19426   4.542   4.892   5.198 -0.2301 -0.5231 -1.9788
  171SAPS  C22019427   4.635   4.939   5.019 -0.5351 -0.0378 -0.6637
  171SAPS  H20R19428   4.552   4.954   4.947 -1.5591 -0.3403  0.4267
  171SAPS  H20S19429   4.679   4.837   5.027  1.6807  0.8680 -0.4966
  171SAPS  H20T19430   4.708   5.011   4.977 -0.3287 -0.9205 -1.8624
  171SAPS   C3319431   4.160   4.552   6.145 -0.0421 -0.5763  0.6022
  171SAPS   H3X19432   4.159   4.445   6.113 -1.8152 -0.3553 -0.1937
  171SAPS   H3Y19433   4.240   4.617   6.103 -1.0483  0.7444  0.6634
  171SAPS   C3419434   4.028   4.610   6.096  0.6401  0.0385  0.3466
  171SAPS   H4X19435   4.041   4.721   6.103 -2.6657  0.5306  0.3132
  171SAPS   H4Y19436   3.943   4.590   6.165  0.0999  0.7816 -0.0769
  171SAPS   C3519437   4.010   4.565   5.947 -0.5886 -0.2565  0.4480
  171SAPS   H5X19438   4.002   4.454   5.939 -0.1140 -0.1889 -1.7173
  171SAPS   H5Y19439   4.109   4.597   5.908  0.7111 -0.8407  3.0344
  171SAPS   C3619440   3.910   4.629   5.849  0.1348  0.2550  0.0295
  171SAPS   H6X19441   3.803   4.626   5.878  0.1616  0.5220  0.1570
  171SAPS   H6Y19442   3.922   4.566   5.758  0.4922 -1.1511  1.0403
  171SAPS   C3719443   3.936   4.779   5.814 -0.3830  0.1254  0.4612
  171SAPS   H7X19444   4.039   4.789   5.775 -1.2403 -0.1218 -2.0798
  171SAPS   H7Y19445   3.928   4.830   5.912  0.3682  1.2929 -0.0786
  171SAPS   C3819446   3.844   4.841   5.717  0.1973 -0.1796 -0.0952
  171SAPS   H8X19447   3.854   4.951   5.724  1.2299 -0.3581  1.8399
  171SAPS   H8Y19448   3.741   4.818   5.753  0.3618 -0.5292  0.1558
  171SAPS   C3919449   3.863   4.802   5.574 -0.1061 -0.0763  0.0143
  171SAPS   H9X19450   3.785   4.851   5.513  0.2734  0.0888 -0.3427
  171SAPS   H9Y19451   3.852   4.691   5.566  1.7125 -0.4194  1.5332
  171SAPS  C31019452   4.002   4.817   5.502 -0.9285 -0.4806 -0.7012
  171SAPS  H10X19453   4.069   4.733   5.529 -0.3727  0.1253 -0.1690
  171SAPS  H10Y19454   4.044   4.911   5.543  0.2644 -1.3809  0.2116
  171SAPS  C31119455   3.975   4.848   5.349 -0.1394 -0.2703 -0.3076
  171SAPS  H11X19456   3.904   4.933   5.354  0.4671  0.1986  3.0755
  171SAPS  H11Y19457   3.918   4.760   5.310 -2.9151  1.0044  0.6408
  171SAPS  C31219458   4.105   4.865   5.271  0.0513 -0.5014 -0.7800
  171SAPS  H12X19459   4.162   4.772   5.291 -0.5384 -0.1394  3.5406
  171SAPS  H12Y19460   4.168   4.942   5.320  0.3181 -1.1728 -0.0536
  171SAPS  C31319461   4.071   4.896   5.125  0.6991  0.0788 -0.1573
  171SAPS  H13X19462   3.981   4.959   5.110  0.9558  0.1754 -1.3738
  171SAPS  H13Y19463   4.042   4.797   5.084 -1.1979  0.6313 -0.2337
  171SAPS  C31419464   4.177   4.962   5.041  0.6984  0.3066 -0.1376
  171SAPS  H14X19465   4.277   4.914   5.047  0.9035  0.6052 -1.0486
  171SAPS  H14Y19466   4.200   5.065   5.077  0.9762  0.3992 -0.5824
  171SAPS  C31519467   4.145   4.961   4.895 -1.0961  0.0578  0.6372
  171SAPS  H15X19468   4.040   4.997   4.887 -1.3844 -0.8342  0.1875
  171SAPS  H15Y19469   4.152   4.855   4.863 -0.4736 -0.3297  1.9954
  171SAPS  C31619470   4.242   5.047   4.819 -0.3270  0.3284 -0.0046
  171SAPS  H16X19471   4.350   5.041   4.846 -0.2346 -0.0755 -0.4655
  171SAPS  H16Y19472   4.224   5.154   4.846  2.3917  0.7019  0.5878
  171SAPS  C31719473   4.222   5.034   4.667  0.6573 -0.4453 -0.5968
  171SAPS  H17X19474   4.139   5.101   4.637 -0.6256 -1.8808 -0.3972
  171SAPS  H17Y19475   4.187   4.932   4.639 -0.3534  0.2279 -1.8897
  171SAPS  C31819476   4.351   5.085   4.611  0.1021  0.3663  1.0988
  171SAPS  H18X19477   4.334   5.132   4.512  0.3744 -0.5573  0.5977
  171SAPS  H18Y19478   4.434   5.012   4.617  1.4604  1.8399  0.8360
  171SAPS  H18Z19479   4.386   5.168   4.675 -1.6225  2.0537 -0.0320
  172SAPS     N19480   3.528   5.602   6.824 -0.8906  0.7141 -0.6972
  172SAPS   HN119481   3.599   5.561   6.760  1.5418  0.8725  1.7244
  172SAPS   HN219482   3.474   5.520   6.859 -1.7759  2.7046  3.2364
  172SAPS   HN319483   3.463   5.662   6.769 -1.6616  0.0037 -0.5740
  172SAPS   C1219484   3.608   5.674   6.927 -0.6363  0.0454 -0.2163
  172SAPS  H12A19485   3.622   5.775   6.891  3.4211 -1.1719 -2.7797
  172SAPS   C1319486   3.558   5.671   7.068 -0.2772 -0.0637  0.6537
  172SAPS  O13A19487   3.448   5.613   7.091  0.0680 -0.4395 -0.6353
  172SAPS  O13B19488   3.628   5.728   7.156 -0.1537 -0.7445  0.6549
  172SAPS   C1119489   3.755   5.612   6.926  0.6337  0.1003 -0.2843
  172SAPS  H11A19490   3.742   5.505   6.949 -1.1077  0.1932 -0.7053
  172SAPS  H11B19491   3.824   5.658   7.001  4.5916 -0.2853 -3.3159
  172SAPS     P19492   3.951   5.642   6.757 -0.5259 -0.0538  0.1147
  172SAPS   O1319493   4.020   5.724   6.861 -0.1761 -0.6828 -0.3505
  172SAPS   O1419494   4.009   5.510   6.740 -0.5473  0.0550 -0.3032
  172SAPS   O1219495   3.803   5.626   6.790 -0.2803 -0.5284 -0.0054
  172SAPS   O1119496   3.950   5.718   6.622  0.1258 -0.2108 -0.5509
  172SAPS    C119497   3.846   5.714   6.521  0.1945  0.4820  0.1556
  172SAPS    HA19498   3.745   5.689   6.560  0.9176  0.9150  2.4668
  172SAPS    HB19499   3.846   5.814   6.471  0.4551  0.0880 -0.6608
  172SAPS    C219500   3.870   5.606   6.404 -0.0703 -0.7123  0.2058
  172SAPS    HS19501   3.981   5.592   6.405 -0.1675 -2.2654 -2.4885
  172SAPS   O2119502   3.817   5.648   6.273 -0.3570 -0.0248  0.3088
  172SAPS   C2119503   3.904   5.659   6.176 -0.2384 -0.0703  0.0639
  172SAPS   O2219504   4.025   5.630   6.185  1.2582  0.1973 -0.0716
  172SAPS   C2219505   3.841   5.731   6.058  0.5965  0.0275 -0.7380
  172SAPS   H2R19506   3.733   5.724   6.079  1.2278  0.3722  3.4332
  172SAPS   H2S19507   3.879   5.836   6.064 -0.5501  0.3589  1.9219
  172SAPS    C319508   3.800   5.475   6.438 -0.1602  0.4261 -0.3552
  172SAPS    HX19509   3.692   5.502   6.442  0.0044  1.3382 -1.5641
  172SAPS    HY19510   3.828   5.446   6.541  0.5546 -0.9939 -0.9293
  172SAPS   O3119511   3.818   5.370   6.337 -0.5272 -0.3159 -0.2150
  172SAPS   C3119512   3.922   5.284   6.344 -0.2625 -0.4620 -0.2914
  172SAPS   O3219513   4.008   5.290   6.429 -0.0881 -0.6499  0.6044
  172SAPS   C3219514   3.921   5.186   6.222  0.7086  0.9488  0.3370
  172SAPS   H2X19515   3.874   5.234   6.134 -0.8415  0.5115  0.8964
  172SAPS   H2Y19516   3.849   5.105   6.247 -0.0158  0.9507 -1.5378
  172SAPS   C2319517   3.878   5.668   5.919 -0.2238 -0.6583 -0.1747
  172SAPS   H3R19518   3.839   5.565   5.903  1.9050 -1.4145 -0.8394
  172SAPS   H3S19519   3.982   5.629   5.927  0.3795  0.7354 -0.9799
  172SAPS   C2419520   3.856   5.764   5.806 -0.2219 -0.3052  0.0583
  172SAPS   H4R19521   3.922   5.852   5.824 -0.1214 -0.3220 -0.2186
  172SAPS   H4S19522   3.754   5.807   5.811 -0.3438 -0.5923  0.0834
  172SAPS   C2519523   3.894   5.689   5.675  0.0588 -0.0873  0.3203
  172SAPS   H5R19524   3.940   5.591   5.697 -0.0046 -0.3364 -0.5903
  172SAPS   C2619525   3.869   5.731   5.550  0.3901 -0.1710 -0.2996
  172SAPS   H6R19526   3.892   5.666   5.464  1.5863 -1.2064  0.7745
  172SAPS   C2719527   3.798   5.857   5.500 -0.2554  0.0506 -0.1697
  172SAPS   H7R19528   3.861   5.910   5.425  0.5579 -1.5328 -0.6554
  172SAPS   H7S19529   3.794   5.931   5.583 -0.4357 -1.1745  0.9628
  172SAPS   C2819530   3.670   5.811   5.440  0.4022 -0.4277 -0.4323
  172SAPS   H8R19531   3.623   5.721   5.482  1.9924 -1.4643 -0.7599
  172SAPS   C2919532   3.630   5.850   5.315  0.0298 -0.5543 -0.0700
  172SAPS   H9R19533   3.534   5.809   5.279 -1.1401 -0.0801  2.3194
  172SAPS  C21019534   3.698   5.955   5.225  0.0863 -0.1644 -0.2473
  172SAPS  H10R19535   3.749   6.032   5.286  2.8260 -1.7400 -0.3787
  172SAPS  H10S19536   3.615   6.005   5.172 -0.6974 -1.8242 -0.6722
  172SAPS  C21119537   3.801   5.899   5.127  0.1963  0.2023  0.6523
  172SAPS  H11R19538   3.899   5.950   5.130  0.5506 -0.2316 -1.5511
  172SAPS  C21219539   3.785   5.803   5.031 -0.0189  0.5618 -0.5980
  172SAPS  H12R19540   3.864   5.764   4.965  1.7132 -1.2601  2.3087
  172SAPS  C21319541   3.661   5.714   5.014  0.4794  0.2273  0.4673
  172SAPS  H13R19542   3.620   5.675   5.110 -4.8501  0.5776 -1.3113
  172SAPS  H13S19543   3.694   5.621   4.963  1.1738 -0.4713  2.1316
  172SAPS  C21419544   3.544   5.782   4.944 -0.9466  0.0312 -0.4401
  172SAPS  H14R19545   3.534   5.890   4.962 -0.3114  0.0363 -0.1053
  172SAPS  C21519546   3.464   5.716   4.860  0.7418 -0.2264 -0.5341
  172SAPS  H15R19547   3.382   5.772   4.813  1.0007 -0.3340 -1.1168
  172SAPS  C21619548   3.461   5.572   4.814 -0.2230  0.2447  0.0741
  172SAPS  H16R19549   3.360   5.529   4.830  0.7232 -2.7244 -1.2216
  172SAPS  H16S19550   3.528   5.502   4.868 -2.7315 -1.5721  1.0435
  172SAPS  C21719551   3.475   5.555   4.661  0.0490 -0.3848  0.1103
  172SAPS  H17R19552   3.570   5.596   4.622 -0.7119  1.3763  0.0016
  172SAPS  H17S19553   3.385   5.601   4.615  1.3243  3.3010  0.9993
  172SAPS  C21819554   3.455   5.406   4.624  0.3183 -0.0610  0.2930
  172SAPS  H18R19555   3.366   5.361   4.673  0.7197 -2.4865 -1.0545
  172SAPS  H18S19556   3.538   5.347   4.669  1.3939  0.2579 -1.1933
  172SAPS  C21919557   3.453   5.376   4.475 -0.1147 -0.0816  0.3613
  172SAPS  H19R19558   3.432   5.269   4.454  1.4829 -0.6352  1.4248
  172SAPS  H19S19559   3.554   5.407   4.439 -1.2179 -0.1741 -3.2813
  172SAPS  C22019560   3.341   5.456   4.403 -0.3159 -0.0808  1.3723
  172SAPS  H20R19561   3.247   5.439   4.458 -1.1898  1.9465  0.6210
  172SAPS  H20S19562   3.333   5.424   4.297 -1.1637  1.2384  1.0098
  172SAPS  H20T19563   3.349   5.566   4.388  0.1411 -0.2176  0.5183
  172SAPS   C3319564   4.061   5.130   6.179  0.1372  0.1634 -0.6867
  172SAPS   H3X19565   4.053   5.074   6.083 -0.8045 -0.8067 -0.0691
  172SAPS   H3Y19566   4.096   5.055   6.254 -0.3740 -1.7586 -2.2693
  172SAPS   C3419567   4.164   5.251   6.157 -0.2638 -0.0172 -0.5085
  172SAPS   H4X19568   4.265   5.207   6.140  0.3189  0.8015  0.7049
  172SAPS   H4Y19569   4.175   5.314   6.248 -2.9925 -1.2044  0.7611
  172SAPS   C3519570   4.124   5.332   6.033  0.3679  0.0790 -0.5213
  172SAPS   H5X19571   4.022   5.375   6.044  0.1435 -0.2317 -1.2932
  172SAPS   H5Y19572   4.121   5.262   5.947  2.1142  0.2875 -0.7925
  172SAPS   C3619573   4.236   5.430   5.994 -0.2014  0.5792 -0.2200
  172SAPS   H6X19574   4.336   5.393   6.023  0.2059  1.2887 -0.6974
  172SAPS   H6Y19575   4.224   5.522   6.054 -2.7465  2.2002 -2.9242
  172SAPS   C3719576   4.245   5.461   5.843 -0.1605  0.4764  0.2812
  172SAPS   H7X19577   4.153   5.500   5.794 -0.2609 -3.1441 -2.8533
  172SAPS   H7Y19578   4.271   5.367   5.791 -1.6416  0.0056  0.3632
  172SAPS   C3819579   4.364   5.554   5.812 -0.3203 -0.8551 -0.2849
  172SAPS   H8X19580   4.457   5.498   5.837  1.9366  2.9222  0.6224
  172SAPS   H8Y19581   4.358   5.639   5.883  1.6681 -0.0597 -1.0007
  172SAPS   C3919582   4.366   5.611   5.672  0.0972  0.1080 -0.1332
  172SAPS   H9X19583   4.453   5.679   5.659 -0.3183  0.5254 -0.7995
  172SAPS   H9Y19584   4.282   5.676   5.640  0.3153 -0.4089 -1.8470
  172SAPS  C31019585   4.398   5.496   5.567  0.4411 -0.4620 -0.0706
  172SAPS  H10X19586   4.324   5.413   5.577 -1.2889  1.1324  1.2368
  172SAPS  H10Y19587   4.487   5.443   5.607 -0.4324 -0.9516  1.3222
  172SAPS  C31119588   4.418   5.539   5.421 -0.5953 -0.3997 -0.0562
  172SAPS  H11X19589   4.505   5.604   5.401  0.2528 -1.6276 -0.4682
  172SAPS  H11Y19590   4.331   5.595   5.381  0.2048  0.0162 -1.2748
  172SAPS  C31219591   4.435   5.415   5.340 -0.0135 -0.1010  0.5028
  172SAPS  H12X19592   4.345   5.355   5.363  0.2676  0.3157  2.9870
  172SAPS  H12Y19593   4.525   5.362   5.379  0.6657  1.0011  0.4672
  172SAPS  C31319594   4.462   5.432   5.193 -0.2995  0.4602 -1.4388
  172SAPS  H13X19595   4.501   5.332   5.165  3.5169  0.7875  1.7872
  172SAPS  H13Y19596   4.545   5.506   5.183 -0.8003  1.3887  0.6658
  172SAPS  C31419597   4.337   5.460   5.118  0.2489 -0.0627 -0.2468
  172SAPS  H14X19598   4.294   5.559   5.145  0.8792  0.1675 -0.0550
  172SAPS  H14Y19599   4.259   5.381   5.122  1.3726 -1.1955 -0.3261
  172SAPS  C31519600   4.381   5.475   4.973 -0.3163  0.2700  0.1046
  172SAPS  H15X19601   4.457   5.396   4.956 -1.6629 -1.4457  1.6293
  172SAPS  H15Y19602   4.418   5.580   4.964 -1.2766  0.8160  1.9497
  172SAPS  C31619603   4.262   5.472   4.882  0.3243 -0.0554 -0.1929
  172SAPS  H16X19604   4.225   5.367   4.874 -0.8880  0.3990 -0.8982
  172SAPS  H16Y19605   4.187   5.538   4.931 -0.3411 -0.8432 -0.1131
  172SAPS  C31719606   4.301   5.528   4.749  1.2102 -0.2122 -0.3391
  172SAPS  H17X19607   4.363   5.618   4.768  0.1951  0.2956  0.6576
  172SAPS  H17Y19608   4.212   5.568   4.697  0.8079 -2.4038 -1.4601
  172SAPS  C31819609   4.379   5.437   4.657 -0.6075  0.1279  0.6095
  172SAPS  H18X19610   4.319   5.359   4.607 -2.9250  1.9253  0.4057
  172SAPS  H18Y19611   4.468   5.404   4.715 -0.6970 -1.0925  0.0703
  172SAPS  H18Z19612   4.419   5.489   4.567 -0.2440  0.2603  0.8413
  173SAPS     N19613   3.428   4.761   2.479  0.2582 -0.4720  0.7591
  173SAPS   HN119614   3.470   4.667   2.482 -1.2947 -1.1898  1.0002
  173SAPS   HN219615   3.504   4.832   2.483 -1.1019  1.2876 -1.7753
  173SAPS   HN319616   3.363   4.765   2.561 -0.6606 -0.3381  0.0452
  173SAPS   C1219617   3.356   4.760   2.349 -0.0828  0.3217 -0.5127
  173SAPS  H12A19618   3.285   4.678   2.350 -2.1085  1.9513 -1.4517
  173SAPS   C1319619   3.269   4.879   2.322  0.0448 -0.4515 -0.1043
  173SAPS  O13A19620   3.268   4.975   2.411  0.1920  0.1698  0.2708
  173SAPS  O13B19621   3.203   4.892   2.217 -0.6538  0.5489 -0.3246
  173SAPS   C1119622   3.450   4.747   2.223 -0.2089  0.1300  0.1666
  173SAPS  H11A19623   3.530   4.824   2.220  0.2838 -0.2827  1.7523
  173SAPS  H11B19624   3.399   4.755   2.125  0.1060 -1.2509 -0.1336
  173SAPS     P19625   3.484   4.488   2.139  0.4376 -0.0871 -0.0401
  173SAPS   O1319626   3.447   4.529   1.999 -0.3044 -0.7147  0.0661
  173SAPS   O1419627   3.587   4.381   2.150 -1.1015  0.0912  0.2246
  173SAPS   O1219628   3.522   4.622   2.218  0.2411  0.3849 -0.3610
  173SAPS   O1119629   3.342   4.450   2.211 -0.3467 -0.5764 -0.3672
  173SAPS    C119630   3.346   4.347   2.315 -0.0865  0.5165  0.8096
  173SAPS    HA19631   3.379   4.246   2.283 -1.6709  0.8652 -2.2854
  173SAPS    HB19632   3.411   4.378   2.400 -1.2560 -0.4914  2.1369
  173SAPS    C219633   3.204   4.330   2.374 -0.6784 -0.3045 -0.1128
  173SAPS    HS19634   3.130   4.320   2.292 -0.9257  0.7006 -0.0179
  173SAPS   O2119635   3.179   4.450   2.445  0.2059 -0.3316 -0.0087
  173SAPS   C2119636   3.052   4.491   2.448  0.3923 -0.5625 -0.6388
  173SAPS   O2219637   2.961   4.457   2.374 -0.3700 -0.2761  0.3627
  173SAPS   C2219638   3.032   4.569   2.576 -0.3378 -0.1620 -0.0080
  173SAPS   H2R19639   3.088   4.663   2.559 -0.3350 -0.1421  0.1125
  173SAPS   H2S19640   2.924   4.595   2.587 -0.5739 -0.1914 -1.9361
  173SAPS    C319641   3.198   4.205   2.462  0.2672 -0.4266  0.0007
  173SAPS    HX19642   3.097   4.190   2.505 -0.1319 -1.3541 -1.2138
  173SAPS    HY19643   3.253   4.225   2.556  0.7025  2.7172 -0.7868
  173SAPS   O3119644   3.232   4.088   2.386  0.0097 -0.2276  0.4544
  173SAPS   C3119645   3.335   4.023   2.437 -0.3017  0.1670 -0.9719
  173SAPS   O3219646   3.411   4.065   2.519  0.3267  0.0374 -0.0693
  173SAPS   C3219647   3.319   3.871   2.405 -0.3520  0.1711  0.2354
  173SAPS   H2X19648   3.340   3.855   2.297 -0.3644 -1.0973  0.3965
  173SAPS   H2Y19649   3.215   3.843   2.435  0.5227 -1.1656  2.2422
  173SAPS   C2319650   3.069   4.486   2.706 -0.3120 -0.4744  0.3789
  173SAPS   H3R19651   3.077   4.543   2.801  3.2330 -0.0610 -0.0292
  173SAPS   H3S19652   3.174   4.454   2.688 -1.0997 -2.0753 -1.8308
  173SAPS   C2419653   2.974   4.364   2.716  0.1918 -0.0997 -0.5714
  173SAPS   H4R19654   3.015   4.294   2.791 -3.2829  0.0133  1.6621
  173SAPS   H4S19655   2.972   4.302   2.624 -1.9612 -1.4183  0.2698
  173SAPS   C2519656   2.829   4.404   2.749 -0.1384  0.0317 -0.7599
  173SAPS   H5R19657   2.762   4.430   2.665 -1.2089  3.2277  0.8816
  173SAPS   C2619658   2.771   4.386   2.873 -0.9388  0.1007  0.7423
  173SAPS   H6R19659   2.670   4.428   2.878 -0.4633  1.2964  0.6267
  173SAPS   C2719660   2.823   4.346   3.011 -0.4417  0.2194  0.1553
  173SAPS   H7R19661   2.769   4.399   3.093 -1.1834 -1.7629  1.0026
  173SAPS   H7S19662   2.931   4.368   3.003 -0.3658 -0.4439 -0.8521
  173SAPS   C2819663   2.799   4.199   3.035  1.1119 -0.0130  0.3869
  173SAPS   H8R19664   2.798   4.135   2.945 -0.7545  0.3345  0.1310
  173SAPS   C2919665   2.764   4.147   3.155 -0.1463 -0.5125  0.5132
  173SAPS   H9R19666   2.747   4.039   3.159  0.5605 -0.7035 -0.9194
  173SAPS  C21019667   2.763   4.203   3.295  0.6621 -0.2714 -0.0056
  173SAPS  H10R19668   2.671   4.166   3.345  0.1792 -0.3007 -0.8949
  173SAPS  H10S19669   2.747   4.312   3.283  2.7594  0.0628 -0.0321
  173SAPS  C21119670   2.898   4.180   3.361 -0.1520 -0.4300  0.4925
  173SAPS  H11R19671   2.979   4.254   3.350  0.4176 -0.5684  3.2181
  173SAPS  C21219672   2.917   4.091   3.461  0.3293 -0.0990  0.3709
  173SAPS  H12R19673   3.020   4.082   3.498  1.2530  0.2796 -1.9459
  173SAPS  C21319674   2.816   3.987   3.529  0.3107  0.4806  0.4320
  173SAPS  H13R19675   2.880   3.916   3.585 -1.7000 -2.6652 -1.0147
  173SAPS  H13S19676   2.750   3.930   3.461  0.8367 -0.6755  0.8793
  173SAPS  C21419677   2.731   4.051   3.636 -0.7641  0.2628 -0.3980
  173SAPS  H14R19678   2.728   4.160   3.625  0.4897  0.2127 -1.5152
  173SAPS  C21519679   2.671   3.987   3.742 -0.3920 -1.2129 -0.3161
  173SAPS  H15R19680   2.621   4.048   3.818  0.0188  0.6133 -1.4480
  173SAPS  C21619681   2.679   3.842   3.770 -0.1528 -0.0409  0.4232
  173SAPS  H16R19682   2.780   3.800   3.752  0.2230  0.8385  0.4426
  173SAPS  H16S19683   2.606   3.785   3.709 -0.4976  1.5043 -0.6796
  173SAPS  C21719684   2.652   3.805   3.917  0.0200 -0.2805 -0.4075
  173SAPS  H17R19685   2.543   3.800   3.939 -0.2297  0.8005 -1.2640
  173SAPS  H17S19686   2.694   3.885   3.982 -1.3884 -0.1596  0.3971
  173SAPS  C21819687   2.702   3.665   3.953  1.0985 -0.4790 -0.2580
  173SAPS  H18R19688   2.813   3.673   3.945  1.1165 -1.5492 -1.4395
  173SAPS  H18S19689   2.679   3.604   3.863  2.0960  0.9184 -1.5023
  173SAPS  C21919690   2.646   3.599   4.087 -0.3515 -0.3087  0.2612
  173SAPS  H19R19691   2.681   3.494   4.078 -0.8611 -0.4359 -0.2873
  173SAPS  H19S19692   2.536   3.586   4.088 -0.3890 -0.0010  0.9410
  173SAPS  C22019693   2.698   3.665   4.212  0.5192 -0.2729  0.6608
  173SAPS  H20R19694   2.809   3.667   4.215  0.4920  0.6177  2.3459
  173SAPS  H20S19695   2.648   3.610   4.295  1.6633 -1.1038  0.8282
  173SAPS  H20T19696   2.662   3.769   4.226 -1.2306 -0.4642 -1.9004
  173SAPS   C3319697   3.406   3.785   2.500 -0.2337  0.9452 -0.1059
  173SAPS   H3X19698   3.498   3.843   2.521  0.6572 -0.4106 -0.1354
  173SAPS   H3Y19699   3.440   3.700   2.437  0.1011  1.7808 -1.0679
  173SAPS   C3419700   3.323   3.736   2.618 -0.3752  0.2889  0.0077
  173SAPS   H4X19701   3.254   3.666   2.566 -0.4797  1.5890 -1.6811
  173SAPS   H4Y19702   3.273   3.823   2.666 -0.2162  1.6832 -2.2366
  173SAPS   C3519703   3.415   3.639   2.702 -0.6472 -0.6789 -0.3319
  173SAPS   H5X19704   3.511   3.690   2.722 -0.6838  0.2252 -2.2952
  173SAPS   H5Y19705   3.434   3.545   2.645  0.5082  0.0400 -1.1770
  173SAPS   C3619706   3.360   3.600   2.835 -1.2356 -0.3788 -0.7251
  173SAPS   H6X19707   3.264   3.544   2.834 -1.9425  0.7814  0.2226
  173SAPS   H6Y19708   3.358   3.689   2.902  0.0525 -0.4545 -0.5589
  173SAPS   C3719709   3.461   3.506   2.904 -0.9012 -0.2695  0.6187
  173SAPS   H7X19710   3.566   3.542   2.902 -0.0396 -2.6083  1.1094
  173SAPS   H7Y19711   3.475   3.420   2.835  1.9079 -0.1314  0.9110
  173SAPS   C3819712   3.427   3.452   3.042  0.4211 -0.2073 -0.5878
  173SAPS   H8X19713   3.335   3.390   3.039  0.6463 -0.5182 -3.0929
  173SAPS   H8Y19714   3.415   3.537   3.113  0.5781 -0.5810 -0.1073
  173SAPS   C3919715   3.536   3.358   3.088 -0.2891 -0.0614 -0.4462
  173SAPS   H9X19716   3.631   3.404   3.055  0.2273 -0.1631  0.8551
  173SAPS   H9Y19717   3.527   3.254   3.050 -0.7803 -0.3650  0.4611
  173SAPS  C31019718   3.528   3.354   3.241  0.1620 -0.5699  1.0110
  173SAPS  H10X19719   3.531   3.462   3.270  2.2742  0.0777 -1.2790
  173SAPS  H10Y19720   3.617   3.304   3.285  1.5099  1.2753  0.5303
  173SAPS  C31119721   3.403   3.283   3.297  0.4056  0.9516  0.0719
  173SAPS  H11X19722   3.397   3.185   3.245 -0.7707  0.4911  1.0243
  173SAPS  H11Y19723   3.314   3.344   3.270 -0.7250  0.6787  2.8010
  173SAPS  C31219724   3.414   3.231   3.443 -0.6204 -0.1060 -0.2897
  173SAPS  H12X19725   3.516   3.188   3.452 -0.5261 -0.0492 -1.0267
  173SAPS  H12Y19726   3.337   3.157   3.472 -0.0878  0.0301  1.6676
  173SAPS  C31319727   3.400   3.340   3.550  0.2694  0.4242 -0.0799
  173SAPS  H13X19728   3.294   3.371   3.539  0.0162 -0.4189 -0.0675
  173SAPS  H13Y19729   3.465   3.430   3.549  0.6340  0.1674  0.2103
  173SAPS  C31419730   3.426   3.285   3.695  0.6799  0.1871  0.1417
  173SAPS  H14X19731   3.374   3.193   3.728  1.6174 -0.8989 -1.2725
  173SAPS  H14Y19732   3.401   3.367   3.765  0.8767 -1.1890  1.8962
  173SAPS  C31519733   3.576   3.246   3.717  0.6843 -0.3213 -0.3057
  173SAPS  H15X19734   3.641   3.305   3.649 -1.8764 -1.2504 -3.8327
  173SAPS  H15Y19735   3.588   3.149   3.665  1.0002 -0.5354  0.1544
  173SAPS  C31619736   3.606   3.231   3.867 -0.4839 -0.6185  0.4781
  173SAPS  H16X19737   3.562   3.132   3.890 -0.7039 -0.4398  0.8356
  173SAPS  H16Y19738   3.539   3.301   3.921 -1.1469  0.5167 -1.6769
  173SAPS  C31719739   3.753   3.232   3.910  0.3076  0.5013 -0.2667
  173SAPS  H17X19740   3.809   3.328   3.898  1.6419 -0.4563 -2.1642
  173SAPS  H17Y19741   3.803   3.163   3.840  3.6676  3.0705 -0.6614
  173SAPS  C31819742   3.785   3.185   4.051  0.4092 -0.5076 -0.0772
  173SAPS  H18X19743   3.764   3.077   4.064  1.6722 -0.9050 -1.1750
  173SAPS  H18Y19744   3.740   3.250   4.129  0.7540 -0.0471 -0.2602
  173SAPS  H18Z19745   3.892   3.172   4.074 -0.1495  0.3040  3.5900
  174SAPS     N19746   5.198   3.561   1.960  0.6021 -0.4867 -0.1214
  174SAPS   HN119747   5.176   3.632   1.887  2.4699 -1.4643 -1.7395
  174SAPS   HN219748   5.125   3.557   2.034  1.3136  1.9993  0.7887
  174SAPS   HN319749   5.283   3.594   2.010  0.5184 -1.4505  0.6937
  174SAPS   C1219750   5.228   3.421   1.916 -0.0071  0.0206  0.4126
  174SAPS  H12A19751   5.142   3.359   1.938 -0.4899  0.0063 -1.3549
  174SAPS   C1319752   5.258   3.395   1.765 -0.1137  0.4141 -0.7074
  174SAPS  O13A19753   5.247   3.493   1.686  0.4270 -0.3352 -0.2017
  174SAPS  O13B19754   5.272   3.279   1.722 -0.3326  0.3892 -0.0056
  174SAPS   C1119755   5.347   3.368   2.005 -0.5701  0.8158  0.5389
  174SAPS  H11A19756   5.443   3.415   1.976 -0.0134 -0.8579 -0.4418
  174SAPS  H11B19757   5.367   3.261   1.983  1.0385  1.0261  0.8580
  174SAPS     P19758   5.412   3.316   2.248 -0.2499  0.1158  0.4515
  174SAPS   O1319759   5.540   3.282   2.185 -0.2415  0.0217  0.1483
  174SAPS   O1419760   5.409   3.397   2.372 -1.0648  0.6809 -0.0777
  174SAPS   O1219761   5.318   3.386   2.141  0.7439 -0.0186  0.8158
  174SAPS   O1119762   5.346   3.178   2.289 -0.7335  0.0195  0.0182
  174SAPS    C119763   5.213   3.171   2.325 -0.2898 -0.1266  0.6143
  174SAPS    HA19764   5.159   3.269   2.321  0.0841  0.0395 -0.9377
  174SAPS    HB19765   5.162   3.104   2.253  1.7879  0.8450 -1.9419
  174SAPS    C219766   5.198   3.114   2.464  0.3829 -0.8406 -0.2936
  174SAPS    HS19767   5.091   3.133   2.487  0.5439  0.1497 -0.3114
  174SAPS   O2119768   5.287   3.181   2.556 -0.6474  0.6091  0.0200
  174SAPS   C2119769   5.244   3.292   2.607 -0.0786 -0.7890  0.5916
  174SAPS   O2219770   5.131   3.340   2.587 -0.0888 -0.0327 -0.7178
  174SAPS   C2219771   5.355   3.358   2.690  0.4353  0.3073 -0.8436
  174SAPS   H2R19772   5.439   3.290   2.718  0.5542  1.1022  0.8269
  174SAPS   H2S19773   5.393   3.449   2.639 -0.4683  0.3059 -1.5439
  174SAPS    C319774   5.225   2.959   2.470  0.6005 -0.0963 -0.2242
  174SAPS    HX19775   5.324   2.936   2.423  0.9069 -0.3905  0.5369
  174SAPS    HY19776   5.151   2.906   2.407  2.3139  0.8711 -3.2972
  174SAPS   O3119777   5.208   2.911   2.607  0.2794  0.0243  0.2856
  174SAPS   C3119778   5.320   2.864   2.660 -0.2997  0.3344  0.7370
  174SAPS   O3219779   5.431   2.836   2.611  0.0959 -0.6283 -0.3109
  174SAPS   C3219780   5.295   2.838   2.807  0.6041 -0.4578  0.3658
  174SAPS   H2X19781   5.220   2.758   2.822  1.8521 -1.4427  1.6175
  174SAPS   H2Y19782   5.249   2.933   2.841 -0.3572 -0.9512  0.4709
  174SAPS   C2319783   5.295   3.407   2.828 -0.8927  0.3631  0.0762
  174SAPS   H3R19784   5.203   3.465   2.810 -0.3486  0.7746 -1.5555
  174SAPS   H3S19785   5.382   3.471   2.858  0.3555 -1.1642 -0.1338
  174SAPS   C2419786   5.260   3.309   2.940 -0.8375  0.0006  0.1049
  174SAPS   H4R19787   5.189   3.233   2.899  0.9947 -0.8819 -1.5743
  174SAPS   H4S19788   5.210   3.355   3.028 -1.8772 -0.1482 -0.3833
  174SAPS   C2519789   5.379   3.236   2.997 -0.1910 -0.0068  0.0164
  174SAPS   H5R19790   5.424   3.164   2.928 -1.1661  2.1475 -3.0627
  174SAPS   C2619791   5.433   3.263   3.123 -0.6337 -0.8089  0.1716
  174SAPS   H6R19792   5.522   3.209   3.157 -1.0250  0.4761  3.7265
  174SAPS   C2719793   5.386   3.373   3.221  0.3663 -0.0900 -0.2280
  174SAPS   H7R19794   5.304   3.334   3.285  3.6588  0.1711  4.6795
  174SAPS   H7S19795   5.343   3.460   3.167  0.4504  1.1115  1.5426
  174SAPS   C2819796   5.472   3.426   3.331 -0.1637  0.3466  0.4709
  174SAPS   H8R19797   5.557   3.485   3.291 -0.2000  0.4237  0.5066
  174SAPS   C2919798   5.453   3.423   3.466 -0.8022 -0.2046  0.6445
  174SAPS   H9R19799   5.528   3.478   3.525  1.2515 -0.0108 -1.9523
  174SAPS  C21019800   5.337   3.356   3.541  0.2111 -0.2755  0.1947
  174SAPS  H10R19801   5.255   3.329   3.472  2.2172 -0.9797 -2.0619
  174SAPS  H10S19802   5.303   3.422   3.623  1.8374 -1.1365  1.6489
  174SAPS  C21119803   5.381   3.227   3.596 -0.1708 -0.2057 -0.9130
  174SAPS  H11R19804   5.396   3.151   3.518  0.5645 -0.6464 -0.3594
  174SAPS  C21219805   5.399   3.198   3.730  0.6301 -0.2241  0.1935
  174SAPS  H12R19806   5.430   3.097   3.758  1.7524  0.1932  0.5146
  174SAPS  C21319807   5.391   3.298   3.842  0.2638 -0.2056 -0.6456
  174SAPS  H13R19808   5.287   3.283   3.880  0.5230 -1.3984 -0.3616
  174SAPS  H13S19809   5.386   3.404   3.811 -0.8578  0.4734  1.6825
  174SAPS  C21419810   5.500   3.269   3.942  0.4609  0.0173 -0.6223
  174SAPS  H14R19811   5.579   3.345   3.951 -1.1038  1.5768  0.3405
  174SAPS  C21519812   5.519   3.154   4.009  0.1155 -0.4417 -0.0393
  174SAPS  H15R19813   5.598   3.150   4.086  1.0083 -1.9367 -0.9910
  174SAPS  C21619814   5.420   3.038   4.011  0.0051  0.1686 -0.1987
  174SAPS  H16R19815   5.471   2.949   3.969  0.9617  0.3593  0.5366
  174SAPS  H16S19816   5.326   3.055   3.953 -0.6742 -1.0531  0.5085
  174SAPS  C21719817   5.361   2.992   4.149  0.3056  0.3947  0.0311
  174SAPS  H17R19818   5.295   3.072   4.188  0.3473  0.1702  0.5749
  174SAPS  H17S19819   5.442   2.983   4.225 -0.4969  0.7555  0.9444
  174SAPS  C21819820   5.282   2.851   4.146  0.7381  0.0205  0.3313
  174SAPS  H18R19821   5.286   2.815   4.251  2.5072 -0.8842 -0.0127
  174SAPS  H18S19822   5.337   2.778   4.083 -0.9485 -2.8397  1.9478
  174SAPS  C21919823   5.144   2.861   4.081  0.3398  0.1222  0.1494
  174SAPS  H19R19824   5.149   2.901   3.978 -2.1710 -1.5635 -0.7223
  174SAPS  H19S19825   5.079   2.923   4.147 -0.2757 -0.1271 -0.2128
  174SAPS  C22019826   5.073   2.725   4.068  0.0350  0.0397 -0.3268
  174SAPS  H20R19827   5.136   2.634   4.073 -0.3737 -0.1703  1.4589
  174SAPS  H20S19828   5.028   2.727   3.966 -0.9770 -1.2092  0.0680
  174SAPS  H20T19829   4.980   2.714   4.128  0.5994 -1.5157  0.2969
  174SAPS   C3319830   5.423   2.806   2.890  0.0453  0.0127  0.4526
  174SAPS   H3X19831   5.506   2.858   2.837 -0.6541 -0.3675 -1.0754
  174SAPS   H3Y19832   5.441   2.697   2.884 -1.2738 -0.2301  0.7331
  174SAPS   C3419833   5.420   2.848   3.035 -1.0454 -0.2368  0.3742
  174SAPS   H4X19834   5.442   2.956   3.041  0.6276 -0.5417  0.0169
  174SAPS   H4Y19835   5.506   2.793   3.078  0.8006  0.4260 -2.2688
  174SAPS   C3519836   5.293   2.821   3.107 -0.5142  0.0674 -0.7512
  174SAPS   H5X19837   5.238   2.737   3.061  0.9664 -0.4667 -1.6042
  174SAPS   H5Y19838   5.217   2.903   3.101 -2.0431 -1.0619  1.5069
  174SAPS   C3619839   5.308   2.779   3.261 -0.4605  0.8268 -0.0507
  174SAPS   H6X19840   5.369   2.686   3.257 -2.8273 -0.8124 -0.5242
  174SAPS   H6Y19841   5.202   2.759   3.290  0.0873 -1.2369  0.7173
  174SAPS   C3719842   5.386   2.879   3.351 -0.3285  0.3541 -0.8950
  174SAPS   H7X19843   5.353   2.984   3.336  0.8551  1.4841  3.1209
  174SAPS   H7Y19844   5.497   2.873   3.346 -0.1250 -2.5267  2.5777
  174SAPS   C3819845   5.353   2.826   3.497 -0.9411 -0.3892  0.3926
  174SAPS   H8X19846   5.247   2.794   3.505 -0.4302 -2.7227 -1.0379
  174SAPS   H8Y19847   5.368   2.917   3.558 -2.0410  2.0696 -2.7572
  174SAPS   C3919848   5.451   2.721   3.544 -0.2941  0.5395  0.5617
  174SAPS   H9X19849   5.543   2.723   3.481  0.5712  2.6881  1.7769
  174SAPS   H9Y19850   5.397   2.625   3.536  0.7572 -0.0047 -0.3577
  174SAPS  C31019851   5.486   2.744   3.690 -0.1698 -0.1382  0.0733
  174SAPS  H10X19852   5.396   2.771   3.749  0.6075  1.0933  0.7322
  174SAPS  H10Y19853   5.555   2.829   3.703 -1.2370  0.8103 -0.3293
  174SAPS  C31119854   5.546   2.622   3.759  0.7026 -0.2042  0.2042
  174SAPS  H11X19855   5.619   2.577   3.689 -1.1149 -0.2751 -1.7174
  174SAPS  H11Y19856   5.465   2.546   3.770  1.3673 -0.9546  0.0634
  174SAPS  C31219857   5.619   2.645   3.894 -0.2613  0.5177 -1.0902
  174SAPS  H12X19858   5.565   2.713   3.964 -0.6435 -1.9011  1.1066
  174SAPS  H12Y19859   5.710   2.704   3.871  0.5498 -0.5673 -0.7338
  174SAPS  C31319860   5.662   2.510   3.959  0.3848 -0.3494  0.0823
  174SAPS  H13X19861   5.704   2.445   3.880  0.2750 -1.0118  0.5599
  174SAPS  H13Y19862   5.578   2.457   4.009 -0.1882  0.8278  0.4246
  174SAPS  C31419863   5.762   2.518   4.073  0.0073  0.6343 -0.3412
  174SAPS  H14X19864   5.719   2.593   4.144 -2.3052 -1.9047  1.1426
  174SAPS  H14Y19865   5.855   2.562   4.033 -1.0684  2.4939 -0.9302
  174SAPS  C31519866   5.793   2.390   4.157  0.2282 -0.0787 -0.5442
  174SAPS  H15X19867   5.832   2.316   4.085  2.5847 -0.3615  0.9194
  174SAPS  H15Y19868   5.691   2.361   4.191 -0.9555  2.5303 -1.5516
  174SAPS  C31619869   5.883   2.420   4.276 -0.7729  1.2475 -0.7512
  174SAPS  H16X19870   5.831   2.485   4.349 -1.4674  0.5936 -0.6502
  174SAPS  H16Y19871   5.970   2.483   4.246  1.6258 -2.0095 -1.2079
  174SAPS  C31719872   5.940   2.289   4.343  0.1016  0.2195  0.1604
  174SAPS  H17X19873   5.856   2.219   4.365 -0.4231  1.0330  0.8297
  174SAPS  H17Y19874   5.986   2.312   4.441  1.2892  0.6805 -0.4868
  174SAPS  C31819875   6.049   2.222   4.261  0.2876  0.2206 -0.1738
  174SAPS  H18X19876   6.065   2.120   4.303  2.0698  0.0922 -1.0707
  174SAPS  H18Y19877   6.149   2.270   4.264 -0.5776  2.0847 -0.0195
  174SAPS  H18Z19878   6.020   2.205   4.155 -0.0729 -0.9643  0.0988
  175SAPS     N19879   1.627   3.425   1.454  0.3674 -0.2122 -0.1656
  175SAPS   HN119880   1.630   3.405   1.352  0.5501  0.1417 -0.2319
  175SAPS   HN219881   1.674   3.355   1.515 -1.9238  0.2141  2.2896
  175SAPS   HN319882   1.526   3.439   1.472  0.1546  2.4571 -2.6261
  175SAPS   C1219883   1.692   3.553   1.490  0.1187 -0.3560  0.4807
  175SAPS  H12A19884   1.797   3.549   1.466  0.2085 -2.5259  1.0307
  175SAPS   C1319885   1.644   3.673   1.401 -1.1560  0.1922  0.5753
  175SAPS  O13A19886   1.559   3.651   1.309 -0.3617 -0.0513 -0.0315
  175SAPS  O13B19887   1.681   3.793   1.426 -0.3399 -1.0361  0.4264
  175SAPS   C1119888   1.675   3.577   1.642  0.0085 -0.0853  0.4786
  175SAPS  H11A19889   1.566   3.595   1.659  0.2944  2.3273  0.1170
  175SAPS  H11B19890   1.733   3.670   1.661  1.1289 -1.0905  2.2251
  175SAPS     P19891   1.716   3.445   1.865  0.0439 -0.5599  0.1550
  175SAPS   O1319892   1.572   3.467   1.900  0.2580  0.4462 -0.2249
  175SAPS   O1419893   1.765   3.310   1.885  0.4025 -0.2037  0.2359
  175SAPS   O1219894   1.723   3.460   1.706 -0.3457  0.2368 -0.2699
  175SAPS   O1119895   1.815   3.542   1.935 -0.0795  0.1776 -0.1063
  175SAPS    C119896   1.937   3.591   1.871  0.0179  0.1218 -0.3465
  175SAPS    HA19897   1.962   3.520   1.790  0.0398 -0.3593  0.0808
  175SAPS    HB19898   1.931   3.694   1.828 -2.8769 -0.4215 -1.5066
  175SAPS    C219899   2.059   3.607   1.971  0.1665 -1.0260 -0.6302
  175SAPS    HS19900   2.134   3.667   1.915 -0.9166  0.0917 -0.9237
  175SAPS   O2119901   2.108   3.477   2.003 -0.2549  0.3691  0.4010
  175SAPS   C2119902   2.198   3.422   1.930 -0.0425  0.0893  0.3099
  175SAPS   O2219903   2.247   3.470   1.831  0.4171  0.5424 -0.1777
  175SAPS   C2219904   2.238   3.290   1.994  0.4092 -0.0320 -0.0203
  175SAPS   H2R19905   2.226   3.286   2.104 -1.1940 -0.8654 -0.1990
  175SAPS   H2S19906   2.167   3.211   1.963  0.9144 -1.1959  1.6599
  175SAPS    C319907   2.012   3.679   2.099  0.3242  0.4006 -0.7106
  175SAPS    HX19908   1.941   3.625   2.165  1.4612 -1.1353 -0.6897
  175SAPS    HY19909   1.959   3.765   2.055  1.5806  0.3391 -2.4489
  175SAPS   O3119910   2.124   3.724   2.175 -0.2422  0.1766  0.5998
  175SAPS   C3119911   2.112   3.836   2.233  0.3594 -0.3248 -0.0020
  175SAPS   O3219912   1.999   3.891   2.258 -0.1489 -0.5156 -0.1975
  175SAPS   C3219913   2.253   3.892   2.273 -0.5606 -0.0384 -0.2520
  175SAPS   H2X19914   2.231   3.950   2.365 -2.0890 -2.7601  1.2222
  175SAPS   H2Y19915   2.301   3.959   2.198  3.0371 -0.2243  1.6314
  175SAPS   C2319916   2.376   3.260   1.950 -0.6197 -0.2556 -0.1790
  175SAPS   H3R19917   2.435   3.351   1.972 -1.1516  0.3435 -1.1956
  175SAPS   H3S19918   2.387   3.244   1.841 -1.1336  3.7290 -0.9586
  175SAPS   C2419919   2.429   3.144   2.041 -0.6759  0.0606  0.2225
  175SAPS   H4R19920   2.413   3.178   2.146 -0.1372  5.2305 -1.1006
  175SAPS   H4S19921   2.539   3.147   2.028 -0.4969 -2.6116  0.4192
  175SAPS   C2519922   2.374   3.005   1.996  0.0008 -0.0472  0.3832
  175SAPS   H5R19923   2.415   2.978   1.898 -0.1806  0.0239  0.2880
  175SAPS   C2619924   2.274   2.925   2.044  0.4227  0.0697 -0.5459
  175SAPS   H6R19925   2.242   2.838   1.984 -1.0198  1.4845 -1.9244
  175SAPS   C2719926   2.219   2.951   2.188  0.2230  0.1030  0.7027
  175SAPS   H7R19927   2.248   3.050   2.228 -1.2641  0.3271  1.2720
  175SAPS   H7S19928   2.259   2.875   2.258  0.5543 -0.3809  0.0029
  175SAPS   C2819929   2.066   2.933   2.184 -0.0311  0.5343 -0.3284
  175SAPS   H8R19930   2.022   2.847   2.131  1.8285  0.8095 -2.4320
  175SAPS   C2919931   1.982   3.006   2.252 -0.0106 -0.2740  0.7713
  175SAPS   H9R19932   1.875   2.982   2.256 -0.0737 -0.3263 -0.7907
  175SAPS  C21019933   2.016   3.121   2.340  0.2059 -0.0977  0.4612
  175SAPS  H10R19934   2.108   3.090   2.394  0.4755 -1.6407 -0.8263
  175SAPS  H10S19935   1.939   3.116   2.420  1.1401 -0.8443  1.3348
  175SAPS  C21119936   2.019   3.263   2.285 -0.6323 -0.2272  1.3539
  175SAPS  H11R19937   2.023   3.263   2.176 -0.8711  2.2637  1.2881
  175SAPS  C21219938   2.013   3.382   2.347  0.1559  0.7066  0.3827
  175SAPS  H12R19939   2.031   3.463   2.274  1.6988 -1.4954 -1.8688
  175SAPS  C21319940   2.006   3.424   2.494  0.1700 -0.1008 -0.3006
  175SAPS  H13R19941   1.905   3.391   2.527  0.7820  0.6154  2.5452
  175SAPS  H13S19942   2.016   3.533   2.510  1.6238 -0.5185  2.3683
  175SAPS  C21419943   2.114   3.358   2.581  1.0837 -0.5692  0.2105
  175SAPS  H14R19944   2.215   3.401   2.573  1.0270 -0.2284  1.2536
  175SAPS  C21519945   2.101   3.262   2.673  0.0017  0.3966 -0.8367
  175SAPS  H15R19946   2.193   3.228   2.722 -1.0108 -0.2545  0.6854
  175SAPS  C21619947   1.975   3.198   2.728  0.4424  0.0453 -0.3155
  175SAPS  H16R19948   1.971   3.087   2.716  2.8581 -0.0927 -0.3923
  175SAPS  H16S19949   1.882   3.226   2.674 -1.3337 -2.5177  1.1814
  175SAPS  C21719950   1.975   3.248   2.873 -0.6084 -0.2864 -0.3531
  175SAPS  H17R19951   1.970   3.358   2.880  1.6323  0.1468 -3.5086
  175SAPS  H17S19952   2.072   3.229   2.925  0.3952  1.3604 -1.5192
  175SAPS  C21819953   1.859   3.194   2.959 -0.1110  0.1639 -0.0262
  175SAPS  H18R19954   1.859   3.235   3.062  1.4256  0.6578 -0.1990
  175SAPS  H18S19955   1.866   3.083   2.953 -3.3809 -0.2831  1.9681
  175SAPS  C21919956   1.722   3.222   2.902  0.7754  0.3218  0.7357
  175SAPS  H19R19957   1.646   3.169   2.964 -2.2192  0.5574 -2.4295
  175SAPS  H19S19958   1.705   3.177   2.802 -2.6510  1.2764  0.7635
  175SAPS  C22019959   1.697   3.370   2.883  0.2286  0.1479  0.0132
  175SAPS  H20R19960   1.753   3.418   2.800 -1.5183  2.7229  0.1840
  175SAPS  H20S19961   1.736   3.417   2.976 -0.2244 -2.9384  1.9122
  175SAPS  H20T19962   1.587   3.387   2.878  0.0503 -1.2452 -2.0204
  175SAPS   C3319963   2.353   3.780   2.316 -0.2053 -1.0581  1.0290
  175SAPS   H3X19964   2.435   3.845   2.354 -0.7426  2.0528 -2.5352
  175SAPS   H3Y19965   2.400   3.727   2.230  1.9209  0.9573  0.8169
  175SAPS   C3419966   2.301   3.678   2.419 -0.4498  0.2635 -0.2346
  175SAPS   H4X19967   2.391   3.614   2.434  0.0386  0.8625 -0.5818
  175SAPS   H4Y19968   2.225   3.613   2.370 -0.3460 -0.6111  0.7298
  175SAPS   C3519969   2.237   3.739   2.545  0.0064  0.2473 -0.3472
  175SAPS   H5X19970   2.199   3.660   2.614  0.0121 -0.2406 -0.9045
  175SAPS   H5Y19971   2.155   3.799   2.501 -1.5873 -1.9079 -0.5214
  175SAPS   C3619972   2.329   3.829   2.626 -0.1198  0.4670 -0.4045
  175SAPS   H6X19973   2.359   3.926   2.580  0.2396 -1.1995 -4.0320
  175SAPS   H6Y19974   2.422   3.773   2.650  0.3312  0.5523 -1.8578
  175SAPS   C3719975   2.267   3.852   2.765 -0.2969 -0.6138 -0.4424
  175SAPS   H7X19976   2.236   3.751   2.799 -0.7712 -0.2730  0.1480
  175SAPS   H7Y19977   2.175   3.913   2.776  0.4516  0.8778 -1.9450
  175SAPS   C3819978   2.365   3.894   2.875 -0.0742  0.2163 -0.1798
  175SAPS   H8X19979   2.404   3.997   2.862  0.9790 -0.1883 -0.3732
  175SAPS   H8Y19980   2.447   3.819   2.868 -0.0625  0.2034  0.1201
  175SAPS   C3919981   2.309   3.888   3.014 -0.1730  0.1047  0.1229
  175SAPS   H9X19982   2.262   3.792   3.046 -0.1384 -0.0136 -0.1851
  175SAPS   H9Y19983   2.231   3.967   3.018  1.2030  1.4454  2.2535
  175SAPS  C31019984   2.406   3.917   3.128 -0.0932 -0.4907  0.1181
  175SAPS  H10X19985   2.349   3.950   3.218  0.5916 -0.6135  0.6017
  175SAPS  H10Y19986   2.464   4.002   3.087 -1.2825  0.0979 -0.4165
  175SAPS  C31119987   2.507   3.811   3.161  0.1347  0.6361 -0.7675
  175SAPS  H11X19988   2.599   3.850   3.209 -1.0585 -1.1232  3.3713
  175SAPS  H11Y19989   2.550   3.774   3.066  0.8613  1.0790 -0.6155
  175SAPS  C31219990   2.449   3.696   3.262 -0.2906  0.8198  0.8298
  175SAPS  H12X19991   2.367   3.653   3.202  0.1300  0.0856  0.7719
  175SAPS  H12Y19992   2.405   3.748   3.350  0.4287 -0.8247  2.2232
  175SAPS  C31319993   2.562   3.596   3.300  0.2362 -0.8647  0.3895
  175SAPS  H13X19994   2.630   3.647   3.371  0.8512 -1.7218  0.4262
  175SAPS  H13Y19995   2.621   3.553   3.216  2.4310  0.5696  1.1396
  175SAPS  C31419996   2.490   3.475   3.362  0.0244 -0.3123 -0.0877
  175SAPS  H14X19997   2.404   3.431   3.307  0.2944 -1.3682  0.3071
  175SAPS  H14Y19998   2.445   3.498   3.461  1.4521 -1.5078  0.8740
  175SAPS  C31519999   2.591   3.367   3.408 -0.0751  0.1212 -0.4982
  175SAPS  H15X20000   2.676   3.409   3.466  0.4132 -0.0224 -1.0929
  175SAPS  H15Y20001   2.642   3.333   3.315 -0.2170  0.8445 -0.8454
  175SAPS  C31620002   2.531   3.241   3.476 -0.1767 -0.5201  0.1514
  175SAPS  H16X20003   2.618   3.179   3.504 -0.9297 -1.6581  0.0525
  175SAPS  H16Y20004   2.484   3.183   3.394 -0.7006  2.0216 -1.4775
  175SAPS  C31720005   2.442   3.266   3.593  0.6966 -0.6322  0.4173
  175SAPS  H17X20006   2.406   3.169   3.634  0.4894 -0.2015  1.2788
  175SAPS  H17Y20007   2.354   3.322   3.557 -1.0785 -3.0288  0.7780
  175SAPS  C31820008   2.510   3.358   3.706 -0.0100 -0.4141 -0.0306
  175SAPS  H18X20009   2.532   3.455   3.655 -2.0216 -0.2638 -0.7217
  175SAPS  H18Y20010   2.601   3.307   3.743 -0.5269 -2.6827 -1.6593
  175SAPS  H18Z20011   2.431   3.374   3.783  0.0512  0.8602 -0.2149
  176SAPS     N20012   4.967   0.355   1.903  0.1954  0.0323 -0.2983
  176SAPS   HN120013   4.866   0.335   1.919  0.0394  2.0754  1.9120
  176SAPS   HN220014   4.989   0.310   1.812 -2.0677  0.1332 -0.9598
  176SAPS   HN320015   5.028   0.323   1.981 -0.6417  0.9842  0.7921
  176SAPS   C1220016   4.989   0.511   1.904 -0.2699  0.9692  0.5814
  176SAPS  H12A20017   5.086   0.535   1.863 -1.4982 -1.8813 -5.0981
  176SAPS   C1320018   4.888   0.592   1.824 -0.2671 -0.3461  0.7197
  176SAPS  O13A20019   4.828   0.535   1.728  0.4828  0.1133 -0.0820
  176SAPS  O13B20020   4.882   0.715   1.824  0.3921  0.5831  0.2524
  176SAPS   C1120021   4.973   0.546   2.054  0.0097  0.1417 -0.4132
  176SAPS  H11A20022   4.870   0.515   2.081  0.7340 -0.4065  1.9263
  176SAPS  H11B20023   4.982   0.656   2.055  1.6737  0.0894 -2.1695
  176SAPS     P20024   5.076   0.520   2.282  0.3584 -0.0681  0.1434
  176SAPS   O1320025   5.109   0.665   2.284  0.7099  0.4962  0.4664
  176SAPS   O1420026   4.948   0.488   2.343  0.8210 -0.6069 -0.0764
  176SAPS   O1220027   5.073   0.479   2.133  0.0267 -0.0898  0.0381
  176SAPS   O1120028   5.194   0.442   2.347 -0.1386 -0.0083 -0.7368
  176SAPS    C120029   5.195   0.302   2.378 -0.6734  0.1384 -0.4764
  176SAPS    HA20030   5.106   0.245   2.344 -0.6281  0.6639 -1.5189
  176SAPS    HB20031   5.277   0.259   2.316 -1.0492 -1.2483 -0.0512
  176SAPS    C220032   5.236   0.270   2.527 -1.0230 -0.8941 -0.3313
  176SAPS    HS20033   5.246   0.159   2.534  1.5030 -0.8322 -1.9260
  176SAPS   O2120034   5.136   0.324   2.621 -0.1483  0.3493 -0.3447
  176SAPS   C2120035   5.020   0.266   2.615 -0.1889  0.0812 -0.0285
  176SAPS   O2220036   4.999   0.164   2.551  0.3537  0.3060  0.1724
  176SAPS   C2220037   4.919   0.355   2.697  0.5415  0.2996 -0.4454
  176SAPS   H2R20038   4.976   0.398   2.782 -0.3265  3.4507 -1.3175
  176SAPS   H2S20039   4.894   0.448   2.641 -0.1834  0.5910  0.3449
  176SAPS    C320040   5.372   0.344   2.561  0.4750  0.3379 -0.4330
  176SAPS    HX20041   5.378   0.450   2.528  1.8654  1.4330  2.9858
  176SAPS    HY20042   5.453   0.292   2.505  2.3555 -0.4247  2.7738
  176SAPS   O3120043   5.387   0.336   2.702 -0.2088  0.1215  0.4024
  176SAPS   C3120044   5.509   0.376   2.743  0.1303 -0.2819  0.3394
  176SAPS   O3220045   5.594   0.413   2.661 -0.3766  0.5346 -0.6062
  176SAPS   C3220046   5.529   0.377   2.891 -0.5039 -0.6622  0.6032
  176SAPS   H2X20047   5.579   0.282   2.916 -0.6065 -1.2103 -1.1810
  176SAPS   H2Y20048   5.429   0.401   2.934  0.2521  1.2403  1.4489
  176SAPS   C2320049   4.796   0.275   2.739  0.1428  0.3140  0.1062
  176SAPS   H3R20050   4.731   0.244   2.655 -0.9988 -0.8745  1.3555
  176SAPS   H3S20051   4.735   0.342   2.803  1.1559 -1.8844  3.7076
  176SAPS   C2420052   4.832   0.156   2.833  0.2456  0.5767 -0.0156
  176SAPS   H4R20053   4.899   0.080   2.787 -0.2255 -0.3884  0.8552
  176SAPS   H4S20054   4.737   0.101   2.849 -0.4132  1.1790 -1.6060
  176SAPS   C2520055   4.901   0.205   2.957 -0.3005  0.1383 -0.4722
  176SAPS   H5R20056   4.993   0.264   2.945 -0.4099  0.1713 -1.1784
  176SAPS   C2620057   4.872   0.195   3.084  0.1090  0.1879 -0.3021
  176SAPS   H6R20058   4.946   0.240   3.151  2.3879 -2.9786 -0.4195
  176SAPS   C2720059   4.752   0.124   3.138 -0.2884 -0.5996  0.2888
  176SAPS   H7R20060   4.772   0.022   3.176  1.7526 -2.3271 -4.6315
  176SAPS   H7S20061   4.676   0.098   3.062 -3.1103  0.6523  2.4778
  176SAPS   C2820062   4.679   0.220   3.229  0.1126  0.2086 -0.2634
  176SAPS   H8R20063   4.600   0.277   3.179  0.0242 -0.3384 -0.7641
  176SAPS   C2920064   4.691   0.227   3.364 -0.2900 -0.1356  0.4736
  176SAPS   H9R20065   4.626   0.295   3.421 -1.1912 -0.9717  0.4597
  176SAPS  C21020066   4.779   0.138   3.451  0.4879  0.3777  0.6845
  176SAPS  H10R20067   4.879   0.185   3.455 -0.2609  2.1420 -0.3151
  176SAPS  H10S20068   4.798   0.040   3.404 -0.5651  0.8576 -0.8133
  176SAPS  C21120069   4.736   0.138   3.593 -0.2292  0.0276 -0.3381
  176SAPS  H11R20070   4.792   0.191   3.671 -0.7368 -1.6709  1.2608
  176SAPS  C21220071   4.632   0.063   3.639  0.5999  0.3546  0.2633
  176SAPS  H12R20072   4.611   0.078   3.746  0.8456 -0.1389  0.3819
  176SAPS  C21320073   4.530  -0.017   3.558 -0.5627 -0.2860  0.1770
  176SAPS  H13R20074   4.491  -0.096   3.625 -0.4653 -0.9413 -0.5175
  176SAPS  H13S20075   4.584  -0.074   3.479  1.4181  0.9591  0.5707
  176SAPS  C21420076   4.421   0.068   3.498  0.0518 -0.5345 -0.7953
  176SAPS  H14R20077   4.451   0.146   3.427  0.7875 -0.2435 -0.1793
  176SAPS  C21520078   4.288   0.060   3.525  0.3503  0.7590 -0.7187
  176SAPS  H15R20079   4.223   0.136   3.478  0.6977  1.4613 -0.0770
  176SAPS  C21620080   4.208  -0.041   3.611 -0.3004 -0.2069  0.3391
  176SAPS  H16R20081   4.171   0.012   3.701 -0.1106 -0.0816  0.3448
  176SAPS  H16S20082   4.280  -0.123   3.634 -1.3343 -1.0077  0.8078
  176SAPS  C21720083   4.092  -0.109   3.535 -0.7362 -0.1098  0.0809
  176SAPS  H17R20084   4.146  -0.200   3.503 -0.4767  0.2829 -0.6289
  176SAPS  H17S20085   4.060  -0.051   3.445 -2.3236  0.8699  1.2160
  176SAPS  C21820086   3.982  -0.139   3.636 -0.0384  0.1446 -0.1731
  176SAPS  H18R20087   3.885  -0.145   3.583 -0.2463  0.8583  0.1263
  176SAPS  H18S20088   3.980  -0.072   3.724  1.0429  1.0132 -0.7855
  176SAPS  C21920089   3.987  -0.282   3.700  0.1515  0.2292 -0.3353
  176SAPS  H19R20090   4.075  -0.293   3.767 -0.6586 -1.0277  0.5730
  176SAPS  H19S20091   3.986  -0.361   3.621 -0.5360 -0.6886  0.5734
  176SAPS  C22020092   3.855  -0.319   3.776  0.0117  0.2850 -0.1722
  176SAPS  H20R20093   3.776  -0.309   3.699 -0.2841  1.7420  0.2917
  176SAPS  H20S20094   3.846  -0.252   3.864 -1.8155  0.3554 -0.3725
  176SAPS  H20T20095   3.851  -0.426   3.807 -1.9924 -0.0194 -1.2830
  176SAPS   C3320096   5.619   0.502   2.932  0.0114 -0.4400 -0.0987
  176SAPS   H3X20097   5.560   0.594   2.915 -1.5492 -1.4368 -0.2856
  176SAPS   H3Y20098   5.706   0.506   2.863 -0.2005 -2.1599 -0.5350
  176SAPS   C3420099   5.659   0.496   3.076  0.4606 -0.0708 -0.0221
  176SAPS   H4X20100   5.719   0.587   3.095 -0.6205  0.7561 -0.4702
  176SAPS   H4Y20101   5.708   0.398   3.095 -1.1564 -0.7845  0.7230
  176SAPS   C3520102   5.543   0.508   3.170 -0.2752 -0.2415 -0.5737
  176SAPS   H5X20103   5.488   0.413   3.187  1.4807 -1.2391 -0.1833
  176SAPS   H5Y20104   5.465   0.571   3.123 -0.5125 -0.1452 -0.0509
  176SAPS   C3620105   5.582   0.552   3.315 -0.7865 -0.2339  0.6608
  176SAPS   H6X20106   5.633   0.651   3.311 -0.6627 -0.2728 -4.0004
  176SAPS   H6Y20107   5.652   0.488   3.371 -0.0534 -0.5576 -0.5899
  176SAPS   C3720108   5.457   0.582   3.400 -0.1903 -0.0064 -0.1337
  176SAPS   H7X20109   5.393   0.491   3.390  0.2483 -0.1313 -2.3378
  176SAPS   H7Y20110   5.385   0.664   3.380 -0.3261 -0.2784 -0.7931
  176SAPS   C3820111   5.503   0.596   3.546  0.1538  0.2157 -0.0161
  176SAPS   H8X20112   5.578   0.677   3.539  3.3293 -2.4306  0.8277
  176SAPS   H8Y20113   5.555   0.502   3.572  0.2226 -0.7008 -3.0869
  176SAPS   C3920114   5.387   0.638   3.630 -0.3904 -0.2929 -0.4900
  176SAPS   H9X20115   5.307   0.562   3.633  0.1889 -0.9972  4.2338
  176SAPS   H9Y20116   5.340   0.727   3.582  2.0388  0.5886 -1.3851
  176SAPS  C31020117   5.422   0.665   3.778 -0.2994 -0.5536  0.0245
  176SAPS  H10X20118   5.487   0.753   3.800  0.5532 -1.0618 -0.4147
  176SAPS  H10Y20119   5.494   0.583   3.799 -1.7814 -1.4848  1.8221
  176SAPS  C31120120   5.296   0.677   3.867  0.0616 -0.4154 -0.5436
  176SAPS  H11X20121   5.251   0.576   3.880 -0.7476  0.1246  1.2379
  176SAPS  H11Y20122   5.220   0.738   3.814 -1.2575 -2.0390 -0.5960
  176SAPS  C31220123   5.307   0.728   4.018 -0.1619  0.1777  0.5754
  176SAPS  H12X20124   5.209   0.777   4.037 -0.1803  1.9045 -3.0652
  176SAPS  H12Y20125   5.391   0.800   4.023 -3.0829  3.9608  0.0322
  176SAPS  C31320126   5.323   0.625   4.126  0.0170 -0.2034 -0.1339
  176SAPS  H13X20127   5.410   0.558   4.110 -1.1547 -1.1523 -3.0154
  176SAPS  H13Y20128   5.230   0.565   4.133  0.5820 -1.2016 -0.8988
  176SAPS  C31420129   5.337   0.698   4.262  0.0220  0.5574  0.0724
  176SAPS  H14X20130   5.398   0.791   4.253 -0.2210  0.6323 -0.8983
  176SAPS  H14Y20131   5.381   0.627   4.335  2.4761  0.3479 -1.4711
  176SAPS  C31520132   5.196   0.732   4.319 -0.0575  0.2403  0.1007
  176SAPS  H15X20133   5.129   0.647   4.296  0.8812 -0.1357 -1.3807
  176SAPS  H15Y20134   5.137   0.811   4.268 -1.2676 -0.5330  0.2709
  176SAPS  C31620135   5.207   0.766   4.472  0.0325  0.0080  0.5408
  176SAPS  H16X20136   5.254   0.867   4.473 -0.4342  0.3890 -2.9720
  176SAPS  H16Y20137   5.280   0.700   4.524  0.7554  0.3766  0.0056
  176SAPS  C31720138   5.074   0.769   4.546  0.2910 -0.1358 -0.1211
  176SAPS  H17X20139   5.087   0.754   4.656  0.2134  0.8020  0.0258
  176SAPS  H17Y20140   5.026   0.672   4.523 -1.0264  0.4799 -0.0291
  176SAPS  C31820141   4.978   0.886   4.523 -0.2726 -0.3960 -0.3498
  176SAPS  H18X20142   5.035   0.979   4.541 -0.8548  0.1217 -1.1332
  176SAPS  H18Y20143   4.884   0.883   4.583 -0.0968  1.7842  0.0972
  176SAPS  H18Z20144   4.954   0.880   4.415  0.7044  0.4985 -0.6316
  177SAPS     N20145   4.467   5.064   2.204 -0.4364  0.3057  0.2805
  177SAPS   HN120146   4.455   5.157   2.249 -0.1255  1.0054 -1.0276
  177SAPS   HN220147   4.379   5.049   2.152 -0.8004 -1.3517  1.2971
  177SAPS   HN320148   4.475   4.999   2.285 -4.3725  0.7353  1.2225
  177SAPS   C1220149   4.582   5.060   2.120 -0.1892  0.3174 -0.0105
  177SAPS  H12A20150   4.600   4.955   2.103 -0.6447 -0.3695  3.0373
  177SAPS   C1320151   4.571   5.138   1.989 -0.0435 -0.0001  0.2475
  177SAPS  O13A20152   4.460   5.190   1.949 -0.2015  0.4978 -0.4411
  177SAPS  O13B20153   4.677   5.143   1.912  0.1915  0.8151 -0.2341
  177SAPS   C1120154   4.703   5.118   2.191 -0.1838 -0.0985 -1.5450
  177SAPS  H11A20155   4.690   5.229   2.187  0.0091  0.1216  1.3675
  177SAPS  H11B20156   4.795   5.087   2.138  0.3781 -1.8009  0.2970
  177SAPS     P20157   4.824   5.134   2.423 -0.1966 -0.0689 -0.3317
  177SAPS   O1320158   4.944   5.066   2.383 -0.1113 -0.5149 -0.1378
  177SAPS   O1420159   4.831   5.281   2.435 -0.1748 -0.0522 -0.0613
  177SAPS   O1220160   4.704   5.086   2.334  0.0324 -0.2757  0.3360
  177SAPS   O1120161   4.775   5.086   2.565 -0.2780 -0.5251  0.1447
  177SAPS    C120162   4.663   5.164   2.611 -0.4732  0.1174  0.3060
  177SAPS    HA20163   4.683   5.273   2.622 -0.4774 -0.0347  2.3817
  177SAPS    HB20164   4.578   5.160   2.540 -0.7611  1.2020  0.5721
  177SAPS    C220165   4.621   5.120   2.751  0.6970 -0.5868 -0.4149
  177SAPS    HS20166   4.546   5.189   2.796  1.2370 -0.8028  0.8718
  177SAPS   O2120167   4.730   5.108   2.842  0.1846 -0.3122 -0.2199
  177SAPS   C2120168   4.786   5.222   2.889 -0.2072 -0.0847  0.5062
  177SAPS   O2220169   4.743   5.335   2.856  0.2257  0.6218 -0.0723
  177SAPS   C2220170   4.908   5.187   2.962  0.0920 -0.5294 -0.2054
  177SAPS   H2R20171   4.978   5.120   2.908  1.5327  0.9006 -0.2127
  177SAPS   H2S20172   4.967   5.281   2.975  2.4688 -1.4602 -3.1731
  177SAPS    C320173   4.557   4.979   2.733  0.0045 -0.4578 -0.5479
  177SAPS    HX20174   4.628   4.912   2.680  0.3530 -1.6737  1.3610
  177SAPS    HY20175   4.462   4.992   2.677  1.1479 -0.3087 -2.5574
  177SAPS   O3120176   4.519   4.923   2.858  0.3726 -0.1812  0.1847
  177SAPS   C3120177   4.610   4.856   2.925 -0.1511 -0.7498 -0.3428
  177SAPS   O3220178   4.720   4.832   2.884 -0.5255  0.0927  0.3231
  177SAPS   C3220179   4.549   4.809   3.054 -0.4395  0.0325  0.0015
  177SAPS   H2X20180   4.487   4.719   3.032  1.1202 -1.5484  1.7260
  177SAPS   H2Y20181   4.483   4.882   3.106 -0.3123  0.5948 -0.6110
  177SAPS   C2320182   4.871   5.140   3.102 -0.4358  0.0945  0.4216
  177SAPS   H3R20183   4.959   5.098   3.156 -0.9881  1.4295  2.4568
  177SAPS   H3S20184   4.801   5.054   3.103  2.0604 -2.1279 -1.2397
  177SAPS   C2420185   4.835   5.255   3.195  0.4528 -0.2488  0.0736
  177SAPS   H4R20186   4.785   5.336   3.138  0.8587 -0.9357 -1.3025
  177SAPS   H4S20187   4.924   5.306   3.238  1.7019 -1.3631 -1.0867
  177SAPS   C2520188   4.740   5.217   3.304 -0.0622 -0.3851  0.1203
  177SAPS   H5R20189   4.642   5.185   3.265 -0.3297 -0.0036  0.4779
  177SAPS   C2620190   4.777   5.205   3.431  0.1366 -0.2998 -0.0980
  177SAPS   H6R20191   4.706   5.162   3.503  1.9791  0.2861  2.1474
  177SAPS   C2720192   4.908   5.227   3.499 -0.6462  0.3468 -0.7237
  177SAPS   H7R20193   4.933   5.335   3.491  2.1664  0.2160  3.2585
  177SAPS   H7S20194   4.991   5.183   3.439  0.5806  1.3239  0.1877
  177SAPS   C2820195   4.911   5.177   3.643 -0.4415  0.4381 -0.4913
  177SAPS   H8R20196   4.909   5.067   3.652 -0.7827  0.4308 -0.6418
  177SAPS   C2920197   4.897   5.258   3.751 -0.0965  0.3686  0.2361
  177SAPS   H9R20198   4.875   5.218   3.850 -0.7227 -2.7895 -1.0635
  177SAPS  C21020199   4.892   5.407   3.751 -0.5114  0.4013 -0.0158
  177SAPS  H10R20200   4.967   5.444   3.678  0.5104 -0.3294  0.6314
  177SAPS  H10S20201   4.918   5.440   3.854  1.4916 -2.6281  0.5760
  177SAPS  C21120202   4.759   5.464   3.721 -0.4315 -0.6431  0.0365
  177SAPS  H11R20203   4.735   5.482   3.615  0.3632 -2.5019 -0.5106
  177SAPS  C21220204   4.657   5.469   3.809 -0.5085 -0.1228  0.7740
  177SAPS  H12R20205   4.557   5.502   3.776 -1.6729 -2.3581  1.8829
  177SAPS  C21320206   4.655   5.437   3.951 -0.4632 -0.1375  0.1794
  177SAPS  H13R20207   4.706   5.338   3.954 -2.3191 -1.1850 -0.5711
  177SAPS  H13S20208   4.547   5.414   3.965 -0.4527 -2.5353 -2.7299
  177SAPS  C21420209   4.714   5.537   4.043  0.5250 -0.2820 -0.7140
  177SAPS  H14R20210   4.800   5.589   3.997  1.3652 -0.4815  0.5687
  177SAPS  C21520211   4.665   5.569   4.168  0.4124  0.1536 -0.2431
  177SAPS  H15R20212   4.730   5.639   4.222 -1.0729 -0.4751  2.5361
  177SAPS  C21620213   4.550   5.512   4.246 -0.1929 -0.4782 -0.5014
  177SAPS  H16R20214   4.494   5.449   4.174 -4.2358  0.0016  1.8420
  177SAPS  H16S20215   4.484   5.597   4.276  0.7993  0.1125  0.0511
  177SAPS  C21720216   4.586   5.427   4.363 -0.5929  0.1118 -0.6625
  177SAPS  H17R20217   4.500   5.380   4.416  0.1998  1.0044  1.5334
  177SAPS  H17S20218   4.630   5.496   4.439 -0.0288  1.4840 -2.1752
  177SAPS  C21820219   4.694   5.320   4.340 -0.2492  0.4567 -0.4106
  177SAPS  H18R20220   4.783   5.385   4.327  0.0913 -0.0198 -0.4852
  177SAPS  H18S20221   4.684   5.266   4.243 -0.5993 -0.6178  0.2088
  177SAPS  C21920222   4.698   5.201   4.446 -0.3051 -0.3031 -0.5852
  177SAPS  H19R20223   4.754   5.112   4.409  2.5166  1.1071  0.0541
  177SAPS  H19S20224   4.592   5.172   4.464 -1.2544  2.6582 -0.8922
  177SAPS  C22020225   4.759   5.241   4.582  0.0742  0.2026  0.5929
  177SAPS  H20R20226   4.688   5.281   4.658  0.2844  1.3898  0.1881
  177SAPS  H20S20227   4.838   5.315   4.561 -1.3143  0.9448 -2.5947
  177SAPS  H20T20228   4.805   5.154   4.634 -2.4670 -1.6383 -0.0636
  177SAPS   C3320229   4.650   4.765   3.159  0.0186  0.1625  0.1583
  177SAPS   H3X20230   4.687   4.851   3.219 -3.3282  1.9873 -0.1172
  177SAPS   H3Y20231   4.739   4.715   3.116  0.3962  0.9243  0.0371
  177SAPS   C3420232   4.585   4.669   3.263  0.1654  0.3622 -0.2625
  177SAPS   H4X20233   4.528   4.591   3.208 -0.6178  1.1154 -0.5296
  177SAPS   H4Y20234   4.514   4.737   3.315 -0.0410 -0.8236  1.0630
  177SAPS   C3520235   4.682   4.596   3.353  0.3807 -0.6867  0.5717
  177SAPS   H5X20236   4.693   4.658   3.444  0.3474 -0.6863  0.5755
  177SAPS   H5Y20237   4.779   4.576   3.302  0.0087  1.4485 -1.1232
  177SAPS   C3620238   4.625   4.460   3.395  0.3180  0.5733 -0.3286
  177SAPS   H6X20239   4.635   4.391   3.309 -0.4124  0.7149 -0.5335
  177SAPS   H6Y20240   4.517   4.458   3.419 -0.2407  1.5900 -2.5327
  177SAPS   C3720241   4.705   4.389   3.508  0.3414 -0.6845  0.7228
  177SAPS   H7X20242   4.811   4.372   3.478  0.6559 -0.0838  1.4619
  177SAPS   H7Y20243   4.664   4.286   3.515 -0.4594 -0.4002  0.3266
  177SAPS   C3820244   4.678   4.468   3.635 -0.1239 -0.1188 -0.4230
  177SAPS   H8X20245   4.570   4.470   3.662 -0.3556  2.3830 -1.2222
  177SAPS   H8Y20246   4.710   4.575   3.635  0.2511 -0.2292 -0.0516
  177SAPS   C3920247   4.750   4.407   3.754 -0.1462  0.3706  0.1962
  177SAPS   H9X20248   4.861   4.410   3.744 -0.0036  0.5093  1.5750
  177SAPS   H9Y20249   4.730   4.298   3.761  2.2059 -0.0491  1.2128
  177SAPS  C31020250   4.726   4.482   3.884  1.2955 -0.1573  0.8025
  177SAPS  H10X20251   4.616   4.489   3.896  1.1995  0.7475 -0.4729
  177SAPS  H10Y20252   4.759   4.588   3.874 -1.6337  0.8024  0.2623
  177SAPS  C31120253   4.781   4.415   4.004  0.1480 -0.2569  0.3436
  177SAPS  H11X20254   4.889   4.400   3.984  0.1124 -0.4370  0.2925
  177SAPS  H11Y20255   4.745   4.312   4.023 -0.6783  0.1341  0.9687
  177SAPS  C31220256   4.768   4.498   4.131 -0.0781  0.3042 -0.1189
  177SAPS  H12X20257   4.661   4.529   4.133 -0.0244  0.4846 -0.0732
  177SAPS  H12Y20258   4.835   4.585   4.116 -1.3361  1.4900  0.9415
  177SAPS  C31320259   4.811   4.415   4.255  0.1611 -0.5478 -0.2343
  177SAPS  H13X20260   4.912   4.369   4.248  0.8680  0.9497 -0.4002
  177SAPS  H13Y20261   4.742   4.330   4.270 -0.1541 -0.1105  0.9080
  177SAPS  C31420262   4.806   4.489   4.391  0.8372 -0.3348 -0.7425
  177SAPS  H14X20263   4.896   4.552   4.410  0.6610 -0.5955  1.0986
  177SAPS  H14Y20264   4.804   4.408   4.466  0.4015 -0.4071 -0.8328
  177SAPS  C31520265   4.682   4.581   4.420 -0.2431 -0.0587  0.7346
  177SAPS  H15X20266   4.683   4.666   4.348  0.3833 -1.8040 -1.4044
  177SAPS  H15Y20267   4.685   4.614   4.526 -0.7539 -1.8667  1.3340
  177SAPS  C31620268   4.541   4.511   4.406 -0.3333 -0.4913 -0.2313
  177SAPS  H16X20269   4.529   4.477   4.301  0.5273 -1.3540 -0.0606
  177SAPS  H16Y20270   4.473   4.599   4.410  1.6007  1.0601 -0.0647
  177SAPS  C31720271   4.488   4.415   4.507  0.0688 -0.0431 -0.2575
  177SAPS  H17X20272   4.487   4.481   4.597 -0.1338  0.3826 -0.5690
  177SAPS  H17Y20273   4.551   4.326   4.524  0.3450  0.0423 -0.8424
  177SAPS  C31820274   4.342   4.365   4.485 -0.1609 -0.2638  0.1546
  177SAPS  H18X20275   4.345   4.289   4.404 -1.0294 -0.9860  0.7742
  177SAPS  H18Y20276   4.279   4.447   4.444  2.3648  0.6582 -2.0883
  177SAPS  H18Z20277   4.293   4.320   4.575 -0.1849 -1.6741 -0.5469
  178SAPS     N20278   0.467   5.713   2.143 -0.4847  0.6862 -0.2637
  178SAPS   HN120279   0.520   5.794   2.183  1.4343 -1.7999  2.6533
  178SAPS   HN220280   0.464   5.723   2.039 -2.0835 -0.7012 -0.3913
  178SAPS   HN320281   0.373   5.696   2.183 -0.0225  0.2097  0.6522
  178SAPS   C1220282   0.558   5.593   2.169 -0.0263 -0.2317  0.4854
  178SAPS  H12A20283   0.513   5.507   2.122  2.0764 -1.2545  0.1824
  178SAPS   C1320284   0.694   5.579   2.096  0.6302  0.2270  0.0290
  178SAPS  O13A20285   0.738   5.666   2.017  0.0905  0.3825 -0.4407
  178SAPS  O13B20286   0.763   5.484   2.138  0.2970  0.2563 -0.0069
  178SAPS   C1120287   0.588   5.597   2.324  0.2523  0.3924  0.1911
  178SAPS  H11A20288   0.649   5.685   2.354  0.8116  0.6064 -1.4535
  178SAPS  H11B20289   0.654   5.512   2.352 -0.3585  0.2968  1.3594
  178SAPS     P20290   0.400   5.692   2.494 -0.1991 -0.0912  0.2230
  178SAPS   O1320291   0.399   5.822   2.431  0.3487 -0.0655 -0.3400
  178SAPS   O1420292   0.267   5.642   2.541  0.1654 -0.0061  0.0385
  178SAPS   O1220293   0.469   5.587   2.402 -0.1122 -0.3330 -0.1359
  178SAPS   O1120294   0.503   5.710   2.615  0.1138 -0.6987  0.5810
  178SAPS    C120295   0.567   5.596   2.671 -0.2153  0.2698 -0.4178
  178SAPS    HA20296   0.549   5.495   2.627 -2.1591  0.2139  0.4123
  178SAPS    HB20297   0.676   5.597   2.650 -0.1029 -0.1673  0.1216
  178SAPS    C220298   0.550   5.585   2.824 -0.3057  0.2192 -0.8415
  178SAPS    HS20299   0.582   5.484   2.857 -3.3689 -0.7515 -0.5242
  178SAPS   O2120300   0.416   5.598   2.873  0.0880 -0.2142  0.0234
  178SAPS   C2120301   0.329   5.506   2.830  0.7813 -0.0142  0.4241
  178SAPS   O2220302   0.359   5.407   2.769 -0.0457 -0.3041 -0.1314
  178SAPS   C2220303   0.189   5.551   2.880  0.8071 -0.0725  0.3866
  178SAPS   H2R20304   0.207   5.639   2.945  0.8574 -0.5536  1.0472
  178SAPS   H2S20305   0.135   5.572   2.786  0.9587 -0.0423  0.3057
  178SAPS    C320306   0.628   5.690   2.913 -0.2354  0.0981 -0.7574
  178SAPS    HX20307   0.593   5.785   2.868 -1.5339  0.3727  0.7469
  178SAPS    HY20308   0.734   5.680   2.880  0.3914  1.7107  0.6346
  178SAPS   O3120309   0.609   5.682   3.063 -0.4923 -0.3044  0.4481
  178SAPS   C3120310   0.683   5.583   3.113  0.0870  0.4025  0.1199
  178SAPS   O3220311   0.758   5.510   3.052 -0.2182 -0.1142 -0.3171
  178SAPS   C3220312   0.661   5.591   3.264 -0.0212  0.2929 -0.5128
  178SAPS   H2X20313   0.568   5.649   3.278 -0.0351 -0.0545  0.9614
  178SAPS   H2Y20314   0.752   5.642   3.303  0.2316 -1.6456  1.6271
  178SAPS   C2320315   0.127   5.452   2.974  0.3616  0.2333  0.3098
  178SAPS   H3R20316   0.127   5.348   2.935  1.4616  0.6679 -0.9236
  178SAPS   H3S20317   0.019   5.478   2.981  0.4353  0.9655 -0.9040
  178SAPS   C2420318   0.196   5.437   3.112  0.6093 -0.7051 -0.1692
  178SAPS   H4R20319   0.175   5.534   3.161 -0.0324 -0.2953 -1.2103
  178SAPS   H4S20320   0.301   5.424   3.079  0.1784 -1.8493 -1.1805
  178SAPS   C2520321   0.156   5.317   3.192 -0.2799  0.3514  0.0331
  178SAPS   H5R20322   0.165   5.228   3.128  0.8506  0.3897  0.1139
  178SAPS   C2620323   0.111   5.310   3.317 -0.2832  0.0461  0.8540
  178SAPS   H6R20324   0.084   5.212   3.358  0.0933 -1.6172 -2.5523
  178SAPS   C2720325   0.081   5.416   3.424 -0.1599 -0.1161 -0.3681
  178SAPS   H7R20326   0.009   5.372   3.496  0.4355  0.4771  0.6056
  178SAPS   H7S20327   0.034   5.508   3.382  0.2710  0.4626  0.3925
  178SAPS   C2820328   0.204   5.452   3.513  0.3490 -0.3217  0.2345
  178SAPS   H8R20329   0.251   5.543   3.472  0.4555 -0.9446 -1.0542
  178SAPS   C2920330   0.266   5.392   3.614 -0.0529 -0.1956 -0.3518
  178SAPS   H9R20331   0.346   5.451   3.661  0.3224  0.0601 -1.2868
  178SAPS  C21020332   0.207   5.258   3.674 -0.0749 -0.4550 -0.6873
  178SAPS  H10R20333   0.289   5.192   3.708 -0.5118  0.2592  1.9760
  178SAPS  H10S20334   0.170   5.193   3.592  0.6806 -0.0406 -1.3713
  178SAPS  C21120335   0.099   5.276   3.776 -0.5670 -0.1031  0.4846
  178SAPS  H11R20336  -0.006   5.278   3.745 -0.3043 -1.0493 -0.5093
  178SAPS  C21220337   0.128   5.287   3.907 -0.4091 -0.8950 -0.5700
  178SAPS  H12R20338   0.044   5.281   3.977 -0.0307  0.3244  0.0323
  178SAPS  C21320339   0.271   5.301   3.967 -0.5539  1.0679 -0.0794
  178SAPS  H13R20340   0.351   5.296   3.890 -2.5815  4.4287 -2.6858
  178SAPS  H13S20341   0.299   5.216   4.033  1.9719  2.2949  0.5487
  178SAPS  C21420342   0.298   5.427   4.041  0.0979  0.1028  0.0995
  178SAPS  H14R20343   0.262   5.512   3.982  0.2001  1.1634  1.4930
  178SAPS  C21520344   0.352   5.450   4.157  0.0625 -0.5845 -0.2750
  178SAPS  H15R20345   0.361   5.556   4.185  2.4435 -0.1165 -2.4843
  178SAPS  C21620346   0.409   5.364   4.265  0.0505  0.2178 -0.4977
  178SAPS  H16R20347   0.511   5.397   4.292  0.0006  0.2900 -0.3965
  178SAPS  H16S20348   0.434   5.260   4.235  1.3616  0.6791 -1.0265
  178SAPS  C21720349   0.338   5.351   4.399  0.5091  0.1486  0.0605
  178SAPS  H17R20350   0.328   5.458   4.427  2.0060 -0.1782  2.1124
  178SAPS  H17S20351   0.405   5.293   4.466  0.4746 -0.1400 -0.1532
  178SAPS  C21820352   0.200   5.277   4.381 -0.1334 -0.1051 -0.3762
  178SAPS  H18R20353   0.198   5.171   4.350 -1.0933  0.0643 -0.9538
  178SAPS  H18S20354   0.145   5.323   4.296 -0.5596 -0.6178 -0.3848
  178SAPS  C21920355   0.102   5.293   4.505  0.3468  0.5632 -0.2559
  178SAPS  H19R20356   0.107   5.395   4.549  3.8365  0.8015 -0.8982
  178SAPS  H19S20357   0.149   5.229   4.583 -0.4498 -0.1321 -0.3327
  178SAPS  C22020358  -0.035   5.238   4.470 -0.0770  0.1062  0.3265
  178SAPS  H20R20359  -0.028   5.139   4.419 -2.1631 -1.5700  3.0196
  178SAPS  H20S20360  -0.102   5.307   4.414 -0.6618  1.3443  2.4440
  178SAPS  H20T20361  -0.088   5.226   4.566 -0.1898  3.5150  0.7960
  178SAPS   C3320362   0.642   5.446   3.330 -0.2780 -1.5228  0.0624
  178SAPS   H3X20363   0.720   5.381   3.284  0.2708  0.5343 -2.1042
  178SAPS   H3Y20364   0.551   5.406   3.278 -0.0715 -0.9886 -0.7384
  178SAPS   C3420365   0.648   5.465   3.484 -0.1560 -0.1619  0.0665
  178SAPS   H4X20366   0.561   5.529   3.511 -0.2157  0.8143 -2.2515
  178SAPS   H4Y20367   0.743   5.516   3.511  0.1335 -0.3762 -0.5300
  178SAPS   C3520368   0.634   5.336   3.574  0.3077  0.5023 -0.4978
  178SAPS   H5X20369   0.715   5.261   3.560  1.8567  1.8968  0.6429
  178SAPS   H5Y20370   0.539   5.296   3.532  1.2142  0.0075 -2.1946
  178SAPS   C3620371   0.618   5.372   3.725  0.0785  0.4052 -0.0810
  178SAPS   H6X20372   0.538   5.321   3.782  2.4698 -0.4309  2.8225
  178SAPS   H6Y20373   0.601   5.481   3.738 -1.2517  0.2289 -0.2766
  178SAPS   C3720374   0.749   5.337   3.798  0.0720  0.5375 -0.7875
  178SAPS   H7X20375   0.836   5.392   3.757  0.4994  0.2052 -0.3348
  178SAPS   H7Y20376   0.765   5.231   3.771  0.1920  0.6322 -1.0890
  178SAPS   C3820377   0.747   5.342   3.951 -0.0573  0.5437 -0.5886
  178SAPS   H8X20378   0.653   5.316   4.004  0.5842  1.0831  0.8656
  178SAPS   H8Y20379   0.763   5.446   3.986  1.7999 -0.4045  1.6464
  178SAPS   C3920380   0.847   5.244   4.005  0.1961  0.5124  0.4019
  178SAPS   H9X20381   0.941   5.268   3.951  0.7979 -0.2375  1.1000
  178SAPS   H9Y20382   0.818   5.141   3.977 -0.6051  0.5038  1.1949
  178SAPS  C31020383   0.877   5.258   4.155 -0.7138 -0.0876  0.1775
  178SAPS  H10X20384   0.794   5.212   4.213 -1.0431  1.6590  1.1775
  178SAPS  H10Y20385   0.863   5.363   4.189 -0.2554  0.4384 -1.2021
  178SAPS  C31120386   1.004   5.198   4.220  0.4764  0.4480  0.5238
  178SAPS  H11X20387   1.005   5.200   4.331 -1.0468 -1.7281  0.6423
  178SAPS  H11Y20388   1.088   5.261   4.185  1.8447 -0.8616  1.3465
  178SAPS  C31220389   1.033   5.051   4.175 -0.5463 -0.5725 -0.6873
  178SAPS  H12X20390   1.125   5.028   4.233  0.9484 -0.1209 -2.7621
  178SAPS  H12Y20391   1.078   5.046   4.073  0.5447 -2.4087 -0.1693
  178SAPS  C31320392   0.917   4.946   4.205  0.5401  0.1641  0.0126
  178SAPS  H13X20393   0.838   4.939   4.128  1.1501 -2.0291 -0.4916
  178SAPS  H13Y20394   0.880   4.977   4.305  0.1220  1.8625 -0.6488
  178SAPS  C31420395   0.978   4.802   4.227  0.0773  0.5111  0.2783
  178SAPS  H14X20396   1.063   4.812   4.297 -1.4313 -0.2750  2.3363
  178SAPS  H14Y20397   1.015   4.763   4.129 -0.2724  2.5993 -0.7331
  178SAPS  C31520398   0.897   4.694   4.298  0.2179 -0.6496  0.2695
  178SAPS  H15X20399   0.796   4.684   4.254  0.1004  0.0728  0.3509
  178SAPS  H15Y20400   0.882   4.738   4.399  0.5298 -0.0377  0.0586
  178SAPS  C31620401   0.965   4.565   4.290  0.2915  0.3412 -0.1895
  178SAPS  H16X20402   1.067   4.584   4.330  1.4630 -0.1479 -2.7530
  178SAPS  H16Y20403   0.973   4.522   4.188  1.8053 -0.0300  0.0570
  178SAPS  C31720404   0.887   4.458   4.378 -1.3100 -0.0666  0.2842
  178SAPS  H17X20405   0.807   4.414   4.314 -1.2493  1.2321 -0.7075
  178SAPS  H17Y20406   0.847   4.512   4.466  0.7385  0.0709  1.1834
  178SAPS  C31820407   0.973   4.347   4.431 -0.8065  0.2845  0.3539
  178SAPS  H18X20408   1.052   4.400   4.489  0.0932 -1.0367  0.3953
  178SAPS  H18Y20409   1.019   4.281   4.355 -2.7634 -0.5894 -0.1368
  178SAPS  H18Z20410   0.909   4.279   4.491  0.5548 -1.9076 -0.5494
  179SAPS     N20411   3.511   1.913   1.930 -0.0647  0.4461  0.5202
  179SAPS   HN120412   3.547   1.891   2.025 -1.7890 -0.4096  1.0212
  179SAPS   HN220413   3.538   2.010   1.904  1.7465 -0.1595 -0.0169
  179SAPS   HN320414   3.409   1.895   1.921  0.5180 -3.3789  0.0036
  179SAPS   C1220415   3.580   1.833   1.824 -0.4453  0.1285 -0.2057
  179SAPS  H12A20416   3.530   1.739   1.806  0.6512 -0.3228 -1.0285
  179SAPS   C1320417   3.590   1.919   1.696  0.0627  0.2201 -0.2845
  179SAPS  O13A20418   3.514   2.019   1.675  0.2281  0.4385 -0.5295
  179SAPS  O13B20419   3.659   1.866   1.602  0.3363 -0.1809 -0.3269
  179SAPS   C1120420   3.723   1.809   1.880 -0.4271  0.5218  0.0918
  179SAPS  H11A20421   3.766   1.905   1.914  2.0663 -0.2685 -0.6270
  179SAPS  H11B20422   3.792   1.770   1.803 -0.7232 -0.2288  0.1941
  179SAPS     P20423   3.728   1.565   2.008  0.0079 -0.4415  0.1885
  179SAPS   O1320424   3.692   1.504   1.879  0.0518  0.6118 -0.2251
  179SAPS   O1420425   3.860   1.528   2.062  0.7481 -0.4397  0.0839
  179SAPS   O1220426   3.709   1.720   2.001  0.4015 -0.0601  0.0828
  179SAPS   O1120427   3.614   1.521   2.110  0.0728  0.1210  0.3764
  179SAPS    C120428   3.491   1.597   2.120 -0.2636  0.2305  0.5255
  179SAPS    HA20429   3.481   1.685   2.053 -1.3765 -0.0631  0.2695
  179SAPS    HB20430   3.406   1.537   2.079 -1.9521  2.1911  0.9771
  179SAPS    C220431   3.453   1.625   2.263  0.4915 -0.0499 -0.4466
  179SAPS    HS20432   3.354   1.674   2.268  0.2638 -0.5875  0.5760
  179SAPS   O2120433   3.556   1.690   2.344  0.0679 -0.2169 -0.5183
  179SAPS   C2120434   3.613   1.793   2.279  0.2090 -0.0286 -0.7039
  179SAPS   O2220435   3.561   1.867   2.199  0.4484 -0.2581 -0.0240
  179SAPS   C2220436   3.753   1.822   2.346 -0.2269 -0.7409 -0.0278
  179SAPS   H2R20437   3.765   1.763   2.439  0.4644  1.2021  1.1950
  179SAPS   H2S20438   3.839   1.793   2.283 -0.1918 -0.8331  0.0635
  179SAPS    C320439   3.439   1.491   2.341  0.3251 -0.0987 -0.3069
  179SAPS    HX20440   3.544   1.455   2.343  0.2031 -0.4543 -0.1548
  179SAPS    HY20441   3.373   1.422   2.283 -0.7388 -0.0645  0.8049
  179SAPS   O3120442   3.373   1.506   2.468  0.4282  0.4034  0.2984
  179SAPS   C3120443   3.389   1.400   2.547  0.1544  0.0728 -0.2417
  179SAPS   O3220444   3.449   1.297   2.512 -0.0211  0.2388  0.0937
  179SAPS   C3220445   3.295   1.424   2.668  0.2307 -0.0172 -0.2996
  179SAPS   H2X20446   3.194   1.381   2.650 -1.2202  2.4122  1.3848
  179SAPS   H2Y20447   3.279   1.533   2.681  0.5180 -0.2462  2.8091
  179SAPS   C2320448   3.781   1.970   2.359 -0.0377  0.3540  0.5222
  179SAPS   H3R20449   3.760   2.009   2.257 -0.8119 -2.6652 -0.5866
  179SAPS   H3S20450   3.879   2.002   2.399  1.4852 -3.0299 -0.0923
  179SAPS   C2420451   3.680   2.058   2.442 -0.4992 -0.7717 -0.4203
  179SAPS   H4R20452   3.596   2.089   2.377 -1.0153  0.2529  0.6823
  179SAPS   H4S20453   3.735   2.154   2.456 -0.6455 -0.9474  1.7063
  179SAPS   C2520454   3.638   1.995   2.577 -0.2553  0.3505 -0.7068
  179SAPS   H5R20455   3.539   1.948   2.585  0.2049 -0.4156  0.9373
  179SAPS   C2620456   3.723   1.977   2.680  0.5849 -1.0772 -0.0182
  179SAPS   H6R20457   3.689   1.920   2.767 -0.0783  0.5771  0.8469
  179SAPS   C2720458   3.861   2.041   2.701  0.0628 -0.3580 -0.1120
  179SAPS   H7R20459   3.842   2.147   2.728 -1.4772 -0.2952 -1.2716
  179SAPS   H7S20460   3.915   2.042   2.603 -1.7039  0.3679 -1.1165
  179SAPS   C2820461   3.946   1.972   2.807  1.0151 -0.0706  0.4960
  179SAPS   H8R20462   4.026   1.911   2.761  1.3350 -0.1815  1.1806
  179SAPS   C2920463   3.937   1.976   2.940  0.2382  0.3223 -0.8003
  179SAPS   H9R20464   4.010   1.927   3.007  0.4778  1.9329  0.1831
  179SAPS  C21020465   3.838   2.058   3.013 -0.3698  0.7288  0.2765
  179SAPS  H10R20466   3.750   2.088   2.953  1.2402  1.3667 -1.8784
  179SAPS  H10S20467   3.892   2.153   3.033  2.1386 -0.4216 -0.6776
  179SAPS  C21120468   3.783   1.980   3.129  0.4300 -0.7809  0.0901
  179SAPS  H11R20469   3.695   1.922   3.098 -0.9265  2.2071 -2.1767
  179SAPS  C21220470   3.793   2.018   3.255  0.4187  0.0109  0.0064
  179SAPS  H12R20471   3.740   1.956   3.329 -1.0187  1.6667  0.4342
  179SAPS  C21320472   3.874   2.132   3.313 -0.2420  0.2982 -0.3972
  179SAPS  H13R20473   3.951   2.172   3.243 -0.3015  2.0536  0.4927
  179SAPS  H13S20474   3.926   2.074   3.392 -0.4357  0.5321 -0.0943
  179SAPS  C21420475   3.790   2.234   3.377 -0.2869  0.0532 -0.0543
  179SAPS  H14R20476   3.761   2.222   3.483  1.8156  1.6588  0.7814
  179SAPS  C21520477   3.752   2.348   3.315  0.8335 -1.3300 -0.6239
  179SAPS  H15R20478   3.693   2.426   3.365  1.2419  1.5281 -4.1309
  179SAPS  C21620479   3.780   2.401   3.177  0.1901 -0.4816  0.2463
  179SAPS  H16R20480   3.868   2.350   3.131  1.9220  1.8787  0.7896
  179SAPS  H16S20481   3.808   2.507   3.192  0.1845 -0.7506  2.5469
  179SAPS  C21720482   3.655   2.379   3.091 -0.5094 -0.5621 -0.2811
  179SAPS  H17R20483   3.567   2.423   3.142 -0.1453 -0.4401  0.2468
  179SAPS  H17S20484   3.626   2.271   3.089 -1.0478 -0.4212 -1.7333
  179SAPS  C21820485   3.660   2.454   2.959 -0.0020  0.4185  0.1764
  179SAPS  H18R20486   3.722   2.546   2.965  1.6141 -0.4888 -1.3184
  179SAPS  H18S20487   3.555   2.486   2.942 -0.7764 -0.5348  2.6685
  179SAPS  C21920488   3.707   2.369   2.840 -0.2644  0.3697 -0.1577
  179SAPS  H19R20489   3.644   2.277   2.841  0.9254 -0.4560  0.7401
  179SAPS  H19S20490   3.813   2.337   2.849 -1.1981 -3.0759 -0.0011
  179SAPS  C22020491   3.699   2.443   2.712 -0.0324  0.4448  0.8617
  179SAPS  H20R20492   3.774   2.523   2.702  0.2119  0.0469 -0.7834
  179SAPS  H20S20493   3.595   2.482   2.717  0.0384  0.9164 -0.7970
  179SAPS  H20T20494   3.692   2.378   2.622 -1.4262  1.0419  0.5035
  179SAPS   C3320495   3.367   1.386   2.799 -0.0922 -0.1051  0.1294
  179SAPS   H3X20496   3.463   1.440   2.812 -0.7158  1.0367  0.1232
  179SAPS   H3Y20497   3.388   1.277   2.801  2.2707  0.2586 -1.6336
  179SAPS   C3420498   3.279   1.414   2.924 -0.3384 -0.2580  0.2547
  179SAPS   H4X20499   3.226   1.318   2.945 -2.6826  0.6612 -1.0736
  179SAPS   H4Y20500   3.216   1.500   2.892 -1.6525 -1.4644 -0.5224
  179SAPS   C3520501   3.354   1.445   3.056 -0.4732 -0.4061 -0.0240
  179SAPS   H5X20502   3.417   1.536   3.043  0.1262 -0.8508 -0.2748
  179SAPS   H5Y20503   3.423   1.362   3.079 -1.7420 -1.9697 -1.5863
  179SAPS   C3620504   3.246   1.471   3.161 -0.9169 -0.0036 -0.2921
  179SAPS   H6X20505   3.162   1.399   3.152 -1.1266 -0.0722  1.6918
  179SAPS   H6Y20506   3.213   1.575   3.139  1.2413  0.4689 -1.6368
  179SAPS   C3720507   3.298   1.467   3.306 -0.1881 -0.3084 -0.3096
  179SAPS   H7X20508   3.362   1.556   3.321 -0.0411 -0.8709  3.0561
  179SAPS   H7Y20509   3.361   1.375   3.310 -2.0200 -1.6039  0.4871
  179SAPS   C3820510   3.188   1.474   3.409 -0.2266  0.2808 -0.7242
  179SAPS   H8X20511   3.106   1.404   3.384  1.6110 -2.6193  0.7212
  179SAPS   H8Y20512   3.163   1.578   3.437  0.6306  0.2003  0.4121
  179SAPS   C3920513   3.240   1.420   3.539 -0.0682 -0.4077 -0.1260
  179SAPS   H9X20514   3.324   1.491   3.556 -1.6360  1.1937  1.2662
  179SAPS   H9Y20515   3.269   1.313   3.547  3.8318  0.6007  2.3067
  179SAPS  C31020516   3.153   1.445   3.661  0.5634 -0.6602  0.1818
  179SAPS  H10X20517   3.055   1.393   3.655 -0.5158  1.3029  0.0577
  179SAPS  H10Y20518   3.133   1.554   3.670 -1.4334 -0.8261 -1.6785
  179SAPS  C31120519   3.221   1.414   3.794 -0.4019 -0.5936  0.0152
  179SAPS  H11X20520   3.321   1.461   3.795 -0.9701  0.7637  2.5020
  179SAPS  H11Y20521   3.223   1.303   3.787  0.2884 -0.6298  0.7048
  179SAPS  C31220522   3.148   1.459   3.919 -0.9246 -0.0423 -0.2218
  179SAPS  H12X20523   3.155   1.569   3.933 -1.6954 -0.2238  2.0365
  179SAPS  H12Y20524   3.201   1.407   4.002  0.6625  0.8183 -0.6583
  179SAPS  C31320525   2.998   1.421   3.931 -0.6381 -0.7157  0.1759
  179SAPS  H13X20526   2.985   1.311   3.931 -0.7717 -0.7047 -0.9854
  179SAPS  H13Y20527   2.937   1.469   3.852 -0.4600  0.9898  1.0081
  179SAPS  C31420528   2.940   1.478   4.065 -0.0075  0.5673  0.1677
  179SAPS  H14X20529   2.938   1.587   4.045  1.5565  0.3266 -1.6333
  179SAPS  H14Y20530   3.009   1.435   4.141  0.5608 -1.1852 -1.2636
  179SAPS  C31520531   2.796   1.430   4.090  0.2498  0.3617  0.3793
  179SAPS  H15X20532   2.807   1.320   4.103  2.0294  0.4280 -0.2100
  179SAPS  H15Y20533   2.737   1.442   3.997  2.3753  0.3040 -1.0415
  179SAPS  C31620534   2.723   1.504   4.193 -0.2357 -1.5170  0.1073
  179SAPS  H16X20535   2.615   1.479   4.192 -0.7528  0.5010  0.0160
  179SAPS  H16Y20536   2.735   1.612   4.167  2.7953 -1.8876 -0.4633
  179SAPS  C31720537   2.776   1.493   4.340  0.0936 -0.9260  0.6556
  179SAPS  H17X20538   2.867   1.556   4.333 -0.2623 -0.1042  2.5456
  179SAPS  H17Y20539   2.794   1.387   4.368 -1.1719 -1.3935 -0.2100
  179SAPS  C31820540   2.681   1.558   4.439  0.5235 -0.0348 -0.5611
  179SAPS  H18X20541   2.725   1.560   4.541  1.0283  1.1922 -0.7862
  179SAPS  H18Y20542   2.593   1.490   4.443  0.4020  0.0670 -1.3358
  179SAPS  H18Z20543   2.648   1.660   4.410  0.1028 -0.9546 -3.6675
  180SAPS     N20544   3.044   2.040   1.935  0.2176 -0.0903  0.1472
  180SAPS   HN120545   3.009   2.106   2.006  0.9433 -1.2181  1.6072
  180SAPS   HN220546   3.092   1.965   1.989  2.2889  0.3998 -0.9042
  180SAPS   HN320547   3.119   2.083   1.877  1.1626  0.5385  1.7867
  180SAPS   C1220548   2.935   1.983   1.850 -0.5946  0.1190  0.1564
  180SAPS  H12A20549   2.847   1.970   1.911 -0.5111 -2.0935 -0.1063
  180SAPS   C1320550   2.893   2.062   1.727  0.7638  0.1659  0.1183
  180SAPS  O13A20551   2.936   2.180   1.715 -0.4064 -0.4767  0.0915
  180SAPS  O13B20552   2.792   2.021   1.660  0.1770 -0.6156 -0.1035
  180SAPS   C1120553   2.976   1.839   1.799  0.2479 -0.6784  0.1920
  180SAPS  H11A20554   3.043   1.838   1.711  1.2760  1.3216  0.8948
  180SAPS  H11B20555   2.886   1.788   1.760  1.2627  0.1661 -3.6352
  180SAPS     P20556   3.179   1.729   1.920 -0.2611 -0.0099 -0.4322
  180SAPS   O1320557   3.221   1.649   1.804 -1.4307 -0.2180 -0.0822
  180SAPS   O1420558   3.245   1.856   1.956 -0.0268 -0.3679  0.0507
  180SAPS   O1220559   3.031   1.755   1.904 -0.3559  0.1779  0.6135
  180SAPS   O1120560   3.189   1.635   2.045  0.5278  0.0410  0.5247
  180SAPS    C120561   3.078   1.561   2.103  0.5541 -0.3997 -0.0491
  180SAPS    HA20562   3.010   1.525   2.023  0.7633  0.5044 -0.6450
  180SAPS    HB20563   3.125   1.473   2.153  0.3094 -1.0929 -1.0211
  180SAPS    C220564   3.009   1.648   2.208  0.4939  0.4390  0.0848
  180SAPS    HS20565   2.947   1.725   2.157  0.0975  2.4602  3.3333
  180SAPS   O2120566   3.112   1.702   2.293  0.1799  0.1144 -0.2518
  180SAPS   C2120567   3.125   1.831   2.289 -0.0599 -0.2738  0.4348
  180SAPS   O2220568   3.071   1.902   2.206  0.0520 -0.4521 -0.3420
  180SAPS   C2220569   3.206   1.892   2.398  0.3427 -0.2244 -0.7134
  180SAPS   H2R20570   3.313   1.877   2.372  0.6819 -1.7577  1.3244
  180SAPS   H2S20571   3.175   1.998   2.411 -0.6342 -0.5154 -0.6130
  180SAPS    C320572   2.908   1.557   2.295 -0.3331  0.0110 -0.0863
  180SAPS    HX20573   2.981   1.497   2.353  0.1740  1.7503  1.1326
  180SAPS    HY20574   2.849   1.491   2.228 -1.7701  0.8086  0.3560
  180SAPS   O3120575   2.823   1.639   2.374  0.6349 -0.0206  0.0620
  180SAPS   C3120576   2.782   1.589   2.490 -0.7543  0.4408 -0.0987
  180SAPS   O3220577   2.819   1.483   2.536  0.3181  0.0196 -0.0956
  180SAPS   C3220578   2.694   1.691   2.563 -0.2766  0.4763  0.6948
  180SAPS   H2X20579   2.598   1.641   2.590 -0.7747  0.7035 -0.5865
  180SAPS   H2Y20580   2.665   1.768   2.488  1.0255  1.2925  0.9895
  180SAPS   C2320581   3.178   1.810   2.530 -0.5303  0.3882  0.2832
  180SAPS   H3R20582   3.242   1.719   2.534 -0.2918  0.5408 -0.0124
  180SAPS   H3S20583   3.074   1.772   2.541  0.6591 -2.4159  3.2278
  180SAPS   C2420584   3.209   1.883   2.659 -1.3020  0.4278 -0.3610
  180SAPS   H4R20585   3.149   1.977   2.659 -0.4110  1.0798  2.1581
  180SAPS   H4S20586   3.315   1.916   2.660 -0.5851 -1.7037 -0.9468
  180SAPS   C2520587   3.170   1.811   2.787 -0.0521 -0.5042 -0.2717
  180SAPS   H5R20588   3.072   1.761   2.776  0.4516 -1.1284 -2.6348
  180SAPS   C2620589   3.243   1.783   2.897  0.3323  0.6373  0.8730
  180SAPS   H6R20590   3.197   1.732   2.983 -0.5785 -1.4386 -0.7609
  180SAPS   C2720591   3.386   1.826   2.912  0.1570  0.0581 -0.2312
  180SAPS   H7R20592   3.425   1.826   2.808 -3.0454  1.8675 -1.5865
  180SAPS   H7S20593   3.449   1.746   2.957  1.7510  1.0656 -0.6100
  180SAPS   C2820594   3.418   1.956   2.981 -0.6375 -0.1044 -0.5798
  180SAPS   H8R20595   3.455   2.034   2.913  1.0556 -1.1620 -0.9250
  180SAPS   C2920596   3.405   1.987   3.111  0.1904 -0.3399  0.4003
  180SAPS   H9R20597   3.447   2.085   3.137 -0.1182  0.9051 -3.2358
  180SAPS  C21020598   3.361   1.900   3.227 -0.0907 -0.0577 -0.3561
  180SAPS  H10R20599   3.436   1.906   3.309 -0.9774 -1.0948  0.5608
  180SAPS  H10S20600   3.358   1.794   3.195  0.7612  0.6390 -3.0577
  180SAPS  C21120601   3.230   1.956   3.282 -0.7862 -0.0230  0.3274
  180SAPS  H11R20602   3.149   1.992   3.217 -1.7326  0.2043  1.5884
  180SAPS  C21220603   3.187   1.936   3.411 -0.8585  0.1341  0.3847
  180SAPS  H12R20604   3.090   1.979   3.440 -0.9247  0.2283  0.0385
  180SAPS  C21320605   3.271   1.880   3.528  0.2158 -0.6570  0.1256
  180SAPS  H13R20606   3.327   1.787   3.503  0.4780 -0.9215  1.6134
  180SAPS  H13S20607   3.200   1.846   3.606  0.9980  0.0966  1.1912
  180SAPS  C21420608   3.369   1.985   3.576  0.4344  0.0807  0.2487
  180SAPS  H14R20609   3.453   2.009   3.509 -0.2964  2.3901  0.0830
  180SAPS  C21520610   3.360   2.057   3.689  1.4172 -0.1575 -1.0926
  180SAPS  H15R20611   3.432   2.136   3.716 -0.1275  0.5536  1.2424
  180SAPS  C21620612   3.248   2.038   3.792  0.1320 -0.4717 -0.9145
  180SAPS  H16R20613   3.144   2.025   3.755 -0.8556  1.4730  0.9314
  180SAPS  H16S20614   3.244   2.134   3.848 -0.6740 -0.7670 -0.4627
  180SAPS  C21720615   3.282   1.925   3.888  0.3037 -0.3001 -0.6750
  180SAPS  H17R20616   3.389   1.928   3.920  0.4202 -2.8984 -0.5875
  180SAPS  H17S20617   3.278   1.823   3.845 -1.0825 -0.7118  0.3413
  180SAPS  C21820618   3.189   1.918   4.012 -0.1399  0.1705 -0.2430
  180SAPS  H18R20619   3.212   2.009   4.071 -1.1717  0.0174  0.4094
  180SAPS  H18S20620   3.232   1.835   4.074  0.0156  1.5850  1.6534
  180SAPS  C21920621   3.041   1.902   3.995  0.1988  0.2645 -0.6514
  180SAPS  H19R20622   3.024   1.826   3.916  1.7963  0.9537 -1.7097
  180SAPS  H19S20623   2.978   1.982   3.950 -1.4215 -1.0078 -0.7538
  180SAPS  C22020624   2.982   1.861   4.132 -0.3956 -0.1439 -0.4027
  180SAPS  H20R20625   3.041   1.785   4.187 -1.1904 -1.5009 -1.3755
  180SAPS  H20S20626   2.978   1.952   4.196 -1.4437  0.0098 -0.6607
  180SAPS  H20T20627   2.877   1.825   4.126 -0.0915 -0.8385 -1.8671
  180SAPS   C3320628   2.758   1.754   2.688 -0.2152 -0.0155  0.7332
  180SAPS   H3X20629   2.701   1.844   2.720  0.2372  1.7066 -2.8804
  180SAPS   H3Y20630   2.859   1.783   2.654 -0.9389  1.3996 -0.3038
  180SAPS   C3420631   2.758   1.653   2.803 -0.4382 -0.4380 -0.2978
  180SAPS   H4X20632   2.828   1.568   2.795 -0.9271 -0.7657 -1.2656
  180SAPS   H4Y20633   2.656   1.610   2.808 -0.6394 -0.0520 -0.8797
  180SAPS   C3520634   2.796   1.731   2.928  0.1562 -0.4192 -0.2430
  180SAPS   H5X20635   2.714   1.802   2.953  0.5584 -0.0617  0.0835
  180SAPS   H5Y20636   2.896   1.778   2.911  2.2135 -3.6456  1.7136
  180SAPS   C3620637   2.814   1.645   3.050  0.4358 -0.1504  0.5027
  180SAPS   H6X20638   2.903   1.579   3.039 -0.4310 -1.1280 -0.9893
  180SAPS   H6Y20639   2.726   1.577   3.062  0.4183 -0.0249  1.1455
  180SAPS   C3720640   2.832   1.725   3.178 -0.1170  0.6324  0.7612
  180SAPS   H7X20641   2.748   1.798   3.186 -2.1097 -1.6218  1.3580
  180SAPS   H7Y20642   2.925   1.787   3.182 -0.3314  0.9376  0.9786
  180SAPS   C3820643   2.832   1.644   3.304 -0.0803  0.1206 -0.3001
  180SAPS   H8X20644   2.920   1.576   3.311 -0.8001 -0.7470  0.8850
  180SAPS   H8Y20645   2.731   1.601   3.324 -1.8336  3.2144 -1.9088
  180SAPS   C3920646   2.856   1.741   3.428 -0.0238  0.2828 -0.7609
  180SAPS   H9X20647   2.770   1.809   3.447  0.0698  0.0415  0.6213
  180SAPS   H9Y20648   2.943   1.801   3.396  1.0470  0.0844  1.5691
  180SAPS  C31020649   2.884   1.668   3.565  1.0886 -0.4709  0.7800
  180SAPS  H10X20650   2.965   1.594   3.550  1.0237 -0.1476 -1.6394
  180SAPS  H10Y20651   2.797   1.603   3.590 -0.8829  1.9714  0.7383
  180SAPS  C31120652   2.900   1.755   3.691  0.7117 -0.1480  0.1219
  180SAPS  H11X20653   2.998   1.808   3.686  0.2039  1.0744  1.8372
  180SAPS  H11Y20654   2.912   1.686   3.778 -0.2521  0.2113  0.5579
  180SAPS  C31220655   2.792   1.853   3.735  0.8830 -0.5118  0.1850
  180SAPS  H12X20656   2.770   1.911   3.643 -0.0937 -2.0707 -0.6107
  180SAPS  H12Y20657   2.835   1.923   3.810  2.1511  0.0469 -1.0271
  180SAPS  C31320658   2.671   1.776   3.799 -0.4259 -0.0034 -0.0703
  180SAPS  H13X20659   2.699   1.705   3.880 -0.4424 -0.6706 -0.6462
  180SAPS  H13Y20660   2.627   1.703   3.728 -1.2500 -0.6880  1.1034
  180SAPS  C31420661   2.564   1.870   3.863  0.2872  0.2985 -0.0972
  180SAPS  H14X20662   2.523   1.926   3.776 -1.3825 -3.6701 -2.0779
  180SAPS  H14Y20663   2.616   1.948   3.923 -1.1265  1.2242 -0.0296
  180SAPS  C31520664   2.446   1.802   3.945 -0.3197  0.0942 -0.1105
  180SAPS  H15X20665   2.412   1.708   3.896 -0.9019 -0.9959  2.2623
  180SAPS  H15Y20666   2.369   1.881   3.954 -2.8866 -2.0920 -1.3656
  180SAPS  C31620667   2.484   1.766   4.083  0.4781  0.5387 -0.2056
  180SAPS  H16X20668   2.575   1.816   4.122  0.9943  0.6725 -1.5362
  180SAPS  H16Y20669   2.508   1.658   4.069 -0.9742 -0.0513  1.4480
  180SAPS  C31720670   2.370   1.795   4.177 -0.5099  0.3873 -0.0117
  180SAPS  H17X20671   2.273   1.769   4.129  0.8050 -2.1142 -1.5632
  180SAPS  H17Y20672   2.365   1.899   4.214 -0.6804  0.6227 -0.6754
  180SAPS  C31820673   2.363   1.704   4.295 -0.0309 -0.5559 -0.5507
  180SAPS  H18X20674   2.394   1.600   4.270  0.4462 -0.1649 -1.6681
  180SAPS  H18Y20675   2.259   1.680   4.327 -0.5856  2.6352  0.3564
  180SAPS  H18Z20676   2.424   1.737   4.381  0.5600 -0.6436 -0.9293
  181POPC     N20677   1.794   0.913   7.127  0.2769 -0.8137  0.1530
  181POPC   C1220678   1.720   1.022   7.054  0.0930 -0.4577 -0.5548
  181POPC  H12A20679   1.683   1.097   7.122  2.6155 -1.2725  1.9281
  181POPC  H12B20680   1.635   0.976   7.006  0.1137 -0.2178 -0.8303
  181POPC   C1320681   1.918   0.980   7.183  0.0410 -0.1254  0.3106
  181POPC  H13A20682   1.883   1.074   7.222 -1.5467 -0.5897  0.0971
  181POPC  H13B20683   1.951   0.923   7.268  0.6907  0.7980  0.6895
  181POPC  H13C20684   1.986   1.004   7.102 -0.4782 -0.5287 -0.2552
  181POPC   C1420685   1.709   0.854   7.237 -0.1257 -0.3582  0.1933
  181POPC  H14A20686   1.693   0.925   7.317 -0.1785  0.2284 -0.3344
  181POPC  H14B20687   1.613   0.822   7.198  0.1117 -0.6971 -0.1202
  181POPC  H14C20688   1.758   0.769   7.281  0.3668  0.1174  0.5812
  181POPC   C1520689   1.827   0.796   7.039 -0.3662 -0.6406 -0.5705
  181POPC  H15A20690   1.731   0.747   7.037 -2.0860  2.4395 -0.3844
  181POPC  H15B20691   1.907   0.729   7.069  1.2897  0.8780 -1.3640
  181POPC  H15C20692   1.844   0.837   6.940 -1.7011 -0.8026 -0.8844
  181POPC   C1120693   1.797   1.089   6.944  0.1560  0.2774 -0.3586
  181POPC  H11A20694   1.895   1.134   6.966  0.5511 -0.9675  0.5360
  181POPC  H11B20695   1.732   1.176   6.918  1.3104  1.1671 -0.3168
  181POPC     P20696   1.681   0.971   6.739  0.3212  0.1855 -0.1097
  181POPC   O1320697   1.679   1.083   6.645  0.7357  0.7837  0.0112
  181POPC   O1420698   1.557   0.941   6.809  0.3104 -0.0137 -0.3578
  181POPC   O1220699   1.796   0.993   6.840 -0.1395  0.1611 -0.0172
  181POPC   O1120700   1.724   0.841   6.659  0.0493 -0.1295  0.2741
  181POPC    C120701   1.836   0.840   6.573 -0.6263  0.4069 -0.7699
  181POPC    HA20702   1.893   0.745   6.580  2.1259  2.0547  0.8287
  181POPC    HB20703   1.908   0.920   6.602  0.2587 -0.5252 -0.3284
  181POPC    C220704   1.799   0.867   6.424  0.0470  0.2998  0.4792
  181POPC    HS20705   1.757   0.971   6.424 -0.3194  0.1561  1.1842
  181POPC   O2120706   1.698   0.774   6.371  0.7021  0.6322 -0.2278
  181POPC   C2120707   1.611   0.815   6.277  0.6466 -0.1881 -0.4588
  181POPC   O2220708   1.606   0.934   6.243  0.5367  0.0009 -0.3660
  181POPC   C2220709   1.508   0.712   6.258 -0.3104  0.7164 -0.4768
  181POPC   H2R20710   1.412   0.740   6.209 -2.6106 -1.4199  2.4222
  181POPC   H2S20711   1.486   0.673   6.360  1.5836  1.8399  0.4107
  181POPC    C320712   1.929   0.866   6.330  0.0326  0.1112  0.2891
  181POPC    HX20713   1.977   0.770   6.358 -2.3565 -0.7566  1.7109
  181POPC    HY20714   2.004   0.942   6.359  0.1405  0.2065 -0.2314
  181POPC   O3120715   1.887   0.875   6.192  0.0435 -0.5899  0.3661
  181POPC   C3120716   1.867   1.000   6.151  0.0655  0.5957  0.2385
  181POPC   O3220717   1.872   1.097   6.220 -0.2388 -0.2677  0.0879
  181POPC   C3220718   1.828   0.988   6.000  0.0642  1.3523 -0.1644
  181POPC   H2X20719   1.738   0.924   6.010  1.7378 -1.3333 -1.2922
  181POPC   H2Y20720   1.899   0.929   5.939 -1.9073  0.9828 -2.2495
  181POPC   C2320721   1.558   0.585   6.183  0.4647 -0.0977 -0.3317
  181POPC   H3R20722   1.466   0.526   6.162  0.5706  0.3403 -2.2021
  181POPC   H3S20723   1.621   0.518   6.246 -0.7649  0.3742  1.4554
  181POPC   C2420724   1.625   0.618   6.043 -0.7937 -0.7514 -0.0106
  181POPC   H4R20725   1.657   0.520   6.003  2.3779  0.6084 -1.0609
  181POPC   H4S20726   1.720   0.673   6.035 -0.4233 -1.4140 -0.2373
  181POPC   C2520727   1.521   0.684   5.956  0.8527 -0.1978 -0.5505
  181POPC   H5R20728   1.517   0.794   5.969  0.4295  0.1365 -3.0308
  181POPC   H5S20729   1.421   0.636   5.967  1.4184 -0.9792  1.7746
  181POPC   C2620730   1.551   0.680   5.799 -0.6668  0.7889 -0.7033
  181POPC   H6R20731   1.452   0.696   5.750 -1.9240  1.3524  1.8541
  181POPC   H6S20732   1.579   0.581   5.757  0.0422  1.0434 -0.8401
  181POPC   C2720733   1.671   0.775   5.772 -0.2279 -0.0239  0.7407
  181POPC   H7R20734   1.747   0.748   5.848 -0.4139 -1.0328  0.5895
  181POPC   H7S20735   1.649   0.879   5.804 -2.1510 -0.5090  1.1199
  181POPC   C2820736   1.716   0.768   5.631 -0.0623 -0.7267 -0.0995
  181POPC   H8R20737   1.812   0.820   5.615 -1.4742  1.6027 -1.5989
  181POPC   H8S20738   1.641   0.824   5.572 -0.8902 -1.0183  0.6502
  181POPC   C2920739   1.752   0.637   5.570  0.0835  0.1649 -0.5083
  181POPC   H9120740   1.794   0.560   5.637  2.7686  1.2902 -0.7888
  181POPC  C21020741   1.732   0.601   5.441  0.3349 -0.6233 -0.5370
  181POPC  H10120742   1.784   0.511   5.406 -0.2908 -0.1435 -2.9109
  181POPC  C21120743   1.683   0.689   5.331 -0.0600 -0.2299 -0.2966
  181POPC  H11R20744   1.623   0.775   5.367 -1.0364 -0.7764 -0.5989
  181POPC  H11S20745   1.623   0.640   5.252  0.8202 -0.7958 -0.6276
  181POPC  C21220746   1.795   0.755   5.250 -0.2884 -0.7037 -0.0448
  181POPC  H12R20747   1.865   0.800   5.323  1.9813 -1.7019 -1.4680
  181POPC  H12S20748   1.765   0.825   5.170  0.5646  1.2469  1.2789
  181POPC  C21320749   1.875   0.653   5.158  0.1191  0.0780  0.4467
  181POPC  H13R20750   1.884   0.561   5.219  0.8022  0.4279  0.8810
  181POPC  H13S20751   1.972   0.703   5.136 -1.3272  2.9550  0.0090
  181POPC  C21420752   1.809   0.636   5.019 -1.0480 -0.2568 -0.0978
  181POPC  H14R20753   1.786   0.739   4.984 -2.5336 -1.3910 -2.7515
  181POPC  H14S20754   1.715   0.578   5.035 -0.5235 -0.5081  2.4816
  181POPC  C21520755   1.885   0.564   4.914 -0.4274  0.8120  0.4049
  181POPC  H15R20756   1.889   0.460   4.953  1.0229  1.5844  2.4691
  181POPC  H15S20757   1.989   0.601   4.902  0.8116 -1.3381  3.3503
  181POPC  C21620758   1.817   0.575   4.777  0.1472 -0.7465 -1.0209
  181POPC  H16R20759   1.806   0.674   4.728 -0.0646 -1.5359 -2.6597
  181POPC  H16S20760   1.717   0.527   4.786  0.4388 -0.9483  3.0317
  181POPC  C21720761   1.899   0.500   4.674  0.4040  0.7964  0.3580
  181POPC  H17R20762   1.931   0.399   4.707 -0.3018 -1.2873 -4.4442
  181POPC  H17S20763   1.995   0.554   4.660 -0.3983  1.6712 -2.3955
  181POPC  C21820764   1.836   0.491   4.538 -0.1243 -0.2664  0.0878
  181POPC  H18R20765   1.824   0.595   4.502 -0.5653  0.6112  2.5801
  181POPC  H18S20766   1.740   0.436   4.532 -0.9069  1.0081  0.6163
  181POPC  H18T20767   1.907   0.436   4.472  0.0990  0.7774 -0.5502
  181POPC   C3320768   1.794   1.126   5.948  0.0104 -0.2678  1.2150
  181POPC   H3X20769   1.739   1.183   6.025  1.3280  0.9531  1.2970
  181POPC   H3Y20770   1.741   1.127   5.850  0.8527 -1.8668  0.6952
  181POPC   C3420771   1.920   1.211   5.915  0.5497  0.5990  0.0252
  181POPC   H4X20772   1.996   1.205   5.996  1.2792 -0.5880 -0.7255
  181POPC   H4Y20773   1.885   1.317   5.908  2.0915  1.0215 -2.1517
  181POPC   C3520774   2.010   1.161   5.797 -0.1980 -0.1926  0.2337
  181POPC   H5X20775   2.065   1.071   5.834  1.2741  1.1319  1.3924
  181POPC   H5Y20776   2.088   1.237   5.778  1.1329 -1.8242 -1.2243
  181POPC   C3620777   1.939   1.119   5.669  0.1326 -1.1152  0.1640
  181POPC   H6X20778   1.868   1.036   5.689 -1.6836 -0.0083 -1.3394
  181POPC   H6Y20779   2.026   1.095   5.604 -0.1405 -1.0086 -0.2448
  181POPC   C3720780   1.852   1.229   5.603  0.4911  0.2840  0.1160
  181POPC   H7X20781   1.909   1.324   5.599 -0.1549  0.6600 -0.3482
  181POPC   H7Y20782   1.769   1.243   5.675  1.0524 -0.4400  0.9212
  181POPC   C3820783   1.795   1.185   5.465  0.2472 -0.4188  0.4451
  181POPC   H8X20784   1.706   1.248   5.444  1.2732  0.9380  0.1023
  181POPC   H8Y20785   1.748   1.084   5.469  0.2538 -0.3910  2.5190
  181POPC   C3920786   1.893   1.187   5.350  0.5718 -0.2867 -0.0825
  181POPC   H9X20787   1.979   1.119   5.365  1.4307  0.4910 -1.2292
  181POPC   H9Y20788   1.934   1.290   5.361  0.5969 -0.5503  3.7535
  181POPC  C31020789   1.823   1.173   5.212 -0.0739  0.4181  0.0828
  181POPC  H10X20790   1.726   1.226   5.226 -0.3522 -0.4894  1.8341
  181POPC  H10Y20791   1.806   1.065   5.192  0.2359  0.4676 -0.4769
  181POPC  C31120792   1.903   1.238   5.097  0.4285 -0.1508  0.2606
  181POPC  H11X20793   1.903   1.347   5.119 -0.6175  0.0716 -0.7357
  181POPC  H11Y20794   1.856   1.230   4.997 -0.1382 -0.5097  0.5455
  181POPC  C31220795   2.041   1.192   5.072  0.2525  0.4142 -0.2915
  181POPC  H12X20796   2.113   1.187   5.156  0.8451  0.4450 -0.7943
  181POPC  H12Y20797   2.094   1.259   5.002  2.2630  1.3186  1.9499
  181POPC  C31320798   2.029   1.049   5.008 -0.3683 -0.0838 -0.2520
  181POPC  H13X20799   1.934   0.997   5.033 -0.2205 -0.2755 -0.0905
  181POPC  H13Y20800   2.113   0.998   5.059 -1.2638  2.3306  4.1932
  181POPC  C31420801   2.048   1.058   4.856 -0.1689 -0.0581  0.4830
  181POPC  H14X20802   2.126   1.132   4.827 -0.0456  0.0412  1.0483
  181POPC  H14Y20803   1.949   1.083   4.812  0.5912 -0.4108 -1.5391
  181POPC  C31520804   2.084   0.924   4.792  1.0657  0.1880  0.1472
  181POPC  H15X20805   2.016   0.846   4.832  1.8233 -0.5116  0.1137
  181POPC  H15Y20806   2.188   0.911   4.830  0.6090 -1.4201  0.9327
  181POPC  C31620807   2.086   0.925   4.640  0.5110  0.1899 -0.7437
  181POPC  H16X20808   2.141   1.010   4.594 -0.4278  3.0037  2.9369
  181POPC  H16Y20809   1.982   0.913   4.603 -0.5730  1.6265  1.6502
  181POPC  H16Z20810   2.117   0.822   4.611 -0.7632 -0.1210 -1.0436
  182POPC     N20811   5.691   0.076   7.188  0.3778  0.1393  0.1334
  182POPC   C1220812   5.597  -0.048   7.166  0.1497  0.4194  0.3365
  182POPC  H12A20813   5.596  -0.076   7.061  1.0997 -1.6642  0.8324
  182POPC  H12B20814   5.499  -0.018   7.199  0.3328  0.5182  0.7869
  182POPC   C1320815   5.691   0.122   7.328 -0.2904  0.1987 -0.3038
  182POPC  H13A20816   5.596   0.145   7.374  0.7695  1.7783  1.2041
  182POPC  H13B20817   5.737   0.045   7.388  0.8654  0.6345 -0.6105
  182POPC  H13C20818   5.745   0.214   7.341 -2.7193  1.5468  0.9097
  182POPC   C1420819   5.833   0.056   7.149  0.0556 -0.1144 -0.1078
  182POPC  H14A20820   5.885  -0.025   7.198 -0.1459 -0.1227  0.0955
  182POPC  H14B20821   5.844   0.034   7.044 -2.6298  0.3844 -0.5719
  182POPC  H14C20822   5.890   0.144   7.176 -2.0172  0.6211  2.2722
  182POPC   C1520823   5.639   0.194   7.107  0.8717  0.2076  0.2941
  182POPC  H15A20824   5.621   0.174   7.002 -2.5138  2.3858  0.3057
  182POPC  H15B20825   5.712   0.274   7.095  2.6943 -1.3920  0.2902
  182POPC  H15C20826   5.551   0.243   7.145  0.1652  0.4193 -1.5231
  182POPC   C1120827   5.624  -0.175   7.239  0.2364  0.2091  0.2158
  182POPC  H11A20828   5.552  -0.259   7.229 -0.3100  0.6510  0.3738
  182POPC  H11B20829   5.611  -0.154   7.347 -2.3104 -3.0398  0.7198
  182POPC     P20830   5.781  -0.343   7.108  0.2065  0.1564  0.0006
  182POPC   O1320831   5.722  -0.465   7.169 -0.2272 -0.3163 -0.2555
  182POPC   O1420832   5.923  -0.350   7.071  0.2249  0.1550 -0.1868
  182POPC   O1220833   5.753  -0.224   7.205  0.1135 -0.7239  0.3931
  182POPC   O1120834   5.700  -0.297   6.975 -0.3280 -0.1388  0.2610
  182POPC    C120835   5.572  -0.341   6.936  0.2612  0.2465  0.2118
  182POPC    HA20836   5.510  -0.251   6.952 -2.1196 -1.0705 -1.1152
  182POPC    HB20837   5.542  -0.413   7.015  0.7639  2.1008  2.1840
  182POPC    C220838   5.561  -0.393   6.792  0.2483 -0.9813  0.1846
  182POPC    HS20839   5.625  -0.482   6.774  2.1245  0.6594 -1.9795
  182POPC   O2120840   5.591  -0.294   6.689 -0.5076 -0.4257 -0.6200
  182POPC   C2120841   5.721  -0.295   6.653 -0.1632 -0.1715  0.5527
  182POPC   O2220842   5.810  -0.362   6.700  0.1013 -0.2607 -0.0076
  182POPC   C2220843   5.724  -0.233   6.513 -0.2608  0.2899 -0.4688
  182POPC   H2R20844   5.829  -0.212   6.480 -0.0578 -2.0713 -1.5577
  182POPC   H2S20845   5.664  -0.140   6.504 -0.5695  0.0429 -0.9606
  182POPC    C320846   5.408  -0.424   6.767 -0.4045  0.6497  0.2792
  182POPC    HX20847   5.363  -0.324   6.786 -2.0179 -0.0534  0.4142
  182POPC    HY20848   5.370  -0.500   6.839 -0.4112 -1.8204 -2.1724
  182POPC   O3120849   5.391  -0.463   6.632  0.7100 -0.1143 -0.3470
  182POPC   C3120850   5.267  -0.453   6.581 -0.1471 -0.3858 -0.0201
  182POPC   O3220851   5.169  -0.424   6.644 -0.5058  0.1000  0.2448
  182POPC   C3220852   5.256  -0.500   6.431 -0.2054  0.5687 -0.2468
  182POPC   H2X20853   5.278  -0.609   6.436 -2.2949  0.1576  1.4870
  182POPC   H2Y20854   5.336  -0.440   6.383 -1.1316  3.0969  1.1671
  182POPC   C2320855   5.658  -0.338   6.419 -0.0875 -0.2678  0.1887
  182POPC   H3R20856   5.551  -0.347   6.444  0.1445  2.4949  2.6934
  182POPC   H3S20857   5.708  -0.438   6.423  0.4084 -0.0520 -0.4191
  182POPC   C2420858   5.657  -0.288   6.271  0.2587 -0.6051  0.6049
  182POPC   H4R20859   5.761  -0.285   6.230  0.3667 -2.4335  0.6528
  182POPC   H4S20860   5.618  -0.185   6.283 -0.2355 -0.7668  0.3954
  182POPC   C2520861   5.569  -0.373   6.182 -0.2340  0.4715  0.1339
  182POPC   H5R20862   5.482  -0.410   6.240  0.4175 -1.4809 -0.0528
  182POPC   H5S20863   5.622  -0.469   6.161 -2.2053 -1.3832  2.8902
  182POPC   C2620864   5.517  -0.309   6.050  0.1363 -0.5297  0.0844
  182POPC   H6R20865   5.493  -0.203   6.071 -1.5681 -0.6464 -1.0762
  182POPC   H6S20866   5.425  -0.364   6.021  0.3136 -3.8553  4.7516
  182POPC   C2720867   5.619  -0.296   5.929  0.0325  0.2885 -0.1593
  182POPC   H7R20868   5.661  -0.395   5.900 -0.5536 -1.0436  3.1832
  182POPC   H7S20869   5.696  -0.226   5.968 -1.9470  2.1555  0.6607
  182POPC   C2820870   5.560  -0.238   5.797 -0.6247 -0.8421 -0.0729
  182POPC   H8R20871   5.642  -0.216   5.726 -2.1225 -1.5751 -2.1259
  182POPC   H8S20872   5.523  -0.136   5.823  1.9826 -0.1026  1.0257
  182POPC   C2920873   5.451  -0.314   5.722  0.2437  0.2019 -0.0015
  182POPC   H9120874   5.398  -0.390   5.781  1.5442 -0.7698 -0.0403
  182POPC  C21020875   5.405  -0.302   5.593  0.0138  0.6213 -0.7271
  182POPC  H10120876   5.321  -0.367   5.560  0.2866 -0.3224  0.3667
  182POPC  C21120877   5.450  -0.205   5.486 -0.7831 -0.3915 -0.4721
  182POPC  H11R20878   5.552  -0.170   5.512 -1.2285  0.3309  0.3481
  182POPC  H11S20879   5.390  -0.114   5.504  1.1451  0.5179  1.9226
  182POPC  C21220880   5.453  -0.258   5.340  0.1604  0.0638  0.2067
  182POPC  H12R20881   5.430  -0.366   5.328 -0.1470  0.1922 -0.3640
  182POPC  H12S20882   5.560  -0.251   5.312  0.2761  2.5339  1.0732
  182POPC  C21320883   5.364  -0.185   5.236  0.9962 -0.1946 -0.2876
  182POPC  H13R20884   5.386  -0.077   5.228 -0.4996  0.1469 -0.1443
  182POPC  H13S20885   5.259  -0.202   5.269  0.5188  1.1042 -1.0760
  182POPC  C21420886   5.381  -0.236   5.096  0.2931  0.2265  0.5957
  182POPC  H14R20887   5.333  -0.336   5.081 -0.7289  0.9396 -1.2942
  182POPC  H14S20888   5.487  -0.234   5.063  0.3090  1.1396  0.6882
  182POPC  C21520889   5.330  -0.138   4.987  0.3065 -0.2366 -0.3004
  182POPC  H15R20890   5.379  -0.040   5.005  1.4430 -0.6148 -1.2291
  182POPC  H15S20891   5.220  -0.124   4.989  0.5127  1.5338  0.1265
  182POPC  C21620892   5.352  -0.194   4.848 -0.3879 -0.0354 -0.3872
  182POPC  H16R20893   5.290  -0.281   4.816 -0.4832  0.5709 -1.9185
  182POPC  H16S20894   5.456  -0.229   4.830 -0.3501 -1.3248  1.8914
  182POPC  C21720895   5.322  -0.091   4.728  0.0336 -0.3648 -0.3921
  182POPC  H17R20896   5.349  -0.156   4.642 -0.5519 -2.4165  0.8809
  182POPC  H17S20897   5.389  -0.003   4.740  2.8241 -2.4862  0.8030
  182POPC  C21820898   5.179  -0.029   4.711  0.0850  0.6191  0.0264
  182POPC  H18R20899   5.096  -0.102   4.708  1.0441 -0.4933 -0.1114
  182POPC  H18S20900   5.185   0.017   4.610 -0.8496  1.6391  0.4097
  182POPC  H18T20901   5.159   0.049   4.788  2.1518  0.5718  0.6811
  182POPC   C3320902   5.125  -0.461   6.360 -0.1923  0.5489 -0.3293
  182POPC   H3X20903   5.122  -0.350   6.369  1.8469  0.7548 -1.5214
  182POPC   H3Y20904   5.040  -0.507   6.414 -1.9567  2.8838 -0.9540
  182POPC   C3420905   5.134  -0.503   6.214  0.1653  0.2181 -0.1401
  182POPC   H4X20906   5.084  -0.599   6.189 -3.6894  1.6660  1.1651
  182POPC   H4Y20907   5.242  -0.521   6.198  0.1792 -0.2107  0.4096
  182POPC   C3520908   5.083  -0.398   6.111 -0.9561 -0.1183 -0.6993
  182POPC   H5X20909   5.135  -0.306   6.147 -0.7295  0.2263 -1.8700
  182POPC   H5Y20910   4.972  -0.390   6.111 -1.0826 -1.1126 -3.3405
  182POPC   C3620911   5.121  -0.446   5.972 -0.1894 -0.7848  0.7305
  182POPC   H6X20912   5.075  -0.546   5.974 -1.7825 -0.1328 -1.0327
  182POPC   H6Y20913   5.230  -0.468   5.966 -0.6330 -2.7473 -1.1021
  182POPC   C3720914   5.065  -0.360   5.861 -0.0205 -0.8229  0.0663
  182POPC   H7X20915   5.138  -0.280   5.835 -1.2119 -0.3864 -2.2796
  182POPC   H7Y20916   4.963  -0.322   5.884 -0.1721 -0.5084 -1.0551
  182POPC   C3820917   5.035  -0.443   5.734  0.0553  0.3273  0.2748
  182POPC   H8X20918   4.962  -0.526   5.748 -0.4925  0.8717  0.7183
  182POPC   H8Y20919   5.132  -0.485   5.700 -0.1802 -0.1409  0.1719
  182POPC   C3920920   4.983  -0.343   5.628 -0.3625 -0.2540  0.8262
  182POPC   H9X20921   5.051  -0.257   5.611  1.8042 -2.1699 -0.8093
  182POPC   H9Y20922   4.884  -0.314   5.668 -1.5023  0.5736 -2.3263
  182POPC  C31020923   4.965  -0.418   5.497 -0.1694  0.3241 -0.1497
  182POPC  H10X20924   4.901  -0.508   5.506  0.4757 -0.2774 -1.2402
  182POPC  H10Y20925   5.068  -0.457   5.482  0.1013  0.7507  0.5593
  182POPC  C31120926   4.926  -0.320   5.380  0.6896  0.8973  0.0617
  182POPC  H11X20927   4.996  -0.235   5.388  0.3987  1.3067 -1.4171
  182POPC  H11Y20928   4.818  -0.293   5.391 -0.3140 -2.9596  1.3487
  182POPC  C31220929   4.944  -0.379   5.244  0.2689 -0.0500  0.0721
  182POPC  H12X20930   4.864  -0.452   5.220 -0.6819  0.6127  1.1154
  182POPC  H12Y20931   5.034  -0.444   5.247  0.9169  0.8729  1.6721
  182POPC  C31320932   4.957  -0.266   5.144 -0.0586  0.1290 -0.9934
  182POPC  H13X20933   5.050  -0.212   5.170 -0.8970  0.4538  1.6115
  182POPC  H13Y20934   4.879  -0.189   5.158 -1.2412 -1.1927 -0.0646
  182POPC  C31420935   4.950  -0.313   4.992  0.3073  0.2018 -0.8029
  182POPC  H14X20936   4.990  -0.416   4.978 -2.5724 -1.6088  2.5823
  182POPC  H14Y20937   5.018  -0.242   4.941  1.5905 -0.7291 -0.4288
  182POPC  C31520938   4.810  -0.303   4.925  0.3355 -0.2684 -0.4995
  182POPC  H15X20939   4.767  -0.202   4.917  0.0276 -0.1601  1.7398
  182POPC  H15Y20940   4.742  -0.369   4.983  0.7823 -0.5800 -0.3193
  182POPC  C31620941   4.805  -0.365   4.783 -0.3732  0.0667 -0.1777
  182POPC  H16X20942   4.816  -0.475   4.795  2.6925  0.4710  2.0430
  182POPC  H16Y20943   4.895  -0.328   4.730  0.4882  0.2925  1.3876
  182POPC  H16Z20944   4.707  -0.332   4.743 -0.0599 -0.0891 -1.1134
  183POPC     N20945   0.505   5.780   7.044 -0.7968  0.4169 -0.0992
  183POPC   C1220946   0.419   5.658   7.067 -0.5489 -0.1090 -0.1916
  183POPC  H12A20947   0.330   5.702   7.109  0.2040  2.1005 -0.7650
  183POPC  H12B20948   0.470   5.599   7.142  0.1727  1.8218  0.9188
  183POPC   C1320949   0.626   5.745   6.959  0.4795 -0.8470  0.3107
  183POPC  H13A20950   0.700   5.682   7.007  1.4081  0.1154  0.1720
  183POPC  H13B20951   0.594   5.696   6.868  1.8916 -0.1890 -0.5721
  183POPC  H13C20952   0.685   5.833   6.938  0.2785 -0.0189  2.8762
  183POPC   C1420953   0.427   5.889   6.972  0.4098  0.0097 -0.0664
  183POPC  H14A20954   0.492   5.973   6.956 -1.4707  1.2837 -1.3846
  183POPC  H14B20955   0.404   5.851   6.874 -2.2608  0.0268  0.4683
  183POPC  H14C20956   0.340   5.916   7.029  2.2115  0.3309  2.7345
  183POPC   C1520957   0.558   5.834   7.171  0.0576 -0.7205 -0.0978
  183POPC  H15A20958   0.472   5.861   7.231  0.8854 -1.1189  1.3313
  183POPC  H15B20959   0.628   5.915   7.153 -1.1746  0.6972  1.1373
  183POPC  H15C20960   0.608   5.754   7.223 -0.4999 -0.9937  0.0295
  183POPC   C1120961   0.389   5.561   6.951  0.4855  0.8888 -0.1987
  183POPC  H11A20962   0.336   5.620   6.874  0.7343 -0.5150 -1.4804
  183POPC  H11B20963   0.306   5.491   6.977 -0.4982  1.5678 -1.4094
  183POPC     P20964   0.582   5.375   6.937  0.3083  0.3206  0.3344
  183POPC   O1320965   0.474   5.280   6.955 -0.0609  0.6457 -0.3850
  183POPC   O1420966   0.672   5.407   7.050 -0.9545  0.4979 -0.2637
  183POPC   O1220967   0.504   5.506   6.885 -0.2786  0.0262 -0.4522
  183POPC   O1120968   0.663   5.325   6.811  0.3489  0.0349 -0.4561
  183POPC    C120969   0.700   5.397   6.693 -0.3341  0.4866  0.6443
  183POPC    HA20970   0.807   5.381   6.667  0.1384  2.4633  1.2607
  183POPC    HB20971   0.690   5.506   6.708  2.4124  1.0523 -0.9570
  183POPC    C220972   0.624   5.350   6.572 -0.2286  0.3756 -0.2695
  183POPC    HS20973   0.657   5.407   6.483  2.5349  1.0751  1.0726
  183POPC   O2120974   0.482   5.346   6.592 -0.2122 -0.8786  0.0927
  183POPC   C2120975   0.426   5.464   6.588 -0.1587  0.1891  0.3402
  183POPC   O2220976   0.477   5.571   6.563 -1.1198 -0.3330  0.0606
  183POPC   C2220977   0.280   5.438   6.606  0.8324  0.6684  0.0594
  183POPC   H2R20978   0.258   5.413   6.712  1.8422  1.1783  0.4043
  183POPC   H2S20979   0.254   5.353   6.539 -0.2312  0.5563  0.5890
  183POPC    C320980   0.659   5.196   6.547 -0.2971  0.6931  0.2611
  183POPC    HX20981   0.622   5.141   6.636  1.2209 -1.3191 -0.2868
  183POPC    HY20982   0.769   5.190   6.539 -0.4257  0.9288 -2.5207
  183POPC   O3120983   0.594   5.155   6.420 -0.1144  0.0610  0.1027
  183POPC   C3120984   0.484   5.090   6.441  0.4474  0.3340 -0.2085
  183POPC   O3220985   0.410   5.076   6.537  0.2076  0.0030  0.2817
  183POPC   C3220986   0.459   5.018   6.300  0.2163  0.1860 -0.3632
  183POPC   H2X20987   0.390   4.931   6.313 -1.6987  1.3589 -2.0967
  183POPC   H2Y20988   0.555   4.977   6.263  0.0969  0.2423 -0.7402
  183POPC   C2320989   0.193   5.562   6.570  0.6167  0.7873  1.0249
  183POPC   H3R20990   0.234   5.654   6.616  0.5126  1.3852 -0.0435
  183POPC   H3S20991   0.085   5.557   6.596 -0.4946  1.3552 -2.8070
  183POPC   C2420992   0.196   5.599   6.419  0.6882  0.3676 -0.5036
  183POPC   H4R20993   0.292   5.636   6.378  1.0219  1.4852  1.1504
  183POPC   H4S20994   0.138   5.693   6.411  0.4753  0.4060  1.1509
  183POPC   C2520995   0.134   5.493   6.325 -0.1345 -0.5135  0.1544
  183POPC   H5R20996   0.032   5.472   6.364  0.3267 -0.5722  1.3717
  183POPC   H5S20997   0.182   5.394   6.336 -0.6598 -0.8333 -0.3850
  183POPC   C2620998   0.120   5.536   6.178 -0.6774 -0.1771  0.3342
  183POPC   H6R20999   0.219   5.563   6.136 -1.9896  2.3440 -1.3293
  183POPC   H6S21000   0.057   5.625   6.161 -1.2339 -0.6342 -0.0508
  183POPC   C2721001   0.079   5.425   6.084  0.8475  0.5718  0.6652
  183POPC   H7R21002  -0.025   5.402   6.117  0.3995  1.2637 -0.2296
  183POPC   H7S21003   0.136   5.333   6.112  1.1809 -0.2439 -2.2966
  183POPC   C2821004   0.090   5.456   5.930  0.0400 -0.2052  0.0939
  183POPC   H8R21005   0.099   5.359   5.878  0.4729 -0.0892 -0.0538
  183POPC   H8S21006   0.179   5.521   5.919 -2.3797  3.7129  1.5126
  183POPC   C2921007  -0.018   5.545   5.864 -0.2470 -0.8252 -0.1985
  183POPC   H9121008  -0.046   5.634   5.922  2.9737  0.1519  0.0467
  183POPC  C21021009  -0.071   5.534   5.741  0.2347  0.3243  0.4539
  183POPC  H10121010  -0.155   5.604   5.740 -0.5041 -0.4818  2.1911
  183POPC  C21121011  -0.038   5.435   5.625 -1.1682 -0.5060 -0.8196
  183POPC  H11R21012  -0.058   5.337   5.672  0.5255 -1.2296 -1.5440
  183POPC  H11S21013   0.070   5.431   5.602 -1.3358 -1.0217 -1.5438
  183POPC  C21221014  -0.112   5.457   5.488  0.0274  0.4308  0.0173
  183POPC  H12R21015  -0.111   5.565   5.462  0.8568  1.3674  3.4684
  183POPC  H12S21016  -0.222   5.444   5.501 -0.3673  1.4089 -2.0083
  183POPC  C21321017  -0.075   5.359   5.367 -0.1601  0.6348 -0.4505
  183POPC  H13R21018  -0.088   5.252   5.391  0.6240  0.6501  0.0667
  183POPC  H13S21019   0.031   5.359   5.335 -0.1100 -1.8557 -0.4865
  183POPC  C21421020  -0.153   5.393   5.247  0.2303  0.4953  0.5616
  183POPC  H14R21021  -0.125   5.497   5.219  2.4684 -0.3729 -0.7411
  183POPC  H14S21022  -0.255   5.373   5.285  1.1492 -3.6403  1.4220
  183POPC  C21521023  -0.132   5.304   5.125 -0.0031 -0.1475 -0.3980
  183POPC  H15R21024  -0.154   5.201   5.158  0.6262 -0.1204  0.1448
  183POPC  H15S21025  -0.030   5.304   5.080 -0.4446 -1.3300 -1.4624
  183POPC  C21621026  -0.230   5.326   5.007  0.0944  0.0585  0.4574
  183POPC  H16R21027  -0.331   5.307   5.050  0.2387 -0.3674  0.6144
  183POPC  H16S21028  -0.215   5.253   4.924 -0.8816  1.4668 -1.0221
  183POPC  C21721029  -0.225   5.464   4.947 -0.1086  0.2542 -0.2047
  183POPC  H17R21030  -0.211   5.532   5.033  0.3203 -0.9134  0.6810
  183POPC  H17S21031  -0.328   5.485   4.911 -0.8923 -0.2904  1.5856
  183POPC  C21821032  -0.118   5.482   4.839  0.4676 -0.4511  0.3568
  183POPC  H18R21033  -0.133   5.404   4.762 -0.2006 -0.9911  1.0110
  183POPC  H18S21034  -0.012   5.488   4.869  0.8259  1.9270 -1.1248
  183POPC  H18T21035  -0.129   5.583   4.794  1.9670 -1.4191 -2.3979
  183POPC   C3321036   0.399   5.117   6.194 -1.2969 -0.3693 -0.9904
  183POPC   H3X21037   0.448   5.216   6.200 -2.3371  0.1840 -1.2994
  183POPC   H3Y21038   0.296   5.126   6.235 -0.4694 -1.0472  1.4015
  183POPC   C3421039   0.398   5.060   6.049  0.2899 -0.4452 -0.1659
  183POPC   H4X21040   0.316   4.986   6.057  0.3541 -0.4375  0.6635
  183POPC   H4Y21041   0.495   5.008   6.032  0.8050 -0.3385  2.0425
  183POPC   C3521042   0.351   5.161   5.951  0.3988 -0.1098  0.7971
  183POPC   H5X21043   0.433   5.236   5.951 -1.0687  1.5797  1.7535
  183POPC   H5Y21044   0.263   5.219   5.984  0.7853 -0.2336  2.1018
  183POPC   C3621045   0.329   5.102   5.813 -0.3174  0.3331  0.2907
  183POPC   H6X21046   0.245   5.030   5.805  2.9072 -3.8282  0.4002
  183POPC   H6Y21047   0.398   5.016   5.798 -1.1532 -0.4089  0.5790
  183POPC   C3721048   0.342   5.202   5.697  0.1358 -0.1568 -0.3384
  183POPC   H7X21049   0.444   5.246   5.701  0.9120 -1.8989 -0.2070
  183POPC   H7Y21050   0.273   5.288   5.708  0.7606  0.3363 -0.2289
  183POPC   C3821051   0.280   5.142   5.571  0.7894 -0.7962  0.3162
  183POPC   H8X21052   0.254   5.217   5.494 -0.5917 -1.5812 -0.0173
  183POPC   H8Y21053   0.188   5.086   5.598  0.8758 -2.0843 -1.7960
  183POPC   C3921054   0.369   5.049   5.484  0.0953  0.0985 -0.2214
  183POPC   H9X21055   0.414   4.969   5.546 -1.1669  0.0255  0.6337
  183POPC   H9Y21056   0.456   5.110   5.450 -1.6441  2.1261 -1.2876
  183POPC  C31021057   0.296   4.979   5.367 -0.2838 -0.1434 -0.5830
  183POPC  H10X21058   0.255   5.049   5.290  1.5799  0.6031 -0.9491
  183POPC  H10Y21059   0.213   4.925   5.417  0.7655  0.6409  2.1985
  183POPC  C31121060   0.406   4.904   5.293  0.1243  1.2515  0.3854
  183POPC  H11X21061   0.453   4.827   5.358  1.1772  0.1302 -1.6003
  183POPC  H11Y21062   0.489   4.971   5.261 -1.0935  2.5378 -0.1699
  183POPC  C31221063   0.355   4.837   5.169 -0.0689  0.1574 -0.1849
  183POPC  H12X21064   0.275   4.763   5.191 -2.0046  2.0615 -0.5238
  183POPC  H12Y21065   0.441   4.780   5.127  0.1341  0.6319 -0.4201
  183POPC  C31321066   0.312   4.928   5.055  0.6746  0.2286 -0.2233
  183POPC  H13X21067   0.397   4.999   5.047  1.0046 -0.0920  0.3113
  183POPC  H13Y21068   0.229   4.989   5.096 -0.6064 -1.9368  0.5881
  183POPC  C31421069   0.271   4.863   4.924  0.4664 -0.3731  0.4590
  183POPC  H14X21070   0.191   4.788   4.942 -0.6952  1.1897  2.0737
  183POPC  H14Y21071   0.362   4.811   4.885  0.7762  0.2680  0.3159
  183POPC  C31521072   0.220   4.959   4.813 -0.5316 -0.3153  0.2240
  183POPC  H15X21073   0.242   4.918   4.712  0.5965  0.4783  0.1350
  183POPC  H15Y21074   0.282   5.051   4.818  0.1814 -0.6962 -1.2306
  183POPC  C31621075   0.073   4.995   4.818  0.3830 -0.6046 -0.0959
  183POPC  H16X21076   0.041   5.047   4.726 -0.6999  2.2693  1.7776
  183POPC  H16Y21077   0.053   5.068   4.900  1.2920 -0.1480 -0.2552
  183POPC  H16Z21078   0.011   4.905   4.835  0.0596 -1.2831 -3.9709
  184POPC     N21079   0.945   0.233   7.141 -0.0004  0.6024 -0.2038
  184POPC   C1221080   0.910   0.156   7.015 -0.0386  0.1625  0.0657
  184POPC  H12A21081   0.814   0.109   7.033  0.6547 -0.4225  2.6394
  184POPC  H12B21082   0.971   0.068   7.005 -0.1520  0.2277 -1.4075
  184POPC   C1321083   0.854   0.345   7.171  0.1331  0.3467  0.0883
  184POPC  H13A21084   0.856   0.406   7.082 -1.6197  1.6843  0.9030
  184POPC  H13B21085   0.757   0.304   7.191  0.2152  0.4547  0.7389
  184POPC  H13C21086   0.886   0.397   7.261 -0.9288  1.7129 -0.2841
  184POPC   C1421087   0.956   0.135   7.255 -0.4428 -0.2021 -0.5521
  184POPC  H14A21088   0.864   0.083   7.274  0.1959 -0.7093  1.3865
  184POPC  H14B21089   1.033   0.061   7.242  0.6012  0.5414  1.0565
  184POPC  H14C21090   0.985   0.181   7.348 -0.1412 -0.0752 -0.7080
  184POPC   C1521091   1.084   0.300   7.135 -1.0760 -0.1056  0.7014
  184POPC  H15A21092   1.094   0.383   7.204 -3.6547  1.1109 -0.2489
  184POPC  H15B21093   1.096   0.343   7.037  1.5115  0.0258  1.0211
  184POPC  H15C21094   1.152   0.217   7.124 -3.5507 -2.0604 -1.1493
  184POPC   C1121095   0.925   0.234   6.881  0.5651 -0.7930  0.4752
  184POPC  H11A21096   0.874   0.333   6.888  0.1569 -1.0070  0.5572
  184POPC  H11B21097   0.886   0.181   6.792  1.0710 -0.7688  0.2375
  184POPC     P21098   1.155   0.140   6.804  0.0775  0.2759  0.2876
  184POPC   O1321099   1.105   0.000   6.843 -0.2512 -0.0556 -0.1663
  184POPC   O1421100   1.291   0.174   6.860  0.2197  0.2864 -0.1813
  184POPC   O1221101   1.059   0.257   6.855  0.0451  0.2618  0.1698
  184POPC   O1121102   1.158   0.150   6.652 -0.2946  0.1164  0.2868
  184POPC    C121103   1.214   0.040   6.574 -0.6042  0.5994 -0.1497
  184POPC    HA21104   1.185  -0.062   6.608 -0.2191  0.0982 -1.2959
  184POPC    HB21105   1.325   0.041   6.583 -0.5056  0.1015 -1.1815
  184POPC    C221106   1.188   0.050   6.417 -0.2935 -0.8113 -0.2799
  184POPC    HS21107   1.198  -0.046   6.362  2.2226 -0.3233 -0.7948
  184POPC   O2121108   1.275   0.148   6.354  0.1373  1.0440 -0.5687
  184POPC   C2121109   1.399   0.104   6.330 -0.3937  0.3609  0.1982
  184POPC   O2221110   1.448  -0.004   6.355 -0.1728  0.2692 -0.1071
  184POPC   C2221111   1.477   0.215   6.250  0.3446  0.3835 -1.2048
  184POPC   H2R21112   1.555   0.255   6.319 -1.3286 -1.4358  1.9875
  184POPC   H2S21113   1.409   0.294   6.212  0.4091  1.2326  0.3689
  184POPC    C321114   1.037   0.090   6.399 -0.5039 -0.2110  0.2090
  184POPC    HX21115   1.021   0.195   6.432 -1.2364  0.9636 -3.4161
  184POPC    HY21116   0.987   0.023   6.472 -0.9431 -1.1377 -0.9227
  184POPC   O3121117   1.007   0.076   6.267  0.4581 -0.1721  0.7460
  184POPC   C3121118   0.950  -0.043   6.232  0.1930  0.2584 -0.2501
  184POPC   O3221119   0.958  -0.145   6.293 -0.1396  0.2943  0.4602
  184POPC   C3221120   0.883  -0.011   6.102  0.8898 -0.1122  0.0508
  184POPC   H2X21121   0.893   0.096   6.073  0.2191 -0.6175 -2.2913
  184POPC   H2Y21122   0.776  -0.036   6.118  0.7269 -1.5362 -2.5901
  184POPC   C2321123   1.560   0.152   6.141  0.1278  0.5821  0.8580
  184POPC   H3R21124   1.635   0.080   6.180  0.1628 -0.2029 -0.5656
  184POPC   H3S21125   1.612   0.231   6.083  1.2826 -0.5927  0.2407
  184POPC   C2421126   1.471   0.075   6.043 -0.6379 -0.6045 -0.0493
  184POPC   H4R21127   1.402   0.004   6.094  0.2705 -1.8380 -0.4926
  184POPC   H4S21128   1.530   0.012   5.973 -0.8171  0.1306 -0.8717
  184POPC   C2521129   1.379   0.167   5.960 -0.3653  0.2207  0.6815
  184POPC   H5R21130   1.444   0.244   5.913 -1.7433  0.1437 -1.4914
  184POPC   H5S21131   1.308   0.225   6.023  0.9331  2.2684  0.3623
  184POPC   C2621132   1.306   0.094   5.850  0.3067  0.0596  0.2390
  184POPC   H6R21133   1.255   0.013   5.905  0.2522 -0.3172 -0.3574
  184POPC   H6S21134   1.382   0.052   5.780 -2.3429 -3.5230 -0.8062
  184POPC   C2721135   1.210   0.179   5.768 -0.8713  0.3774  0.5403
  184POPC   H7R21136   1.175   0.268   5.825  0.6313  0.5339  1.2743
  184POPC   H7S21137   1.115   0.126   5.744 -1.1761 -0.0019  2.4464
  184POPC   C2821138   1.266   0.234   5.635 -0.1192 -0.2966  0.2029
  184POPC   H8R21139   1.345   0.307   5.658 -0.6680  0.5266 -0.4393
  184POPC   H8S21140   1.195   0.306   5.589  2.3333  2.7124  0.7926
  184POPC   C2921141   1.313   0.134   5.536 -0.6558 -0.4344  0.1144
  184POPC   H9121142   1.396   0.070   5.569 -0.0327  1.2438  1.9822
  184POPC  C21021143   1.266   0.099   5.412 -0.0384  0.8503  0.0276
  184POPC  H10121144   1.304   0.016   5.351 -0.3093  1.3940 -0.9003
  184POPC  C21121145   1.145   0.165   5.341 -0.7029  0.3637  0.1828
  184POPC  H11R21146   1.113   0.257   5.394  2.3170  1.3064  0.5811
  184POPC  H11S21147   1.059   0.095   5.333 -0.9687  0.7824 -0.7404
  184POPC  C21221148   1.188   0.215   5.200 -0.2324  0.4076 -0.1593
  184POPC  H12R21149   1.293   0.249   5.188  0.0925 -0.5229 -0.1118
  184POPC  H12S21150   1.127   0.301   5.167 -0.5148  0.0629 -0.5403
  184POPC  C21321151   1.170   0.102   5.092  0.2019 -0.3427  0.4374
  184POPC  H13R21152   1.082   0.040   5.118 -0.9865  1.2398  0.3497
  184POPC  H13S21153   1.256   0.032   5.088  0.1596 -0.3281 -1.5095
  184POPC  C21421154   1.136   0.169   4.951  0.5876 -0.3006  0.2766
  184POPC  H14R21155   1.193   0.265   4.948 -1.7124  1.3311  3.1003
  184POPC  H14S21156   1.028   0.193   4.948  1.0201  2.3014  2.1250
  184POPC  C21521157   1.151   0.093   4.828 -0.2797  0.1730  0.4680
  184POPC  H15R21158   1.136   0.147   4.733  0.6162 -0.0451  0.1915
  184POPC  H15S21159   1.075   0.012   4.833 -2.2978  1.5650 -3.4636
  184POPC  C21621160   1.286   0.022   4.818 -0.3479  0.6023  0.3337
  184POPC  H16R21161   1.297  -0.047   4.904 -1.6159  1.4936  1.2355
  184POPC  H16S21162   1.368   0.090   4.849 -1.0301  1.4600  0.2898
  184POPC  C21721163   1.297  -0.054   4.689  0.3235 -0.2244  0.0629
  184POPC  H17R21164   1.290   0.028   4.616 -1.2797  0.9602  1.4535
  184POPC  H17S21165   1.212  -0.126   4.682  1.2962 -1.5784  1.4863
  184POPC  C21821166   1.428  -0.134   4.675 -0.5252 -0.2045 -0.5428
  184POPC  H18R21167   1.410  -0.227   4.732 -0.5305  0.3544  0.3805
  184POPC  H18S21168   1.520  -0.079   4.704  0.2805 -1.2525 -1.0563
  184POPC  H18T21169   1.431  -0.164   4.568 -0.3442 -0.0385 -0.5836
  184POPC   C3321170   0.938  -0.112   5.985 -0.7367  0.3309  0.6361
  184POPC   H3X21171   0.950  -0.218   6.017  0.8732  0.6876  1.3394
  184POPC   H3Y21172   1.039  -0.068   5.967 -0.2932 -0.8976 -0.0980
  184POPC   C3421173   0.859  -0.113   5.857  0.3344  0.5280  0.1690
  184POPC   H4X21174   0.794  -0.024   5.840  0.3991  0.9422  1.8923
  184POPC   H4Y21175   0.781  -0.192   5.866 -0.2090  0.4952 -3.2100
  184POPC   C3521176   0.941  -0.138   5.726  0.7404 -0.2667 -0.5396
  184POPC   H5X21177   0.997  -0.233   5.742 -0.0074 -0.7072 -0.4822
  184POPC   H5Y21178   1.013  -0.056   5.707 -0.7544  0.7691 -1.9879
  184POPC   C3621179   0.856  -0.136   5.602  0.1827 -0.6784  0.4985
  184POPC   H6X21180   0.807  -0.039   5.578 -1.0412 -0.5672  3.0470
  184POPC   H6Y21181   0.774  -0.207   5.625 -0.4403  0.1351  0.8356
  184POPC   C3721182   0.930  -0.186   5.475  0.1939  0.3745 -0.7706
  184POPC   H7X21183   0.953  -0.294   5.485 -0.3550  0.3110 -0.1823
  184POPC   H7Y21184   1.031  -0.139   5.479  0.4334 -0.1726  2.8967
  184POPC   C3821185   0.852  -0.158   5.346  0.7507  0.0773 -0.2147
  184POPC   H8X21186   0.832  -0.050   5.330  1.3029  0.3667  0.9418
  184POPC   H8Y21187   0.757  -0.210   5.370  0.8026  0.1752  0.2156
  184POPC   C3921188   0.922  -0.213   5.222 -0.0266 -0.2399 -0.0321
  184POPC   H9X21189   0.933  -0.323   5.231  2.3602 -0.1220 -0.7636
  184POPC   H9Y21190   1.025  -0.173   5.228  0.0649 -0.3234 -1.0186
  184POPC  C31021191   0.852  -0.172   5.093 -0.0170 -0.7844 -0.2125
  184POPC  H10X21192   0.903  -0.209   5.002 -1.3416 -0.6084 -1.0503
  184POPC  H10Y21193   0.839  -0.063   5.081 -0.9746 -0.8793 -0.0910
  184POPC  C31121194   0.702  -0.224   5.090  0.0475 -0.6858  0.3550
  184POPC  H11X21195   0.641  -0.184   5.174  0.6437 -0.3719  0.6465
  184POPC  H11Y21196   0.711  -0.330   5.120 -0.4947 -0.6811  0.5612
  184POPC  C31221197   0.615  -0.196   4.966  0.4872  0.5297 -0.4131
  184POPC  H12X21198   0.630  -0.100   4.914  0.0296 -0.9222 -3.4538
  184POPC  H12Y21199   0.507  -0.190   4.993  0.3720  1.6285 -1.0537
  184POPC  C31321200   0.631  -0.300   4.852  0.0148  0.2196 -0.3590
  184POPC  H13X21201   0.624  -0.402   4.894 -1.5473  0.3288 -0.2984
  184POPC  H13Y21202   0.735  -0.280   4.817 -0.9172  3.7851 -1.4981
  184POPC  C31421203   0.532  -0.280   4.739 -0.2709  0.1674  0.0206
  184POPC  H14X21204   0.560  -0.354   4.661  3.3148  1.3043  0.0648
  184POPC  H14Y21205   0.545  -0.183   4.685 -1.1166  1.2695  1.7185
  184POPC  C31521206   0.383  -0.294   4.768 -0.7420  0.3007  0.1417
  184POPC  H15X21207   0.356  -0.220   4.847 -1.5632 -1.0299  1.1553
  184POPC  H15Y21208   0.370  -0.394   4.815 -0.3026  0.6007  0.9261
  184POPC  C31621209   0.296  -0.278   4.643  0.7560  0.4494  0.3087
  184POPC  H16X21210   0.192  -0.265   4.678 -0.4342 -1.2758 -2.2542
  184POPC  H16Y21211   0.306  -0.367   4.576  3.2445  0.8111  0.0793
  184POPC  H16Z21212   0.321  -0.199   4.569 -0.3331  0.7972  0.3003
  185POPC     N21213   0.708   1.504   1.889 -0.0824  0.0233 -0.3966
  185POPC   C1221214   0.715   1.352   1.901  1.6008  0.4086  0.7116
  185POPC  H12A21215   0.734   1.302   1.808 -0.2099 -0.1907  0.6312
  185POPC  H12B21216   0.614   1.321   1.922  1.4167  0.9638  0.6664
  185POPC   C1321217   0.677   1.556   2.029  0.0010 -0.2384  0.0465
  185POPC  H13A21218   0.750   1.533   2.105 -2.0188  0.0953  2.2214
  185POPC  H13B21219   0.664   1.664   2.026  1.9368 -0.0051 -2.4756
  185POPC  H13C21220   0.586   1.511   2.066  0.3596 -0.2110  0.9957
  185POPC   C1421221   0.838   1.564   1.840 -0.1016  0.0570  0.3632
  185POPC  H14A21222   0.905   1.562   1.924 -0.0829 -1.5374  0.3422
  185POPC  H14B21223   0.882   1.504   1.763  0.4895  0.2052  0.5839
  185POPC  H14C21224   0.829   1.669   1.816 -1.5259 -0.0016  0.5319
  185POPC   C1521225   0.590   1.536   1.798 -0.0531  0.9449 -0.1267
  185POPC  H15A21226   0.506   1.483   1.841 -0.1248  0.7950 -0.4507
  185POPC  H15B21227   0.613   1.496   1.700 -1.5134 -0.3647  0.0276
  185POPC  H15C21228   0.572   1.642   1.786 -2.3973  0.5558 -0.5604
  185POPC   C1121229   0.815   1.287   2.004 -0.4100 -0.1304 -1.0552
  185POPC  H11A21230   0.820   1.182   1.970 -1.7460 -1.7387  3.0342
  185POPC  H11B21231   0.771   1.298   2.105  0.8232  0.6698 -0.5711
  185POPC     P21232   1.039   1.400   2.103  0.4980 -0.3869  0.2175
  185POPC   O1321233   1.014   1.545   2.096  0.1803 -0.7588 -0.0611
  185POPC   O1421234   1.176   1.354   2.066  0.7800  0.1020 -0.0733
  185POPC   O1221235   0.938   1.342   1.994  0.3882 -0.4552  0.1392
  185POPC   O1121236   0.984   1.340   2.245 -0.3127  0.2701 -0.3972
  185POPC    C121237   1.014   1.400   2.370 -0.3038 -0.5656 -0.5874
  185POPC    HA21238   1.101   1.466   2.350 -1.1239 -0.4537 -4.5458
  185POPC    HB21239   1.045   1.329   2.449  0.6381  0.4877  0.0142
  185POPC    C221240   0.901   1.488   2.436  0.4698 -1.4109  0.7200
  185POPC    HS21241   0.880   1.571   2.365 -0.8929 -0.0712  2.5899
  185POPC   O2121242   0.945   1.526   2.571  0.1413 -0.5123  0.2824
  185POPC   C2121243   0.900   1.652   2.618 -0.0643  0.1477 -0.5336
  185POPC   O2221244   0.826   1.727   2.555 -0.7443 -0.0088 -0.0615
  185POPC   C2221245   0.963   1.678   2.751  0.3657  0.2613  0.3184
  185POPC   H2R21246   1.069   1.698   2.727 -0.1845  0.5210 -2.1519
  185POPC   H2S21247   0.956   1.585   2.812 -0.8232  0.1549  0.0522
  185POPC    C321248   0.769   1.405   2.425  0.0004  0.5248 -0.6071
  185POPC    HX21249   0.787   1.304   2.467 -1.2998  0.0662 -1.0853
  185POPC    HY21250   0.724   1.379   2.326  0.2574  0.9770 -0.8448
  185POPC   O3121251   0.661   1.451   2.507  0.5207 -0.0430 -0.1270
  185POPC   C3121252   0.590   1.544   2.448  0.1280 -1.1910  0.5440
  185POPC   O3221253   0.593   1.586   2.332  0.2060  0.1552 -0.3362
  185POPC   C3221254   0.490   1.596   2.554  0.0556 -0.1989 -0.4327
  185POPC   H2X21255   0.425   1.507   2.569 -1.0239  0.6103 -0.2353
  185POPC   H2Y21256   0.428   1.677   2.510  0.4201 -0.3958 -1.3220
  185POPC   C2321257   0.898   1.798   2.828  0.3617  0.3178 -0.4965
  185POPC   H3R21258   0.788   1.789   2.814  0.7425 -1.5526 -2.9422
  185POPC   H3S21259   0.933   1.894   2.784  1.7146  0.5008  0.8728
  185POPC   C2421260   0.922   1.790   2.985  0.3024  0.4860  0.1357
  185POPC   H4R21261   1.026   1.820   3.010  0.6433 -1.0807  0.7002
  185POPC   H4S21262   0.906   1.686   3.022  1.0884  0.0866 -0.6094
  185POPC   C2521263   0.823   1.882   3.065 -0.0919 -0.0177  0.2199
  185POPC   H5R21264   0.785   1.826   3.153  1.0468 -0.3134  0.5397
  185POPC   H5S21265   0.731   1.910   3.009 -0.7572 -2.5491 -0.0798
  185POPC   C2621266   0.896   2.006   3.112 -0.0543 -0.5630  0.2022
  185POPC   H6R21267   0.816   2.076   3.144  0.8010  0.2713  0.5705
  185POPC   H6S21268   0.958   2.046   3.028 -1.1365  2.1304  0.5839
  185POPC   C2721269   0.977   1.987   3.244 -0.1252 -0.7635 -0.9020
  185POPC   H7R21270   1.062   1.921   3.218 -1.0460 -1.2045 -2.9072
  185POPC   H7S21271   0.914   1.940   3.322  0.8385  2.6435  2.2481
  185POPC   C2821272   1.013   2.121   3.322  0.0206  0.0830  0.5730
  185POPC   H8R21273   1.059   2.179   3.238 -0.6039  1.4417  1.1382
  185POPC   H8S21274   1.091   2.107   3.399  0.8795  0.8962 -0.1216
  185POPC   C2921275   0.904   2.205   3.382  0.4448  0.2696 -0.2353
  185POPC   H9121276   0.824   2.228   3.311 -1.6839 -1.6265  1.3898
  185POPC  C21021277   0.884   2.220   3.515 -0.0447  0.0940 -0.3004
  185POPC  H10121278   0.797   2.284   3.538 -0.8927 -0.0403 -2.7648
  185POPC  C21121279   0.980   2.191   3.632  0.7539  0.1639 -0.2725
  185POPC  H11R21280   1.018   2.288   3.670 -0.5591  0.4388  0.3984
  185POPC  H11S21281   1.072   2.136   3.602  2.7815  0.4465  4.5714
  185POPC  C21221282   0.915   2.124   3.739  0.0265  0.4690  0.3671
  185POPC  H12R21283   0.881   2.022   3.711  0.5489  1.0237 -2.6429
  185POPC  H12S21284   0.825   2.181   3.771 -2.2185 -0.7149 -3.1920
  185POPC  C21321285   0.998   2.107   3.872  0.1220 -0.6508  0.8238
  185POPC  H13R21286   1.086   2.044   3.847 -0.0235  0.4028 -2.8755
  185POPC  H13S21287   0.941   2.061   3.955  0.3181 -2.4804 -0.0117
  185POPC  C21421288   1.037   2.238   3.926 -0.2322 -0.2345 -0.1238
  185POPC  H14R21289   0.946   2.291   3.961  0.3546  0.0888  0.9777
  185POPC  H14S21290   1.081   2.302   3.847 -2.0818  0.7227 -0.4376
  185POPC  C21521291   1.139   2.226   4.048 -0.2278  0.2338 -0.3782
  185POPC  H15R21292   1.222   2.161   4.012 -0.9464 -0.3540 -0.9883
  185POPC  H15S21293   1.094   2.165   4.129  0.5607  0.8475  0.5531
  185POPC  C21621294   1.185   2.355   4.104 -0.2222  1.0866  0.3181
  185POPC  H16R21295   1.097   2.424   4.105 -0.3262  0.9754 -0.4015
  185POPC  H16S21296   1.261   2.401   4.037  0.3228 -0.9284 -0.5247
  185POPC  C21721297   1.237   2.357   4.236  1.1653 -0.7520 -0.8699
  185POPC  H17R21298   1.283   2.457   4.254  3.5295 -2.4199  4.1364
  185POPC  H17S21299   1.324   2.290   4.257  0.8460 -0.5348  1.3902
  185POPC  C21821300   1.131   2.351   4.353  0.3736  0.1435  0.0053
  185POPC  H18R21301   1.059   2.267   4.347 -0.5962  1.0140 -0.9768
  185POPC  H18S21302   1.072   2.445   4.349  0.5937  0.5477  3.2342
  185POPC  H18T21303   1.182   2.350   4.452  1.2720  0.1333 -0.4431
  185POPC   C3321304   0.542   1.651   2.692 -0.3370  0.1036  0.7260
  185POPC   H3X21305   0.597   1.747   2.681  1.3898 -0.8716  0.4393
  185POPC   H3Y21306   0.612   1.574   2.733 -3.2049 -1.5285  2.9427
  185POPC   C3421307   0.430   1.647   2.801 -0.1955  0.6939 -0.1370
  185POPC   H4X21308   0.366   1.558   2.783 -0.8339  0.4340  2.8907
  185POPC   H4Y21309   0.369   1.740   2.800  1.0263  1.5606 -2.4413
  185POPC   C3521310   0.481   1.619   2.949  0.3427 -0.0875 -0.3152
  185POPC   H5X21311   0.562   1.694   2.961  1.0797 -0.6807 -1.3835
  185POPC   H5Y21312   0.524   1.517   2.954 -1.0471 -0.7279 -0.8821
  185POPC   C3621313   0.364   1.635   3.050  0.3143 -0.2370 -0.2645
  185POPC   H6X21314   0.271   1.588   3.011 -1.2245 -1.4102  4.2712
  185POPC   H6Y21315   0.339   1.741   3.068  1.7470  0.0470  0.2242
  185POPC   C3721316   0.373   1.562   3.187  0.2451  0.4493  0.4767
  185POPC   H7X21317   0.407   1.630   3.268 -0.0022 -0.7340  1.6025
  185POPC   H7Y21318   0.443   1.477   3.171 -0.9480 -0.4438 -0.1427
  185POPC   C3821319   0.247   1.487   3.229  0.6268  0.6880  0.1483
  185POPC   H8X21320   0.222   1.423   3.141 -1.4057 -0.9814  1.8142
  185POPC   H8Y21321   0.162   1.554   3.253  1.2744  0.6699  2.8299
  185POPC   C3921322   0.268   1.393   3.347 -0.3986  0.3689 -0.6641
  185POPC   H9X21323   0.333   1.310   3.311 -0.8490  0.0429 -0.7295
  185POPC   H9Y21324   0.180   1.338   3.387  1.7463 -1.7910  1.4021
  185POPC  C31021325   0.339   1.461   3.465  0.3612  0.4440 -0.8968
  185POPC  H10X21326   0.280   1.554   3.478  0.5406  0.3968  0.3768
  185POPC  H10Y21327   0.441   1.483   3.428  0.0092  1.4672 -1.3018
  185POPC  C31121328   0.333   1.377   3.596  0.0997  0.3168  0.1563
  185POPC  H11X21329   0.369   1.274   3.580  1.7959  0.7143  1.1818
  185POPC  H11Y21330   0.224   1.366   3.618 -0.0722 -1.0903 -1.2575
  185POPC  C31221331   0.398   1.443   3.713 -0.0342 -1.0502 -0.0637
  185POPC  H12X21332   0.370   1.550   3.707  0.9063 -0.4920  3.3754
  185POPC  H12Y21333   0.509   1.448   3.701  0.1827 -0.6922  1.8184
  185POPC  C31321334   0.347   1.391   3.841  0.0528 -0.6027  0.0328
  185POPC  H13X21335   0.393   1.291   3.853  2.9425  0.7776  1.5622
  185POPC  H13Y21336   0.236   1.391   3.844  0.0429 -2.4788  0.4276
  185POPC  C31421337   0.396   1.490   3.948  0.5618 -0.0434  0.0047
  185POPC  H14X21338   0.353   1.593   3.943  0.8889  0.0610 -0.7909
  185POPC  H14Y21339   0.503   1.509   3.926  0.3691 -0.3282 -1.2276
  185POPC  C31521340   0.378   1.434   4.090  1.1632  0.3742  0.3991
  185POPC  H15X21341   0.424   1.335   4.111 -3.8735 -1.9819  1.8483
  185POPC  H15Y21342   0.272   1.401   4.100  1.5876 -1.1593  0.0296
  185POPC  C31621343   0.421   1.536   4.202  0.4076 -0.0602  0.3759
  185POPC  H16X21344   0.377   1.500   4.297 -0.4066  1.3090  0.5518
  185POPC  H16Y21345   0.384   1.638   4.175  0.1434 -0.5008 -1.0166
  185POPC  H16Z21346   0.531   1.545   4.209  0.5222  1.7169 -2.0335
  186POPC     N21347   1.569   6.213   1.771  0.9351 -0.0410  0.2637
  186POPC   C1221348   1.585   6.160   1.910  0.4031  0.5542 -0.7370
  186POPC  H12A21349   1.547   6.059   1.913  0.8834  0.3612 -0.9448
  186POPC  H12B21350   1.522   6.213   1.980  2.0583 -2.1106  3.1150
  186POPC   C1321351   1.423   6.206   1.727 -0.5346  0.0929  0.6015
  186POPC  H13A21352   1.360   6.250   1.802  0.3836 -0.6417  1.8422
  186POPC  H13B21353   1.419   6.252   1.629  1.5301  0.7857  0.7888
  186POPC  H13C21354   1.399   6.101   1.723  1.6707 -0.4375 -1.3507
  186POPC   C1421355   1.606   6.361   1.760  0.0425 -0.0766 -0.0211
  186POPC  H14A21356   1.707   6.368   1.796  0.3391 -2.1743 -0.2962
  186POPC  H14B21357   1.597   6.402   1.661 -1.3643 -0.0571  0.0941
  186POPC  H14C21358   1.533   6.412   1.821 -1.5837 -2.0718 -0.1658
  186POPC   C1521359   1.664   6.129   1.691  0.2647  0.0033  0.0120
  186POPC  H15A21360   1.659   6.144   1.584 -2.8209  0.5681  0.1595
  186POPC  H15B21361   1.640   6.024   1.702  2.8291 -0.5576  0.9435
  186POPC  H15C21362   1.766   6.148   1.721  1.4716  0.5891 -3.8020
  186POPC   C1121363   1.739   6.167   1.967  0.6838  0.1686 -0.2125
  186POPC  H11A21364   1.811   6.113   1.901 -1.3069  0.8774 -3.1742
  186POPC  H11B21365   1.753   6.111   2.062  0.5175 -0.3647 -0.4944
  186POPC     P21366   1.735   6.405   2.090 -0.1367  0.2772 -0.1360
  186POPC   O1321367   1.649   6.509   2.039 -0.2044  0.3932 -0.1977
  186POPC   O1421368   1.859   6.448   2.158 -0.5052 -0.8310 -0.3876
  186POPC   O1221369   1.773   6.302   1.981  0.1572  0.7400  0.2902
  186POPC   O1121370   1.644   6.321   2.192 -0.3032 -0.1050  0.5497
  186POPC    C121371   1.575   6.391   2.294 -0.0030  0.1010  0.5566
  186POPC    HA21372   1.468   6.363   2.292 -0.3878  1.5112  0.3834
  186POPC    HB21373   1.603   6.498   2.308 -0.7654  0.3398  0.3067
  186POPC    C221374   1.622   6.339   2.427 -0.2201 -0.1997  0.1696
  186POPC    HS21375   1.623   6.228   2.421  1.8808 -0.3084  1.3029
  186POPC   O2121376   1.532   6.383   2.528 -0.5089  0.7307 -0.3197
  186POPC   C2121377   1.416   6.321   2.553  0.4647  0.0616 -0.3370
  186POPC   O2221378   1.371   6.223   2.493 -0.2728 -0.6931 -0.3625
  186POPC   C2221379   1.351   6.379   2.681 -0.2070  0.5996 -0.2593
  186POPC   H2R21380   1.301   6.476   2.662  0.8591  1.8103  2.5866
  186POPC   H2S21381   1.437   6.410   2.745 -0.2356  3.2621 -1.3634
  186POPC    C321382   1.773   6.374   2.460  0.5008 -0.0733 -0.5810
  186POPC    HX21383   1.773   6.485   2.456 -0.3322 -0.0189  0.4693
  186POPC    HY21384   1.838   6.335   2.379  2.6940  1.8225  0.1412
  186POPC   O3121385   1.807   6.309   2.589 -0.6791 -0.3363  0.3644
  186POPC   C3121386   1.867   6.394   2.668 -0.5714 -0.0296  0.3119
  186POPC   O3221387   1.880   6.516   2.644 -0.4403  0.0951  0.0341
  186POPC   C3221388   1.915   6.315   2.795 -0.0575  0.5624 -0.3738
  186POPC   H2X21389   1.992   6.241   2.764  1.1001  0.8154  1.7012
  186POPC   H2Y21390   1.828   6.265   2.842 -0.5995  0.1143 -1.8120
  186POPC   C2321391   1.261   6.272   2.759  0.8639 -0.5498 -1.1571
  186POPC   H3R21392   1.294   6.168   2.739  0.9544 -0.3337 -2.2219
  186POPC   H3S21393   1.158   6.275   2.718  0.5308 -1.5484 -0.4156
  186POPC   C2421394   1.274   6.277   2.914  0.2040 -0.4066  0.3972
  186POPC   H4R21395   1.316   6.374   2.948 -0.1603 -0.8170  2.0721
  186POPC   H4S21396   1.356   6.209   2.944 -0.9779 -2.0958 -0.0194
  186POPC   C2521397   1.133   6.257   2.975 -0.4917  0.3033  0.0857
  186POPC   H5R21398   1.083   6.159   2.965 -1.5647  0.6639  1.5393
  186POPC   H5S21399   1.054   6.324   2.936 -1.9923 -0.8612  1.0113
  186POPC   C2621400   1.125   6.279   3.128  0.2891  0.9901 -0.3045
  186POPC   H6R21401   1.028   6.267   3.182  0.5320  1.0972  0.1691
  186POPC   H6S21402   1.162   6.379   3.159  0.3049  0.9961 -0.3425
  186POPC   C2721403   1.220   6.181   3.206 -0.0437  0.2079 -0.0297
  186POPC   H7R21404   1.324   6.204   3.173 -0.8190  1.5953 -1.7049
  186POPC   H7S21405   1.181   6.078   3.195 -1.6243  0.4852  2.4051
  186POPC   C2821406   1.203   6.213   3.357  0.6798  0.3382 -0.0913
  186POPC   H8R21407   1.096   6.212   3.386  0.1751 -2.0240 -1.6979
  186POPC   H8S21408   1.253   6.311   3.370  2.7047 -0.5653 -0.6778
  186POPC   C2921409   1.277   6.103   3.427  0.2375 -0.2031  0.2845
  186POPC   H9121410   1.262   6.001   3.387 -1.8468 -0.2967  1.1727
  186POPC  C21021411   1.370   6.121   3.521  0.1098 -0.7218  0.2916
  186POPC  H10121412   1.414   6.030   3.566  0.7755  0.4507  2.1333
  186POPC  C21121413   1.404   6.246   3.592 -0.0905 -0.1880 -0.0521
  186POPC  H11R21414   1.328   6.322   3.563 -1.1014 -1.3232 -0.5126
  186POPC  H11S21415   1.501   6.292   3.565  0.0963  1.3407  2.8920
  186POPC  C21221416   1.396   6.230   3.744 -0.8022  0.1411 -0.1804
  186POPC  H12R21417   1.467   6.304   3.785 -0.4928 -0.3530  0.1918
  186POPC  H12S21418   1.444   6.132   3.768  0.3812  1.0204  1.1762
  186POPC  C21321419   1.258   6.234   3.804 -0.2305  0.1809 -0.6006
  186POPC  H13R21420   1.198   6.149   3.765 -1.1007  0.8616 -0.8034
  186POPC  H13S21421   1.213   6.330   3.768 -0.3428 -0.2563 -1.6500
  186POPC  C21421422   1.262   6.234   3.963 -0.0375  0.0188 -0.1309
  186POPC  H14R21423   1.317   6.321   4.006 -1.9462  0.8355  0.7812
  186POPC  H14S21424   1.308   6.140   4.002  1.9970  1.1525  0.3648
  186POPC  C21521425   1.118   6.230   4.017 -1.1279 -0.5391 -0.2129
  186POPC  H15R21426   1.052   6.198   3.933 -1.8226  0.9871 -0.2801
  186POPC  H15S21427   1.081   6.332   4.040 -0.7135 -0.3772 -0.2565
  186POPC  C21621428   1.104   6.145   4.144  0.2232 -0.8584 -0.2947
  186POPC  H16R21429   1.172   6.195   4.216 -0.2378 -0.5041 -0.0927
  186POPC  H16S21430   1.137   6.041   4.123 -0.5992 -1.2311  0.2002
  186POPC  C21721431   0.963   6.157   4.205  0.5561  0.0094  0.3886
  186POPC  H17R21432   0.892   6.109   4.134  0.4607  0.4596  0.1807
  186POPC  H17S21433   0.939   6.264   4.218 -0.6851 -0.3192  0.9434
  186POPC  C21821434   0.943   6.075   4.335  0.3232 -0.5158  0.1716
  186POPC  H18R21435   1.001   6.127   4.414  1.1791 -0.3239 -0.5593
  186POPC  H18S21436   0.834   6.084   4.354 -0.3881 -1.3505 -2.8593
  186POPC  H18T21437   0.967   5.967   4.332 -0.9307 -0.8098  0.0822
  186POPC   C3321438   1.987   6.407   2.896 -1.2161 -0.8441 -0.0780
  186POPC   H3X21439   1.939   6.507   2.897  2.0740  0.8507  0.0043
  186POPC   H3Y21440   2.091   6.433   2.866 -0.8471 -0.2309  1.5929
  186POPC   C3421441   1.982   6.346   3.034 -0.4812  0.0449  0.3298
  186POPC   H4X21442   2.046   6.260   3.065  0.5201  0.9176  0.7173
  186POPC   H4Y21443   1.882   6.319   3.075  0.4603 -2.6027  1.1333
  186POPC   C3521444   2.039   6.462   3.130 -0.7569  0.4187  0.1255
  186POPC   H5X21445   1.975   6.551   3.111  1.3614  1.5532 -2.2962
  186POPC   H5Y21446   2.140   6.474   3.085 -1.3561 -2.0526 -2.1592
  186POPC   C3621447   2.036   6.424   3.275 -0.6330 -0.1599 -0.8894
  186POPC   H6X21448   2.095   6.507   3.321 -0.4284  1.3716 -3.7155
  186POPC   H6Y21449   2.105   6.337   3.275 -0.8382 -0.3263 -0.8743
  186POPC   C3721450   1.901   6.407   3.338  0.2903  0.7214  0.6899
  186POPC   H7X21451   1.858   6.311   3.301  0.9720  1.3796 -2.0322
  186POPC   H7Y21452   1.834   6.489   3.305  0.7194  0.0734 -2.0408
  186POPC   C3821453   1.899   6.400   3.489 -0.1765  0.1469 -0.4866
  186POPC   H8X21454   1.794   6.433   3.507 -0.7111 -0.6850 -1.8592
  186POPC   H8Y21455   1.960   6.484   3.529  0.9554 -0.2388 -1.3472
  186POPC   C3921456   1.943   6.271   3.549 -0.0054 -0.1265 -0.8720
  186POPC   H9X21457   2.046   6.253   3.510  1.8207  4.8094  0.9070
  186POPC   H9Y21458   1.892   6.183   3.503  3.4902 -2.7398 -0.1958
  186POPC  C31021459   1.943   6.267   3.706 -0.3825  0.2400 -0.2526
  186POPC  H10X21460   2.033   6.320   3.744 -1.0035  1.3565 -0.2900
  186POPC  H10Y21461   1.962   6.162   3.737 -0.3245  0.3999  0.2558
  186POPC  C31121462   1.816   6.326   3.772 -0.0537  0.3646 -0.4168
  186POPC  H11X21463   1.725   6.300   3.714  1.2369 -1.5360 -1.7515
  186POPC  H11Y21464   1.841   6.434   3.781  0.2767  0.1097  2.7630
  186POPC  C31221465   1.808   6.276   3.912  0.2160  0.4523 -0.0210
  186POPC  H12X21466   1.909   6.272   3.956  0.2707  0.3050 -0.1584
  186POPC  H12Y21467   1.778   6.169   3.918  1.9514  0.0165  1.8406
  186POPC  C31321468   1.702   6.355   3.997  0.2055  0.0606  0.2723
  186POPC  H13X21469   1.597   6.328   3.975  0.2502 -0.3657  0.5506
  186POPC  H13Y21470   1.722   6.463   3.983  2.1162 -0.3283 -0.3168
  186POPC  C31421471   1.705   6.317   4.145  0.4989  0.3161 -0.8560
  186POPC  H14X21472   1.805   6.356   4.174  0.8465 -0.4309 -1.0496
  186POPC  H14Y21473   1.716   6.209   4.164 -1.5427 -0.0871 -1.6814
  186POPC  C31521474   1.595   6.375   4.237 -0.0797 -0.9987 -0.6183
  186POPC  H15X21475   1.558   6.305   4.314 -0.0626 -0.2509  0.0799
  186POPC  H15Y21476   1.507   6.404   4.176  0.3577  1.4761 -0.1819
  186POPC  C31621477   1.654   6.499   4.298 -0.1729  0.4308 -0.1524
  186POPC  H16X21478   1.701   6.571   4.228  0.4941  0.1684  0.0154
  186POPC  H16Y21479   1.722   6.469   4.381 -0.6051  0.5595  0.2514
  186POPC  H16Z21480   1.575   6.559   4.348  0.8455  1.0154  0.8067
  187POPC     N21481   0.340   2.254   1.741 -0.1988 -0.0350 -0.2494
  187POPC   C1221482   0.459   2.171   1.798 -0.0430  0.0227  0.0107
  187POPC  H12A21483   0.545   2.208   1.744  1.1555 -1.0964  1.0936
  187POPC  H12B21484   0.452   2.069   1.762  2.1319 -0.0042 -0.4208
  187POPC   C1321485   0.207   2.204   1.791  0.3517  0.5591 -0.8573
  187POPC  H13A21486   0.122   2.249   1.741 -0.3825  0.4113  0.2095
  187POPC  H13B21487   0.196   2.097   1.776 -0.4637  0.4681  0.2020
  187POPC  H13C21488   0.198   2.224   1.897 -2.6729 -0.8291 -0.7293
  187POPC   C1421489   0.354   2.399   1.782 -0.0489  0.0534  0.2476
  187POPC  H14A21490   0.351   2.419   1.888  1.3422  3.3854 -0.2276
  187POPC  H14B21491   0.443   2.442   1.739  0.0057 -2.5853 -2.6786
  187POPC  H14C21492   0.265   2.449   1.748  0.9576  3.2657  1.9270
  187POPC   C1521493   0.329   2.230   1.591 -0.0514  0.4441  0.1818
  187POPC  H15A21494   0.238   2.283   1.567 -1.1454 -0.2003  2.5205
  187POPC  H15B21495   0.314   2.127   1.561  1.2530  0.5143 -0.7937
  187POPC  H15C21496   0.412   2.274   1.540  1.5178  0.4968  2.6261
  187POPC   C1121497   0.481   2.163   1.951  0.0290 -0.1213  0.1545
  187POPC  H11A21498   0.564   2.094   1.979  1.3910  1.6906  0.7723
  187POPC  H11B21499   0.383   2.131   1.993 -0.1879 -0.2435 -0.4450
  187POPC     P21500   0.623   2.355   2.059 -0.0371 -0.0709  0.3409
  187POPC   O1321501   0.592   2.484   2.126  0.2711 -0.0320 -0.6834
  187POPC   O1421502   0.735   2.357   1.963  0.6667  0.1856  0.4118
  187POPC   O1221503   0.494   2.299   1.996  0.2152  0.6402  0.2134
  187POPC   O1121504   0.659   2.251   2.168 -0.3765  0.8077 -0.2633
  187POPC    C121505   0.569   2.235   2.282  0.1683  0.1218 -0.2527
  187POPC    HA21506   0.483   2.176   2.245  0.2001  0.1599 -0.3893
  187POPC    HB21507   0.523   2.331   2.314 -2.6308 -0.9826 -0.6779
  187POPC    C221508   0.644   2.190   2.405 -0.2229 -0.2139  0.0569
  187POPC    HS21509   0.692   2.094   2.375 -3.0448 -2.5334  2.3351
  187POPC   O2121510   0.569   2.172   2.525 -0.3738 -0.1290  0.5744
  187POPC   C2121511   0.467   2.089   2.527  0.1827 -0.1425  0.2791
  187POPC   O2221512   0.427   2.026   2.429  0.5919 -0.4194 -1.0164
  187POPC   C2221513   0.394   2.093   2.659  0.5078 -0.7502  0.3552
  187POPC   H2R21514   0.298   2.043   2.632 -1.1311  1.9656  0.8286
  187POPC   H2S21515   0.378   2.200   2.681  1.8153 -0.4904  0.0876
  187POPC    C321516   0.761   2.288   2.442 -0.1637  0.3056 -0.1407
  187POPC    HX21517   0.706   2.381   2.465 -0.4851  0.7435 -2.4726
  187POPC    HY21518   0.813   2.313   2.347 -0.7472 -1.1722 -0.8848
  187POPC   O3121519   0.848   2.240   2.552 -0.1510  0.1104  0.3893
  187POPC   C3121520   0.928   2.326   2.609  0.9677 -0.5328 -0.1150
  187POPC   O3221521   0.924   2.448   2.590 -0.2483 -0.2091  0.6911
  187POPC   C3221522   1.027   2.244   2.699  0.1143 -0.0455 -1.1678
  187POPC   H2X21523   1.130   2.280   2.681  1.4860 -2.3345  1.3525
  187POPC   H2Y21524   1.029   2.137   2.669 -2.5313 -0.7805  0.8429
  187POPC   C2321525   0.468   2.027   2.780 -0.3630  0.5593  0.1160
  187POPC   H3R21526   0.567   2.075   2.798  0.7033 -1.7101  0.6366
  187POPC   H3S21527   0.485   1.918   2.766 -1.5477  0.4372 -0.4300
  187POPC   C2421528   0.387   2.041   2.909  0.0328 -0.5629  0.2184
  187POPC   H4R21529   0.299   1.973   2.902 -1.4165  1.1780  0.5298
  187POPC   H4S21530   0.347   2.145   2.915  0.6077 -0.4126  1.8245
  187POPC   C2521531   0.475   2.018   3.035 -0.6591 -0.5452 -0.3117
  187POPC   H5R21532   0.567   2.080   3.031 -1.8761  1.2894 -1.0217
  187POPC   H5S21533   0.502   1.910   3.022  1.0398 -0.1314 -0.5074
  187POPC   C2621534   0.399   2.039   3.163  0.3706 -0.2777  0.1725
  187POPC   H6R21535   0.309   1.976   3.176 -0.6255  1.0694  0.0096
  187POPC   H6S21536   0.370   2.146   3.175  0.3887  0.0448 -2.1769
  187POPC   C2721537   0.484   1.996   3.285  0.6223 -0.2143 -0.3180
  187POPC   H7R21538   0.571   2.063   3.300 -1.3850  3.4464 -3.3869
  187POPC   H7S21539   0.524   1.894   3.265 -1.8067 -1.4921  0.9096
  187POPC   C2821540   0.399   1.987   3.416 -0.2488  0.2682 -0.5825
  187POPC   H8R21541   0.474   1.978   3.497 -0.4619  2.8430 -0.0345
  187POPC   H8S21542   0.327   1.902   3.411 -1.0249  0.9271 -0.7663
  187POPC   C2921543   0.328   2.115   3.438 -0.2221 -0.5454 -0.5747
  187POPC   H9121544   0.230   2.135   3.392  0.4145  2.9320 -0.7018
  187POPC  C21021545   0.372   2.217   3.513  0.0431 -0.1164  0.2351
  187POPC  H10121546   0.297   2.296   3.529  1.4988  2.0375 -2.5224
  187POPC  C21121547   0.507   2.232   3.576  0.3070 -0.2657 -0.4104
  187POPC  H11R21548   0.562   2.315   3.528 -0.4429  1.2159  1.1852
  187POPC  H11S21549   0.577   2.147   3.561  0.1542 -0.3291 -0.7491
  187POPC  C21221550   0.496   2.251   3.730  0.1978  0.5012 -1.0464
  187POPC  H12R21551   0.590   2.261   3.788 -0.4598 -3.4246  1.0060
  187POPC  H12S21552   0.443   2.163   3.771 -0.2299  0.8537 -0.8304
  187POPC  C21321553   0.416   2.374   3.782 -0.0629 -0.3484  0.2073
  187POPC  H13R21554   0.315   2.347   3.744  0.8327  0.5005 -3.1599
  187POPC  H13S21555   0.449   2.458   3.716 -0.9557 -0.5075 -0.4598
  187POPC  C21421556   0.434   2.417   3.931  0.2091 -0.8140 -0.3130
  187POPC  H14R21557   0.542   2.427   3.953 -0.4505  2.6860  2.0764
  187POPC  H14S21558   0.395   2.347   4.008  1.5215 -0.4348  0.7307
  187POPC  C21521559   0.356   2.548   3.974 -0.3329  0.3203 -0.4471
  187POPC  H15R21560   0.249   2.551   3.946 -0.0711  1.0862 -1.4293
  187POPC  H15S21561   0.400   2.635   3.920  1.5494 -1.6413 -2.3136
  187POPC  C21621562   0.357   2.565   4.129  0.0815 -0.2210  0.4517
  187POPC  H16R21563   0.461   2.592   4.159  0.9531 -1.2935 -1.5003
  187POPC  H16S21564   0.334   2.472   4.186  0.2899 -0.7945 -0.3936
  187POPC  C21721565   0.253   2.671   4.170  0.0354  0.3847 -0.7928
  187POPC  H17R21566   0.150   2.643   4.140  0.0769 -3.2055  1.8187
  187POPC  H17S21567   0.283   2.774   4.140  1.5136  0.8537  1.9283
  187POPC  C21821568   0.246   2.691   4.328  0.5073 -0.0685  0.0714
  187POPC  H18R21569   0.191   2.602   4.365 -1.9085  0.9970 -0.8176
  187POPC  H18S21570   0.178   2.774   4.355 -1.9200 -0.8874 -3.0099
  187POPC  H18T21571   0.344   2.704   4.380  0.5208  0.3832 -0.0646
  187POPC   C3321572   0.996   2.258   2.852 -0.4025 -0.0476 -0.3687
  187POPC   H3X21573   1.063   2.184   2.901 -1.3024 -1.1859 -0.7980
  187POPC   H3Y21574   0.889   2.232   2.867 -0.3792 -0.4081 -0.8017
  187POPC   C3421575   1.065   2.384   2.907  0.0315 -0.4509 -0.3824
  187POPC   H4X21576   1.019   2.482   2.884 -0.8529 -0.4023  1.4506
  187POPC   H4Y21577   1.169   2.395   2.870  0.3293  2.1088  0.9913
  187POPC   C3521578   1.079   2.386   3.059  0.3359  0.0293 -0.3466
  187POPC   H5X21579   1.150   2.306   3.088 -1.2719 -0.3598  2.9636
  187POPC   H5Y21580   0.979   2.362   3.100 -0.6529  0.9529 -2.0970
  187POPC   C3621581   1.129   2.512   3.123 -0.1616 -0.5935  0.6171
  187POPC   H6X21582   1.071   2.598   3.083 -1.6492 -1.6745  0.3964
  187POPC   H6Y21583   1.235   2.519   3.092 -0.7734  1.9058 -1.2169
  187POPC   C3721584   1.112   2.516   3.275 -0.0102 -0.4888  0.1430
  187POPC   H7X21585   1.185   2.447   3.323  0.9455 -1.4187 -2.4436
  187POPC   H7Y21586   1.008   2.483   3.294 -0.9820 -0.2552 -3.8123
  187POPC   C3821587   1.154   2.649   3.341  0.3504  0.4096  0.2863
  187POPC   H8X21588   1.100   2.733   3.293 -2.5436 -2.1011 -1.2098
  187POPC   H8Y21589   1.265   2.662   3.336  0.2866  0.9066  0.1361
  187POPC   C3921590   1.117   2.646   3.486  0.3905  0.3149  0.3018
  187POPC   H9X21591   1.117   2.540   3.519  2.7978 -0.0037 -0.5290
  187POPC   H9Y21592   1.025   2.705   3.505 -1.0481 -1.2671 -1.3701
  187POPC  C31021593   1.223   2.710   3.580  0.3441 -0.6947  0.3819
  187POPC  H10X21594   1.243   2.815   3.550  1.4971 -1.1104 -0.3260
  187POPC  H10Y21595   1.320   2.657   3.574 -0.1148 -1.4356 -1.1273
  187POPC  C31121596   1.186   2.701   3.726  0.1596 -1.0882 -0.0666
  187POPC  H11X21597   1.180   2.595   3.756 -0.2829 -2.1574 -3.5194
  187POPC  H11Y21598   1.085   2.745   3.741  0.2728 -1.2635  1.4041
  187POPC  C31221599   1.286   2.765   3.825 -0.2238  0.3892 -0.7138
  187POPC  H12X21600   1.308   2.870   3.796  0.9793  1.1568  2.5052
  187POPC  H12Y21601   1.370   2.693   3.831 -2.1189 -1.8334  1.3445
  187POPC  C31321602   1.241   2.755   3.981 -0.1427 -0.2954  0.3998
  187POPC  H13X21603   1.201   2.653   4.003  0.0974 -0.2509  1.0767
  187POPC  H13Y21604   1.147   2.813   3.992 -0.2564 -0.7621  2.4061
  187POPC  C31421605   1.351   2.800   4.077  0.5693  0.0264 -0.8899
  187POPC  H14X21606   1.379   2.904   4.051 -3.9292  1.3351 -1.1971
  187POPC  H14Y21607   1.442   2.738   4.058  0.5424 -0.5782  0.7815
  187POPC  C31521608   1.295   2.798   4.220 -0.2632 -0.3952 -0.2956
  187POPC  H15X21609   1.274   2.695   4.257 -0.8703 -0.2506 -0.2364
  187POPC  H15Y21610   1.202   2.858   4.217 -0.0768 -0.0877 -0.1000
  187POPC  C31621611   1.373   2.867   4.330  0.8072  0.4600 -1.2358
  187POPC  H16X21612   1.476   2.825   4.332 -0.1857 -2.1550 -1.6782
  187POPC  H16Y21613   1.324   2.846   4.428 -0.2645  0.0428 -1.8395
  187POPC  H16Z21614   1.380   2.978   4.322 -0.3011  0.5285 -1.4405
  188POPC     N21615   5.384   4.962   1.968 -0.4569  0.4642  0.2707
  188POPC   C1221616   5.377   4.828   2.041  0.5665  0.1317  0.1253
  188POPC  H12A21617   5.358   4.744   1.976 -3.2202  0.9247 -0.0229
  188POPC  H12B21618   5.291   4.840   2.105  1.1203  1.2707  0.6925
  188POPC   C1321619   5.399   5.082   2.053 -0.7099  0.2866  0.0170
  188POPC  H13A21620   5.413   5.172   1.995  0.4094  0.9987  1.3318
  188POPC  H13B21621   5.312   5.091   2.118 -2.0393 -1.0651 -1.4879
  188POPC  H13C21622   5.482   5.064   2.119 -0.6921  0.1200 -0.0509
  188POPC   C1421623   5.497   4.964   1.864  0.1736  0.2404  0.3995
  188POPC  H14A21624   5.488   5.050   1.799  2.8343  0.2340 -0.0914
  188POPC  H14B21625   5.599   4.963   1.901 -0.3984 -0.2462  2.0332
  188POPC  H14C21626   5.491   4.871   1.809  0.8176  0.2063  0.3820
  188POPC   C1521627   5.256   4.982   1.889  0.0324  0.2376  0.1234
  188POPC  H15A21628   5.240   4.914   1.806 -3.5536 -2.1549  2.5199
  188POPC  H15B21629   5.265   5.078   1.840 -3.3546  0.5715 -0.0292
  188POPC  H15C21630   5.166   4.984   1.948 -0.3837 -0.2713 -0.4786
  188POPC   C1121631   5.485   4.803   2.140 -0.4473  0.6820  0.2691
  188POPC  H11A21632   5.588   4.821   2.102  0.4075 -2.6553  0.6205
  188POPC  H11B21633   5.488   4.694   2.163 -0.5888  0.9472  1.6129
  188POPC     P21634   5.389   4.837   2.376 -0.0105  0.0278  0.0391
  188POPC   O1321635   5.451   4.710   2.425  0.3756  1.0157 -0.3751
  188POPC   O1421636   5.244   4.845   2.337 -1.6516  0.3262  0.0412
  188POPC   O1221637   5.471   4.885   2.250  0.2090 -0.0470  0.1903
  188POPC   O1121638   5.417   4.958   2.475 -0.2269 -0.5038  0.4162
  188POPC    C121639   5.440   5.091   2.416  0.5115  0.0625  0.1241
  188POPC    HA21640   5.379   5.107   2.324 -1.0808 -0.9635  0.9616
  188POPC    HB21641   5.546   5.111   2.388 -0.2726  3.0299 -1.1361
  188POPC    C221642   5.389   5.204   2.507  0.0665  0.4825 -0.0364
  188POPC    HS21643   5.392   5.289   2.436  1.8627  0.9243  0.4965
  188POPC   O2121644   5.473   5.209   2.619 -0.1878  0.4686  0.2645
  188POPC   C2121645   5.480   5.324   2.686 -0.5118  0.6324 -0.0527
  188POPC   O2221646   5.431   5.426   2.646 -0.1757  0.0460  0.3107
  188POPC   C2221647   5.550   5.300   2.823  0.2293  0.4873 -0.1267
  188POPC   H2R21648   5.564   5.402   2.866 -1.6032  0.8839 -0.3680
  188POPC   H2S21649   5.648   5.253   2.800 -0.1917 -0.1535 -0.6558
  188POPC    C321650   5.239   5.176   2.549 -0.1349 -0.5957  0.6847
  188POPC    HX21651   5.247   5.089   2.619 -0.9235 -0.9298  0.3701
  188POPC    HY21652   5.181   5.143   2.461 -0.2568  1.5013 -0.0775
  188POPC   O3121653   5.168   5.284   2.619 -0.5582  0.4719 -0.4309
  188POPC   C3121654   5.119   5.379   2.537 -0.5429  0.0991 -0.3593
  188POPC   O3221655   5.137   5.383   2.415 -0.5106  0.3529  0.2654
  188POPC   C3221656   5.023   5.473   2.616  0.2569 -0.6583  0.3343
  188POPC   H2X21657   4.926   5.419   2.625 -0.5652  0.8791  0.9179
  188POPC   H2Y21658   4.989   5.559   2.555 -1.1022  0.9701  3.1985
  188POPC   C2321659   5.459   5.214   2.909 -0.2943 -0.7183  0.1535
  188POPC   H3R21660   5.516   5.177   2.997  0.9737 -0.3411 -0.4849
  188POPC   H3S21661   5.438   5.114   2.867  1.6927  0.2342 -3.5810
  188POPC   C2421662   5.333   5.291   2.961 -0.4332 -0.4742  0.0498
  188POPC   H4R21663   5.260   5.287   2.877 -2.2500 -1.5178  1.5975
  188POPC   H4S21664   5.367   5.397   2.969  1.2400 -0.6113 -3.5314
  188POPC   C2521665   5.281   5.231   3.088  0.2580  0.0609  0.2124
  188POPC   H5R21666   5.268   5.123   3.066  2.0635 -0.1322 -0.0826
  188POPC   H5S21667   5.179   5.267   3.114 -0.4028 -0.9395 -0.9227
  188POPC   C2621668   5.374   5.264   3.210 -0.2176 -0.9511 -0.3143
  188POPC   H6R21669   5.392   5.373   3.207 -2.0772 -0.6266 -0.8943
  188POPC   H6S21670   5.470   5.207   3.215  0.2993  0.0051  1.6822
  188POPC   C2721671   5.307   5.231   3.340  0.1839  0.5021  0.0893
  188POPC   H7R21672   5.278   5.124   3.331 -1.3837  0.7157  2.0967
  188POPC   H7S21673   5.216   5.293   3.347  0.8007  1.6304 -1.2670
  188POPC   C2821674   5.383   5.247   3.468  0.3885  0.1591  0.1250
  188POPC   H8R21675   5.485   5.204   3.454  0.7104  0.8511  0.3090
  188POPC   H8S21676   5.344   5.198   3.559 -1.1429 -0.2500 -0.7234
  188POPC   C2921677   5.386   5.393   3.500 -0.2187  0.3789  0.5454
  188POPC   H9121678   5.410   5.456   3.413 -0.8759 -0.6295 -0.4158
  188POPC  C21021679   5.339   5.461   3.607 -0.1474  0.0814  0.3587
  188POPC  H10121680   5.347   5.571   3.605 -2.7944  0.4135  2.3817
  188POPC  C21121681   5.278   5.394   3.729 -0.1298 -0.2738  0.5899
  188POPC  H11R21682   5.275   5.283   3.725  0.3249 -0.2517 -0.6767
  188POPC  H11S21683   5.171   5.423   3.733  0.4717  2.0285  1.9117
  188POPC  C21221684   5.319   5.440   3.870  0.3435 -0.4294  0.4088
  188POPC  H12R21685   5.324   5.551   3.872 -0.1849 -0.4029  0.5245
  188POPC  H12S21686   5.426   5.412   3.876  0.5321 -0.0346 -0.8137
  188POPC  C21321687   5.230   5.394   3.986 -0.1617 -0.1623 -0.6817
  188POPC  H13R21688   5.235   5.283   3.991 -0.1801 -0.1197  2.1683
  188POPC  H13S21689   5.122   5.418   3.974 -0.9419 -1.1982  2.9809
  188POPC  C21421690   5.269   5.457   4.115  0.4721  0.6076 -1.0508
  188POPC  H14R21691   5.274   5.568   4.110  0.6886  0.6461 -0.1397
  188POPC  H14S21692   5.369   5.415   4.139 -0.3745 -1.3962 -0.8468
  188POPC  C21521693   5.178   5.435   4.232  0.1590 -0.0810  0.3961
  188POPC  H15R21694   5.175   5.326   4.253  0.2045 -0.5402 -1.7874
  188POPC  H15S21695   5.074   5.458   4.198 -0.1605 -0.5385  1.0308
  188POPC  C21621696   5.212   5.499   4.360 -0.8573 -0.4870  1.0828
  188POPC  H16R21697   5.141   5.456   4.433 -1.3659 -1.2310  0.1710
  188POPC  H16S21698   5.205   5.610   4.358  2.4216 -0.1741 -0.3703
  188POPC  C21721699   5.359   5.475   4.400  0.4026 -0.6542  0.4408
  188POPC  H17R21700   5.413   5.533   4.321 -0.5630  0.2978  0.4489
  188POPC  H17S21701   5.390   5.369   4.392  0.1241 -0.8812  2.0741
  188POPC  C21821702   5.397   5.536   4.542  0.0214 -0.4730 -0.5756
  188POPC  H18R21703   5.322   5.505   4.618 -1.5628  2.2388 -0.8951
  188POPC  H18S21704   5.399   5.647   4.536 -0.6516 -0.3913  0.4992
  188POPC  H18T21705   5.504   5.509   4.554 -0.0478 -1.5099 -2.0802
  188POPC   C3321706   5.062   5.523   2.761  0.2145  0.0875  0.6020
  188POPC   H3X21707   5.158   5.579   2.754  0.2163  0.1990  1.3330
  188POPC   H3Y21708   5.078   5.427   2.815  0.8879  1.0713  2.2357
  188POPC   C3421709   4.962   5.621   2.824 -0.1165 -0.0943  0.4603
  188POPC   H4X21710   4.870   5.559   2.823 -1.0097  1.1936 -0.3733
  188POPC   H4Y21711   4.943   5.711   2.762  1.9431 -0.5195 -0.8696
  188POPC   C3521712   5.004   5.674   2.961  0.2607 -0.3493  0.0528
  188POPC   H5X21713   4.944   5.762   2.993 -0.8241 -0.6318 -1.1295
  188POPC   H5Y21714   5.110   5.710   2.957  0.0693  0.2440  0.1662
  188POPC   C3621715   5.007   5.568   3.069 -0.1223  0.4699  0.5366
  188POPC   H6X21716   5.075   5.486   3.037 -1.0294  0.1456 -0.6249
  188POPC   H6Y21717   4.900   5.540   3.084 -1.0990  2.9301 -1.0724
  188POPC   C3721718   5.069   5.611   3.206  0.1576  0.1213  0.3297
  188POPC   H7X21719   5.157   5.677   3.194  2.0054 -1.9284  1.8759
  188POPC   H7Y21720   5.096   5.516   3.255  0.5813 -1.2191 -2.3068
  188POPC   C3821721   4.981   5.684   3.311  0.3566 -0.7904  0.4929
  188POPC   H8X21722   4.881   5.637   3.323  0.8663 -2.0773 -0.1552
  188POPC   H8Y21723   4.961   5.789   3.279  1.4607 -0.3303  1.2241
  188POPC   C3921724   5.046   5.705   3.450 -0.3755  0.0356 -0.1993
  188POPC   H9X21725   5.142   5.759   3.437 -0.9537  1.1833  0.2616
  188POPC   H9Y21726   5.066   5.610   3.504 -2.4914  0.7953  2.0972
  188POPC  C31021727   4.945   5.784   3.550  0.1787 -0.3686  0.0043
  188POPC  H10X21728   4.864   5.718   3.586  0.5658 -0.1015  1.4080
  188POPC  H10Y21729   4.903   5.870   3.493  0.1540 -1.7486 -2.1923
  188POPC  C31121730   5.005   5.839   3.672 -0.2523 -0.4127  0.1852
  188POPC  H11X21731   4.951   5.935   3.687  0.4904 -0.0418  0.5570
  188POPC  H11Y21732   5.114   5.863   3.663  0.5524 -1.0631  5.1874
  188POPC  C31221733   4.993   5.756   3.802 -0.4431  0.1333  0.0419
  188POPC  H12X21734   5.045   5.661   3.779 -0.4816  0.1966 -0.3282
  188POPC  H12Y21735   4.884   5.737   3.818 -0.2376 -1.4836 -0.3289
  188POPC  C31321736   5.050   5.825   3.926 -0.4762 -0.2616  0.6022
  188POPC  H13X21737   5.030   5.934   3.920  0.9502  0.0279  0.7960
  188POPC  H13Y21738   5.160   5.813   3.918 -0.7471 -1.9213 -1.4884
  188POPC  C31421739   4.993   5.772   4.060 -1.3118 -0.2394  0.0663
  188POPC  H14X21740   4.988   5.661   4.057 -2.9823 -0.1584 -1.3549
  188POPC  H14Y21741   4.893   5.812   4.086 -0.9271  0.6102  0.3002
  188POPC  C31521742   5.079   5.800   4.187 -0.0408 -0.3934  0.5146
  188POPC  H15X21743   5.183   5.773   4.157  0.2299  0.1249  0.9547
  188POPC  H15Y21744   5.044   5.726   4.262 -1.1287  0.9336  1.3693
  188POPC  C31621745   5.064   5.943   4.230  0.0839 -0.1412 -0.0695
  188POPC  H16X21746   4.963   5.957   4.274 -0.6712  0.2117 -1.8241
  188POPC  H16Y21747   5.087   6.003   4.139  1.2550 -0.5290 -0.0461
  188POPC  H16Z21748   5.146   5.967   4.300 -0.3458  0.4147  0.2566
  189SAPI   C1221749   0.875   1.386   6.370  0.2258  0.0089  0.0264
  189SAPI    H221750   0.801   1.323   6.317 -1.2655  1.0409  0.8069
  189SAPI    O221751   1.005   1.325   6.355  0.2082  0.0372  0.7223
  189SAPI   HO221752   1.027   1.283   6.438 -0.3858  0.8035  1.2803
  189SAPI   C1321753   0.867   1.523   6.307 -0.0169  0.1670 -0.1312
  189SAPI    H321754   0.767   1.568   6.325 -0.6782 -0.4035 -2.1044
  189SAPI    O321755   0.879   1.508   6.163  0.6882  0.0496 -0.1729
  189SAPI   HO321756   0.961   1.461   6.146  0.4058 -0.0378 -1.3599
  189SAPI   C1421757   0.969   1.623   6.367  0.5518 -0.1335  0.1237
  189SAPI    H421758   1.069   1.601   6.324  1.4266  2.8625  0.3509
  189SAPI    O421759   0.946   1.765   6.331  0.7418  0.0869  0.5762
  189SAPI   HO421760   0.981   1.788   6.245 -0.4859 -1.3209 -0.3629
  189SAPI   C1521761   0.983   1.608   6.519  0.3515  0.2302  0.2024
  189SAPI    H521762   0.918   1.688   6.561  0.5898  0.5212  0.0289
  189SAPI    O521763   1.110   1.649   6.564 -0.1453 -0.6938 -0.3920
  189SAPI   HO521764   1.106   1.744   6.579 -0.6671 -0.5627 -1.2767
  189SAPI   C1621765   0.940   1.483   6.599  0.1522  0.1964 -0.0840
  189SAPI    H621766   1.030   1.421   6.619 -0.9543 -1.1140  0.9956
  189SAPI    O621767   0.885   1.513   6.725  0.0968 -0.2603 -0.1000
  189SAPI   HO621768   0.960   1.518   6.784  0.7974 -0.0902 -0.9844
  189SAPI   C1121769   0.836   1.400   6.517  0.4223  0.4996 -0.3659
  189SAPI    H121770   0.748   1.467   6.526  0.3900  0.3977  0.1075
  189SAPI     P21771   0.885   1.170   6.647 -0.3897 -0.0163  0.0125
  189SAPI   O1321772   0.876   1.212   6.790 -0.1520  0.4114 -0.6347
  189SAPI   O1421773   1.019   1.171   6.585  0.0159 -0.2626  0.0802
  189SAPI   O1221774   0.795   1.272   6.561 -0.1068  0.1746  0.3247
  189SAPI   O1121775   0.816   1.029   6.630 -0.7243 -0.0355 -0.4202
  189SAPI    C121776   0.894   0.914   6.582  0.4154  0.1304 -0.9609
  189SAPI    HA21777   1.003   0.933   6.576 -0.0896  3.0968 -2.3210
  189SAPI    HB21778   0.859   0.836   6.654 -0.1714 -1.6182 -3.0341
  189SAPI    C221779   0.853   0.850   6.449 -0.1184  0.2240  0.1395
  189SAPI    HS21780   0.896   0.747   6.453  2.0201  1.0323 -0.9059
  189SAPI   O2121781   0.900   0.939   6.346  0.1647  0.1222 -0.6100
  189SAPI   C2121782   1.025   0.925   6.303 -0.0075  0.5710 -0.1027
  189SAPI   O2221783   1.108   0.840   6.348  0.4361  0.0077 -0.0589
  189SAPI   C2221784   1.044   1.019   6.186 -1.0962 -0.0002 -0.0948
  189SAPI   H2R21785   0.949   1.073   6.166 -0.2350  1.5093 -0.3498
  189SAPI   H2S21786   1.116   1.101   6.209 -2.8990  1.0269  2.3567
  189SAPI    C321787   0.703   0.850   6.422  0.1255  0.4400  0.7413
  189SAPI    HX21788   0.667   0.954   6.412 -1.3677  0.1640  2.6625
  189SAPI    HY21789   0.651   0.813   6.512  0.2233  0.2165  0.7069
  189SAPI   O3121790   0.672   0.765   6.307 -0.3784  0.5503 -0.0157
  189SAPI   C3121791   0.664   0.825   6.192 -0.2094 -0.7482  0.5418
  189SAPI   O3221792   0.682   0.945   6.165 -0.1399 -0.2501 -0.3157
  189SAPI   C3221793   0.617   0.721   6.094 -0.0064 -1.1490 -0.2364
  189SAPI   H2X21794   0.639   0.621   6.137 -1.2249 -1.7049 -0.8396
  189SAPI   H2Y21795   0.679   0.737   6.003 -2.8944  0.5386 -2.0831
  189SAPI   C2321796   1.091   0.963   6.051  0.2560 -0.6748  0.0426
  189SAPI   H3R21797   1.087   1.047   5.978 -0.9611 -1.1881 -0.5159
  189SAPI   H3S21798   1.020   0.892   6.003  0.7638 -0.5181 -0.9734
  189SAPI   C2421799   1.235   0.915   6.042  0.0107  0.0184  0.0145
  189SAPI   H4R21800   1.253   0.862   5.946  1.4748  1.5416 -0.6076
  189SAPI   H4S21801   1.243   0.836   6.119 -0.0849  1.6203  1.7153
  189SAPI   C2521802   1.336   1.025   6.067  0.1570  0.2340  0.4825
  189SAPI   H5R21803   1.369   1.035   6.172 -0.7134 -1.8802  1.0083
  189SAPI   C2621804   1.383   1.113   5.981  0.0085 -0.2578 -0.0288
  189SAPI   H6R21805   1.474   1.167   6.011 -0.5967 -0.5538  2.5678
  189SAPI   C2721806   1.356   1.113   5.832 -0.1121 -0.0874  0.3504
  189SAPI   H7R21807   1.245   1.117   5.820 -0.1521  0.7309  0.8908
  189SAPI   H7S21808   1.378   1.014   5.786  0.4756  1.0364 -1.9058
  189SAPI   C2821809   1.443   1.208   5.763 -0.2068 -0.1783  0.7325
  189SAPI   H8R21810   1.467   1.304   5.811 -0.6557 -0.4559  1.5346
  189SAPI   C2921811   1.465   1.196   5.628 -0.0500  0.1179  0.2841
  189SAPI   H9R21812   1.535   1.269   5.584 -0.8405  1.7705  1.6725
  189SAPI  C21021813   1.411   1.091   5.528 -0.2511 -0.6913 -0.0962
  189SAPI  H10R21814   1.364   0.997   5.564 -4.3183  0.2075 -2.3893
  189SAPI  H10S21815   1.500   1.061   5.469  0.9528  1.4334  0.5330
  189SAPI  C21121816   1.312   1.149   5.435  0.6239  0.1913 -1.1741
  189SAPI  H11R21817   1.234   1.213   5.479  0.8597 -1.2454  1.5452
  189SAPI  C21221818   1.317   1.139   5.302  0.4121 -0.4672  0.1749
  189SAPI  H12R21819   1.247   1.204   5.250  1.1029  1.3429  1.4085
  189SAPI  C21321820   1.417   1.065   5.215  0.4255 -0.0839 -0.0041
  189SAPI  H13R21821   1.363   0.979   5.169  1.8159 -0.2558 -1.3871
  189SAPI  H13S21822   1.504   1.019   5.267 -0.4419 -2.0251 -0.1910
  189SAPI  C21421823   1.466   1.156   5.103  0.7377  0.3139  0.9254
  189SAPI  H14R21824   1.482   1.262   5.124 -0.7450  0.4373  1.5682
  189SAPI  C21521825   1.505   1.113   4.981 -0.1914  0.2744 -0.2424
  189SAPI  H15R21826   1.541   1.186   4.908 -0.4685 -0.3340 -0.9965
  189SAPI  C21621827   1.497   0.965   4.932 -0.1425 -0.1989  0.0050
  189SAPI  H16R21828   1.395   0.944   4.893  0.4127 -1.1885 -0.9912
  189SAPI  H16S21829   1.517   0.901   5.021  0.3078  1.7394  1.3412
  189SAPI  C21721830   1.598   0.949   4.817  0.6162  0.3851  0.0193
  189SAPI  H17R21831   1.614   0.839   4.807  0.0228  0.3489 -0.6127
  189SAPI  H17S21832   1.693   0.994   4.852  0.9394  0.3581 -0.8154
  189SAPI  C21821833   1.573   0.996   4.674 -0.2968  1.0603 -0.4934
  189SAPI  H18R21834   1.625   1.093   4.658 -1.6314  1.6904 -1.2360
  189SAPI  H18S21835   1.468   1.013   4.642 -0.7648 -1.2501 -0.3357
  189SAPI  C21921836   1.627   0.895   4.564 -0.8114  0.1961  0.1233
  189SAPI  H19R21837   1.732   0.876   4.592 -1.0421  1.8102  2.4249
  189SAPI  H19S21838   1.630   0.950   4.467  0.6778 -1.3672 -0.7696
  189SAPI  C22021839   1.544   0.760   4.554 -0.1432 -0.7259 -0.2078
  189SAPI  H20R21840   1.550   0.703   4.459 -2.0675 -0.0441 -0.7790
  189SAPI  H20S21841   1.437   0.788   4.561 -0.0937 -0.5446 -0.1799
  189SAPI  H20T21842   1.565   0.702   4.647 -2.0958 -1.1081  0.0300
  189SAPI   C3321843   0.469   0.748   6.054  0.0494  0.6067  0.8018
  189SAPI   H3X21844   0.453   0.854   6.024  0.9535  2.7556  6.7141
  189SAPI   H3Y21845   0.398   0.739   6.139 -0.3599  0.9699  0.5105
  189SAPI   C3421846   0.419   0.646   5.954 -0.0527 -0.0659 -0.4274
  189SAPI   H4X21847   0.309   0.641   5.938 -0.2276  0.4221  0.5691
  189SAPI   H4Y21848   0.454   0.550   5.998  3.0764  1.4388  0.6308
  189SAPI   C3521849   0.474   0.660   5.814 -0.0769  0.2976  0.3208
  189SAPI   H5X21850   0.580   0.626   5.814  0.2105  0.9549  2.9933
  189SAPI   H5Y21851   0.472   0.769   5.792  0.9965  0.1255 -0.7271
  189SAPI   C3621852   0.396   0.583   5.705 -0.3790  0.5830 -0.1129
  189SAPI   H6X21853   0.293   0.624   5.702 -0.9254 -0.5826  1.2985
  189SAPI   H6Y21854   0.392   0.472   5.716  0.8955  0.5243 -0.1899
  189SAPI   C3721855   0.459   0.622   5.572 -0.3214  0.6988 -0.7469
  189SAPI   H7X21856   0.558   0.574   5.563 -1.1543 -1.8874  1.8586
  189SAPI   H7Y21857   0.475   0.732   5.565  0.3296  0.5640 -1.3934
  189SAPI   C3821858   0.372   0.580   5.453 -0.7088 -0.1574 -0.4567
  189SAPI   H8X21859   0.265   0.602   5.471 -0.7705 -1.2793  0.7031
  189SAPI   H8Y21860   0.377   0.470   5.434 -1.3402 -0.4903  1.1981
  189SAPI   C3921861   0.419   0.657   5.328 -1.0198  0.5808 -0.2686
  189SAPI   H9X21862   0.530   0.655   5.314 -0.4957 -2.4517  2.8303
  189SAPI   H9Y21863   0.400   0.766   5.341  0.8657  0.7985  1.1258
  189SAPI  C31021864   0.380   0.594   5.194 -0.4958 -0.2449 -0.1493
  189SAPI  H10X21865   0.274   0.561   5.192 -0.0264 -2.0055  0.7738
  189SAPI  H10Y21866   0.432   0.495   5.198 -1.7705 -0.9063  1.7231
  189SAPI  C31121867   0.418   0.676   5.075 -0.4267  0.6223  0.0119
  189SAPI  H11X21868   0.529   0.682   5.076 -0.1650 -2.0433 -1.6920
  189SAPI  H11Y21869   0.386   0.781   5.090 -1.0795  0.4731 -0.2846
  189SAPI  C31221870   0.389   0.606   4.938  0.7240  0.5202  0.1143
  189SAPI  H12X21871   0.284   0.633   4.914 -0.9216 -2.4476  3.0822
  189SAPI  H12Y21872   0.389   0.495   4.948 -1.2819  0.4549 -0.1322
  189SAPI  C31321873   0.485   0.644   4.826 -0.3328 -0.0774  0.5428
  189SAPI  H13X21874   0.582   0.618   4.873 -0.4180  1.3901  1.6286
  189SAPI  H13Y21875   0.485   0.753   4.801  0.2750 -0.6068 -1.9929
  189SAPI  C31421876   0.447   0.573   4.697 -0.4519  0.3803  0.2175
  189SAPI  H14X21877   0.357   0.614   4.647 -1.2817 -1.3554  0.2193
  189SAPI  H14Y21878   0.425   0.471   4.734 -1.3946  0.7664  0.7458
  189SAPI  C31521879   0.570   0.584   4.602  0.5925  0.5218  0.4294
  189SAPI  H15X21880   0.571   0.503   4.526  0.4707  0.0922  0.8772
  189SAPI  H15Y21881   0.656   0.560   4.667 -0.3773 -2.2961  0.8248
  189SAPI  C31621882   0.579   0.717   4.529 -1.1231  0.0555 -0.2372
  189SAPI  H16X21883   0.605   0.802   4.596  0.5764  0.2761 -1.1316
  189SAPI  H16Y21884   0.481   0.738   4.480 -1.5762 -1.4061 -0.0004
  189SAPI  C31721885   0.676   0.720   4.416  0.1273 -0.4286 -0.5418
  189SAPI  H17X21886   0.641   0.629   4.363 -1.8139 -1.0566  1.6375
  189SAPI  H17Y21887   0.773   0.685   4.458  0.2513  0.5420  0.0059
  189SAPI  C31821888   0.689   0.845   4.329 -0.1457  0.2627 -0.5605
  189SAPI  H18X21889   0.781   0.840   4.266  1.4966 -0.6790  1.7964
  189SAPI  H18Y21890   0.710   0.936   4.390 -1.2417 -0.1181  0.4229
  189SAPI  H18Z21891   0.602   0.858   4.260 -0.4431  0.5249 -0.1387
  190SAPI   C1221892   2.173   6.006   6.855 -1.1280  0.7173  1.1381
  190SAPI    H221893   2.138   6.037   6.755  1.7762 -0.3234 -0.3383
  190SAPI    O221894   2.064   6.011   6.945 -0.1040 -0.8309  0.5223
  190SAPI   HO221895   1.985   6.002   6.891  0.8455 -2.2459 -0.7045
  190SAPI   C1321896   2.218   5.854   6.847  0.2991 -0.5050  0.4118
  190SAPI    H321897   2.302   5.847   6.775 -0.5048  1.3655 -0.7848
  190SAPI    O321898   2.110   5.770   6.798  0.2723  0.3426 -0.0055
  190SAPI   HO321899   2.028   5.786   6.846 -0.5332  0.5270 -1.3871
  190SAPI   C1421900   2.264   5.824   6.993 -0.0068  0.5721  0.4277
  190SAPI    H421901   2.166   5.809   7.044 -0.9766  1.8452 -0.9747
  190SAPI    O421902   2.323   5.689   6.998 -0.1203  0.1234  0.4070
  190SAPI   HO421903   2.293   5.638   7.073  0.9530  0.5837  1.1680
  190SAPI   C1521904   2.343   5.928   7.073 -0.1835 -0.0426 -0.0147
  190SAPI    H521905   2.452   5.904   7.070 -0.2732 -0.8604  1.8886
  190SAPI    O521906   2.334   5.896   7.211 -0.1111 -0.4872  0.0681
  190SAPI   HO521907   2.386   5.965   7.254 -1.7732  0.9236 -0.0481
  190SAPI   C1621908   2.328   6.075   7.035 -0.2314  0.5902  0.1973
  190SAPI    H621909   2.242   6.101   7.101 -0.5979  0.9783 -0.4183
  190SAPI    O621910   2.427   6.161   7.077  0.0683 -0.4454  0.1094
  190SAPI   HO621911   2.403   6.242   7.033  0.3047  0.0697  0.9139
  190SAPI   C1121912   2.288   6.102   6.892  0.0359  0.5392 -0.4728
  190SAPI    H121913   2.365   6.082   6.815 -0.4006  1.1064 -1.0611
  190SAPI     P21914   2.329   6.364   6.818  0.0586  0.0598  0.1857
  190SAPI   O1321915   2.459   6.368   6.887  0.3723 -0.1333  0.0240
  190SAPI   O1421916   2.236   6.487   6.831  0.0446  0.2430  0.1399
  190SAPI   O1221917   2.240   6.232   6.869 -0.5896 -0.0598  0.6922
  190SAPI   O1121918   2.349   6.339   6.656  0.3290  0.0564 -0.0726
  190SAPI    C121919   2.466   6.397   6.603 -0.0011 -0.3461  0.5847
  190SAPI    HA21920   2.448   6.505   6.582  0.5003 -0.4105 -0.2355
  190SAPI    HB21921   2.554   6.392   6.670 -2.0900 -0.9039  3.4484
  190SAPI    C221922   2.514   6.331   6.473 -0.3117 -0.3643  0.0829
  190SAPI    HS21923   2.579   6.409   6.426 -1.1658  1.2333  1.4497
  190SAPI   O2121924   2.413   6.305   6.381  0.0834 -0.1661  0.2320
  190SAPI   C2121925   2.332   6.398   6.330  0.5628 -0.3819 -0.5508
  190SAPI   O2221926   2.346   6.516   6.350  0.0163 -0.5084 -0.2179
  190SAPI   C2221927   2.223   6.338   6.242  0.1142  0.0042 -0.3242
  190SAPI   H2R21928   2.223   6.227   6.246  0.2847  0.0478  2.4023
  190SAPI   H2S21929   2.130   6.375   6.291  0.5244  0.1116  0.3774
  190SAPI    C321930   2.587   6.201   6.503 -0.1704  0.0242 -0.1973
  190SAPI    HX21931   2.522   6.150   6.578  0.4800  0.2121  0.5090
  190SAPI    HY21932   2.681   6.227   6.556  1.6563 -2.0128 -2.2286
  190SAPI   O3121933   2.617   6.123   6.385  0.0600  0.5431  0.2877
  190SAPI   C3121934   2.568   5.998   6.391 -0.1241  0.0632 -0.7177
  190SAPI   O3221935   2.497   5.951   6.479  0.3693 -0.6460 -0.2712
  190SAPI   C3221936   2.622   5.905   6.284  0.1386 -0.4567 -0.4572
  190SAPI   H2X21937   2.688   5.838   6.342  1.3645  0.9756 -0.1112
  190SAPI   H2Y21938   2.679   5.965   6.210 -0.5251 -1.4680 -1.8077
  190SAPI   C2321939   2.222   6.406   6.094  0.7908  0.8649 -0.0801
  190SAPI   H3R21940   2.317   6.372   6.048 -0.3212 -0.7853 -1.3273
  190SAPI   H3S21941   2.220   6.515   6.113 -2.6881  1.5767 -3.2545
  190SAPI   C2421942   2.101   6.371   6.001  0.3005  0.7017  0.1174
  190SAPI   H4R21943   2.009   6.376   6.062 -0.2595 -1.3358 -0.4621
  190SAPI   H4S21944   2.097   6.266   5.965 -0.7654  1.1121 -1.0459
  190SAPI   C2521945   2.104   6.453   5.878  0.7206 -0.0074  0.9019
  190SAPI   H5R21946   2.164   6.416   5.793  0.2097  0.1867  0.4469
  190SAPI   C2621947   2.026   6.557   5.848  0.2478 -0.6205  0.1613
  190SAPI   H6R21948   2.044   6.616   5.758 -0.9668  0.6601  0.7308
  190SAPI   C2721949   1.918   6.614   5.941  0.7678  0.3300  0.6554
  190SAPI   H7R21950   1.927   6.725   5.939 -0.2191  0.4402  1.3185
  190SAPI   H7S21951   1.931   6.590   6.049  0.0795 -3.5429  0.0241
  190SAPI   C2821952   1.780   6.572   5.904  0.3322 -0.0335 -0.7118
  190SAPI   H8R21953   1.730   6.500   5.971  0.1970 -0.5752 -1.3775
  190SAPI   C2921954   1.710   6.615   5.795  0.2663 -0.2435  0.3205
  190SAPI   H9R21955   1.604   6.587   5.785  0.3886 -0.6288  0.0995
  190SAPI  C21021956   1.757   6.712   5.693 -0.1360 -0.4023 -0.2959
  190SAPI  H10R21957   1.741   6.667   5.593 -0.8294 -1.9172  0.4569
  190SAPI  H10S21958   1.865   6.738   5.697 -0.0954 -0.5966 -0.1085
  190SAPI  C21121959   1.680   6.840   5.708 -1.0677 -0.0610 -0.9424
  190SAPI  H11R21960   1.637   6.873   5.804  0.9788  3.0002 -0.9185
  190SAPI  C21221961   1.675   6.932   5.608 -0.1127  0.0520  0.1343
  190SAPI  H12R21962   1.610   7.020   5.621 -2.0927 -1.1218 -1.1475
  190SAPI  C21321963   1.732   6.918   5.468 -0.4376  0.1015 -0.3994
  190SAPI  H13R21964   1.831   6.869   5.479 -0.2393 -0.1511 -2.6813
  190SAPI  H13S21965   1.769   7.011   5.420  0.6108  0.2762  0.6925
  190SAPI  C21421966   1.642   6.825   5.388 -0.9415  0.7191 -0.5571
  190SAPI  H14R21967   1.627   6.725   5.430  2.6301  0.6518  0.9090
  190SAPI  C21521968   1.579   6.853   5.271 -0.2226 -0.2874  0.6092
  190SAPI  H15R21969   1.522   6.769   5.228  1.6552 -0.7481 -1.1697
  190SAPI  C21621970   1.599   6.984   5.199  0.1530 -0.2900  0.4569
  190SAPI  H16R21971   1.703   7.016   5.219  0.4554 -0.6014 -0.5522
  190SAPI  H16S21972   1.527   7.061   5.235 -0.0992  1.4893 -3.2881
  190SAPI  C21721973   1.606   6.982   5.040 -0.0255  0.0648 -0.3138
  190SAPI  H17R21974   1.607   7.088   5.005 -0.1110  0.9286  2.1225
  190SAPI  H17S21975   1.509   6.931   5.018 -0.2985  0.2141  0.5180
  190SAPI  C21821976   1.728   6.900   4.982 -0.3994 -0.8341  0.1101
  190SAPI  H18R21977   1.699   6.797   5.011 -1.0781 -1.2547 -1.9244
  190SAPI  H18S21978   1.825   6.929   5.029 -0.0909  0.9742 -1.5169
  190SAPI  C21921979   1.725   6.909   4.830  0.5902 -0.1081  0.1918
  190SAPI  H19R21980   1.737   7.015   4.800  0.3132 -0.0823  0.1643
  190SAPI  H19S21981   1.625   6.874   4.794  0.9393 -1.5380  0.5652
  190SAPI  C22021982   1.825   6.819   4.763  0.5121 -0.2847  0.2430
  190SAPI  H20R21983   1.831   6.845   4.655 -1.0990  3.1680  0.8346
  190SAPI  H20S21984   1.787   6.715   4.771 -0.3821 -0.3624 -3.3362
  190SAPI  H20T21985   1.924   6.833   4.811 -0.2178 -0.3807  1.8532
  190SAPI   C3321986   2.524   5.798   6.217  0.1673 -0.0047 -0.1596
  190SAPI   H3X21987   2.466   5.740   6.292  0.8432 -0.8385 -0.2761
  190SAPI   H3Y21988   2.593   5.731   6.163  2.1557  0.7955  1.2645
  190SAPI   C3421989   2.427   5.861   6.121  0.1034 -0.4683 -0.3656
  190SAPI   H4X21990   2.475   5.923   6.042 -0.7176  1.7318  0.7700
  190SAPI   H4Y21991   2.358   5.936   6.166 -0.6181 -0.9729 -0.6080
  190SAPI   C3521992   2.345   5.751   6.044  0.4274 -0.3479 -0.6760
  190SAPI   H5X21993   2.304   5.681   6.119  0.7222  0.4180  0.2233
  190SAPI   H5Y21994   2.402   5.691   5.971 -0.8193  0.7737 -2.6797
  190SAPI   C3621995   2.229   5.810   5.960 -0.1276  0.4333 -0.4267
  190SAPI   H6X21996   2.258   5.889   5.888 -0.0471 -0.4350 -1.3790
  190SAPI   H6Y21997   2.151   5.861   6.020 -0.9422  0.2544 -1.3060
  190SAPI   C3721998   2.161   5.693   5.887  0.5919 -0.0921  0.4927
  190SAPI   H7X21999   2.096   5.637   5.957 -0.7420 -0.8517 -1.2912
  190SAPI   H7Y22000   2.233   5.618   5.848  0.2843 -0.3722  0.4652
  190SAPI   C3822001   2.077   5.736   5.766 -0.2279 -0.0910  0.0742
  190SAPI   H8X22002   2.096   5.844   5.748  0.3389 -0.2706 -0.4323
  190SAPI   H8Y22003   1.968   5.714   5.770 -0.1069 -0.9029 -0.8042
  190SAPI   C3922004   2.129   5.667   5.628 -0.0203  0.3576 -0.9924
  190SAPI   H9X22005   2.121   5.557   5.639  0.3324  0.3946 -0.3427
  190SAPI   H9Y22006   2.235   5.694   5.614  1.0856 -2.8931  0.2598
  190SAPI  C31022007   2.052   5.713   5.508 -0.2029  0.3042 -0.1865
  190SAPI  H10X22008   2.076   5.818   5.483  0.8293 -0.1421 -1.1804
  190SAPI  H10Y22009   1.946   5.697   5.536  0.1368  0.0628  1.0175
  190SAPI  C31122010   2.087   5.632   5.383  0.1495  0.2336 -0.4646
  190SAPI  H11X22011   2.067   5.525   5.404  1.3043 -0.1238 -1.0722
  190SAPI  H11Y22012   2.194   5.650   5.357  0.2695 -0.5663 -0.5554
  190SAPI  C31222013   2.008   5.688   5.254  0.6211  0.0240 -1.2710
  190SAPI  H12X22014   2.011   5.799   5.259 -0.4338  0.0274  2.5731
  190SAPI  H12Y22015   1.906   5.645   5.249  0.3990  0.3057  0.4034
  190SAPI  C31322016   2.060   5.648   5.119 -0.0939  0.0439 -0.5018
  190SAPI  H13X22017   2.032   5.541   5.106 -1.6491  0.5336 -1.4895
  190SAPI  H13Y22018   2.171   5.650   5.115 -0.0318  3.0656  0.1070
  190SAPI  C31422019   1.984   5.727   5.010 -0.4377  0.2703  0.0052
  190SAPI  H14X22020   2.017   5.833   5.018  0.7770  0.2156 -3.0445
  190SAPI  H14Y22021   1.873   5.723   5.013 -0.5082  1.6962 -0.0146
  190SAPI  C31522022   2.025   5.669   4.877  1.2548  0.5980 -0.2451
  190SAPI  H15X22023   2.006   5.560   4.869  2.0647  0.3993  0.4304
  190SAPI  H15Y22024   2.134   5.683   4.867  1.8254  1.0757  4.5076
  190SAPI  C31622025   1.950   5.736   4.753  0.4077  0.6426 -0.0954
  190SAPI  H16X22026   1.960   5.845   4.766  0.2135  0.7609 -0.8665
  190SAPI  H16Y22027   1.841   5.713   4.752  0.4672  0.3147 -1.2309
  190SAPI  C31722028   2.008   5.687   4.616 -0.2043 -0.5230  1.1055
  190SAPI  H17X22029   2.021   5.577   4.622  0.5843 -0.4851  0.3529
  190SAPI  H17Y22030   2.113   5.724   4.614  0.7958 -2.9534 -3.1879
  190SAPI  C31822031   1.954   5.728   4.488 -1.2788 -0.8503 -0.1703
  190SAPI  H18X22032   1.845   5.709   4.473 -1.3000 -0.7523 -0.1427
  190SAPI  H18Y22033   2.016   5.683   4.408 -2.4335 -2.2894 -0.2878
  190SAPI  H18Z22034   1.962   5.838   4.469 -2.4038 -1.0783 -2.3338
  191SAPI   C1222035   3.664   0.984   2.256  0.1374 -0.5287 -0.4763
  191SAPI    H222036   3.661   0.947   2.361 -0.3545 -0.7899 -0.5828
  191SAPI    O222037   3.615   0.881   2.174 -0.5256 -0.1556 -0.0236
  191SAPI   HO222038   3.666   0.803   2.198  0.3888 -0.0511 -1.5215
  191SAPI   C1322039   3.590   1.118   2.247 -0.2065  0.3266  0.5228
  191SAPI    H322040   3.646   1.189   2.311 -2.6699  1.9965  0.9667
  191SAPI    O322041   3.462   1.116   2.312  0.0300 -0.2268  0.1751
  191SAPI   HO322042   3.458   1.186   2.378  2.1890 -0.3762  0.5614
  191SAPI   C1422043   3.581   1.166   2.109 -0.6904 -0.1154 -0.2048
  191SAPI    H422044   3.526   1.088   2.052 -1.2062  0.2262 -0.1755
  191SAPI    O422045   3.497   1.277   2.092 -0.1475 -0.7643 -0.3233
  191SAPI   HO422046   3.552   1.356   2.097  0.3887 -1.1182 -0.4799
  191SAPI   C1522047   3.713   1.171   2.039  0.0802 -0.4002 -0.1358
  191SAPI    H522048   3.765   1.266   2.066  1.2114 -0.2188 -2.6313
  191SAPI    O522049   3.693   1.176   1.894  0.0789 -0.4613  0.2810
  191SAPI   HO522050   3.768   1.226   1.861 -1.1187  1.1987 -0.0550
  191SAPI   C1622051   3.823   1.066   2.082  0.2083 -0.1849 -0.2215
  191SAPI    H622052   3.805   0.973   2.023  1.7258 -1.2473  0.8915
  191SAPI    O622053   3.956   1.116   2.060 -0.2616  0.2508  0.4677
  191SAPI   HO622054   4.021   1.064   2.107 -0.5274  0.5391  1.1627
  191SAPI   C1122055   3.809   1.015   2.225  0.2260  0.0446 -0.0631
  191SAPI    H122056   3.843   1.092   2.297  1.3307 -2.1635  1.9497
  191SAPI     P22057   4.027   0.880   2.324 -0.2625  0.1499  0.0112
  191SAPI   O1322058   4.109   0.986   2.259  0.5036 -0.1221 -0.0693
  191SAPI   O1422059   4.082   0.745   2.330 -0.1884 -0.0159  0.3611
  191SAPI   O1222060   3.888   0.893   2.244  0.8055 -0.0965 -0.4681
  191SAPI   O1122061   3.986   0.924   2.469 -0.3559  0.5341  0.2866
  191SAPI    C122062   4.039   1.039   2.540  0.1463 -0.0288  0.2127
  191SAPI    HA22063   4.013   1.130   2.482 -0.3765 -1.2948 -1.6452
  191SAPI    HB22064   3.991   1.033   2.640 -0.7937  0.4100 -0.2024
  191SAPI    C222065   4.195   1.043   2.551 -0.3161  0.3139 -0.6688
  191SAPI    HS22066   4.247   1.063   2.456 -1.8871  1.4617 -1.3330
  191SAPI   O2122067   4.246   0.928   2.614  0.1977 -0.2153 -0.2487
  191SAPI   C2122068   4.341   0.859   2.559  0.1253 -0.2626  0.2137
  191SAPI   O2222069   4.390   0.891   2.451  0.1601  0.0660 -0.1020
  191SAPI   C2222070   4.381   0.742   2.639 -0.7181  0.2824 -0.3982
  191SAPI   H2R22071   4.420   0.777   2.737  0.3870  0.3961 -0.8697
  191SAPI   H2S22072   4.292   0.683   2.671  0.2108  1.0681  4.4098
  191SAPI    C322073   4.235   1.173   2.627 -0.5891  0.2139 -0.4819
  191SAPI    HX22074   4.219   1.257   2.556 -0.3725  0.2767 -0.4565
  191SAPI    HY22075   4.345   1.169   2.640 -0.9568 -1.7579  3.3751
  191SAPI   O3122076   4.165   1.187   2.755  0.2245 -0.3808  0.0508
  191SAPI   C3122077   4.224   1.129   2.849  0.6138  0.8015 -0.0881
  191SAPI   O3222078   4.335   1.082   2.848 -0.9429 -0.1100  0.4478
  191SAPI   C3222079   4.140   1.134   2.977  0.3085  0.5495  0.1271
  191SAPI   H2X22080   4.169   1.046   3.040  0.1179  0.4183  0.0317
  191SAPI   H2Y22081   4.034   1.129   2.945 -0.0954 -1.8324  1.5248
  191SAPI   C2322082   4.497   0.651   2.570 -0.4301  0.0207 -0.0292
  191SAPI   H3R22083   4.581   0.718   2.541  0.1771 -1.0073 -0.7262
  191SAPI   H3S22084   4.463   0.615   2.470  1.2534  1.5617 -1.2354
  191SAPI   C2422085   4.539   0.527   2.659  0.4026 -0.4437  0.7498
  191SAPI   H4R22086   4.601   0.557   2.746 -0.4846  1.7344  0.7060
  191SAPI   H4S22087   4.610   0.470   2.595  1.0969  2.9926 -1.8180
  191SAPI   C2522088   4.428   0.435   2.707 -0.5988  0.3725 -0.2910
  191SAPI   H5R22089   4.373   0.379   2.629 -0.7986  1.8468 -1.2559
  191SAPI   C2622090   4.397   0.404   2.834 -0.6066 -0.7231  0.0585
  191SAPI   H6R22091   4.321   0.326   2.847 -1.3268  0.4288  4.7156
  191SAPI   C2722092   4.456   0.454   2.965 -0.4990  0.4341 -0.6904
  191SAPI   H7R22093   4.566   0.463   2.953 -0.3500 -0.7869 -0.3586
  191SAPI   H7S22094   4.429   0.389   3.051 -0.4576 -0.1912 -1.1521
  191SAPI   C2822095   4.401   0.592   2.997 -0.0496  0.1033 -0.4587
  191SAPI   H8R22096   4.380   0.653   2.908  1.3218 -1.7825 -2.1639
  191SAPI   C2922097   4.353   0.638   3.113 -0.0950 -0.2365  0.0621
  191SAPI   H9R22098   4.300   0.734   3.122  3.0343  1.6104  0.1353
  191SAPI  C21022099   4.342   0.557   3.234  0.2964 -0.7089 -0.2838
  191SAPI  H10R22100   4.413   0.471   3.235  0.4865 -0.5635 -0.7812
  191SAPI  H10S22101   4.240   0.516   3.217 -0.8993  1.6444  0.8399
  191SAPI  C21122102   4.356   0.637   3.364  0.1429 -0.1135 -0.7657
  191SAPI  H11R22103   4.381   0.744   3.361 -0.1866  0.1691  2.3710
  191SAPI  C21222104   4.302   0.601   3.479  0.4024  0.8982 -0.2411
  191SAPI  H12R22105   4.314   0.670   3.564  2.1660 -1.1758  1.3088
  191SAPI  C21322106   4.244   0.468   3.506 -0.2871  0.3485 -0.1539
  191SAPI  H13R22107   4.313   0.387   3.474 -2.5779 -0.8433 -2.4515
  191SAPI  H13S22108   4.160   0.439   3.439  0.3230  0.7023 -1.0902
  191SAPI  C21422109   4.207   0.453   3.649 -0.6053  0.3791  0.1916
  191SAPI  H14R22110   4.120   0.511   3.683  0.8191  2.3557  0.6615
  191SAPI  C21522111   4.280   0.393   3.751  0.6413  0.2340  0.3837
  191SAPI  H15R22112   4.231   0.378   3.849  0.2029 -0.4522  0.0640
  191SAPI  C21622113   4.416   0.324   3.746  0.3901  0.1306  0.0738
  191SAPI  H16R22114   4.457   0.340   3.644  1.7376  1.0192  0.7342
  191SAPI  H16S22115   4.398   0.214   3.744  0.2670  0.1409  0.4814
  191SAPI  C21722116   4.509   0.358   3.860 -0.4072  0.1953  0.1830
  191SAPI  H17R22117   4.493   0.462   3.897 -0.3985  1.0685 -2.1231
  191SAPI  H17S22118   4.613   0.349   3.821 -0.7214 -0.2925 -0.5494
  191SAPI  C21822119   4.494   0.260   3.980 -0.0001  0.0833  0.2069
  191SAPI  H18R22120   4.494   0.151   3.957 -1.2164  0.2302 -0.5946
  191SAPI  H18S22121   4.400   0.292   4.030  0.9642  2.4494  0.6787
  191SAPI  C21922122   4.594   0.274   4.096 -0.5067 -0.7646 -0.3767
  191SAPI  H19R22123   4.593   0.378   4.137 -1.4988 -0.3070 -1.5241
  191SAPI  H19S22124   4.694   0.276   4.048 -0.1603  1.2217  0.3331
  191SAPI  C22022125   4.579   0.173   4.205  0.0704  0.8856  0.1894
  191SAPI  H20R22126   4.638   0.084   4.174  2.4900  2.7204 -0.7421
  191SAPI  H20S22127   4.470   0.149   4.205 -0.1140  1.4058 -2.5532
  191SAPI  H20T22128   4.603   0.212   4.306 -0.6799  0.2732  0.6071
  191SAPI   C3322129   4.174   1.253   3.072  0.2962 -0.6220 -0.1707
  191SAPI   H3X22130   4.131   1.348   3.031  1.5372  0.0863  0.1264
  191SAPI   H3Y22131   4.282   1.277   3.074  0.1816 -0.0780 -0.1410
  191SAPI   C3422132   4.119   1.242   3.217  0.1981 -0.1196  0.6180
  191SAPI   H4X22133   4.009   1.233   3.212  0.2906 -1.6525  0.8377
  191SAPI   H4Y22134   4.142   1.332   3.278 -0.2066  0.3879  0.0302
  191SAPI   C3522135   4.166   1.113   3.289  0.1785  0.2501  0.6227
  191SAPI   H5X22136   4.273   1.089   3.272 -0.6950 -2.4930 -1.8766
  191SAPI   H5Y22137   4.110   1.028   3.245 -1.8085  0.9546  1.6390
  191SAPI   C3622138   4.113   1.101   3.433 -0.2561  0.5679  0.7223
  191SAPI   H6X22139   4.141   1.002   3.474 -3.9399 -0.3969  1.3198
  191SAPI   H6Y22140   4.003   1.088   3.424 -0.3402  2.0248 -1.0604
  191SAPI   C3722141   4.165   1.206   3.528  0.1339 -0.3088 -0.3451
  191SAPI   H7X22142   4.129   1.305   3.492 -2.3279 -0.5408  1.2358
  191SAPI   H7Y22143   4.275   1.198   3.520  0.1725 -0.7340  0.4871
  191SAPI   C3822144   4.121   1.182   3.676  0.3869 -0.1596  0.0635
  191SAPI   H8X22145   4.151   1.269   3.739  1.4278 -0.3825 -0.0998
  191SAPI   H8Y22146   4.175   1.095   3.719 -0.8177 -2.8358 -3.4136
  191SAPI   C3922147   3.968   1.191   3.697  0.4798  0.1460 -0.3348
  191SAPI   H9X22148   3.925   1.099   3.650  0.0510 -0.4959  1.2467
  191SAPI   H9Y22149   3.935   1.279   3.637  0.7822  0.3609 -0.1829
  191SAPI  C31022150   3.929   1.196   3.837  0.4979 -0.8656 -0.1588
  191SAPI  H10X22151   3.993   1.263   3.898  0.2134 -1.1147  0.4324
  191SAPI  H10Y22152   3.948   1.091   3.869 -0.5520 -0.0242  3.7653
  191SAPI  C31122153   3.776   1.217   3.860  0.5075 -0.0303  0.1733
  191SAPI  H11X22154   3.718   1.171   3.778  0.9535 -2.3286  1.0642
  191SAPI  H11Y22155   3.754   1.323   3.837  0.1324 -0.2942 -0.7253
  191SAPI  C31222156   3.710   1.181   3.998 -0.1955 -1.0238  0.0138
  191SAPI  H12X22157   3.609   1.228   4.002 -0.2951 -1.0855 -1.4149
  191SAPI  H12Y22158   3.771   1.216   4.084  0.7578  0.2977 -1.1713
  191SAPI  C31322159   3.703   1.034   4.019 -0.8429  0.6320  0.4155
  191SAPI  H13X22160   3.806   0.995   4.034 -1.1823  0.3095  2.1707
  191SAPI  H13Y22161   3.666   0.976   3.932  2.9030 -1.4474  0.0313
  191SAPI  C31422162   3.616   0.981   4.134 -0.0235  0.1344  0.1295
  191SAPI  H14X22163   3.602   0.874   4.107  2.1555 -0.4769  1.2085
  191SAPI  H14Y22164   3.519   1.036   4.137 -0.6229 -0.8837  0.2632
  191SAPI  C31522165   3.682   0.988   4.270  0.6824  0.0238 -0.2889
  191SAPI  H15X22166   3.693   1.094   4.304 -0.2277 -0.7913  2.8826
  191SAPI  H15Y22167   3.780   0.936   4.273 -0.3319 -2.0224 -1.3396
  191SAPI  C31622168   3.574   0.956   4.377  0.6198  0.0349 -0.6510
  191SAPI  H16X22169   3.534   0.853   4.361 -1.1775  0.3010  1.6344
  191SAPI  H16Y22170   3.486   1.023   4.365 -1.3774 -2.2695  0.3062
  191SAPI  C31722171   3.630   0.972   4.516  0.6534 -0.1623 -0.2334
  191SAPI  H17X22172   3.663   1.076   4.536 -1.7417  0.0922  3.2981
  191SAPI  H17Y22173   3.716   0.902   4.511  0.5925 -0.1879 -1.2803
  191SAPI  C31822174   3.532   0.924   4.622 -0.0978 -0.6282 -0.7070
  191SAPI  H18X22175   3.565   0.935   4.728 -1.6793 -1.1949 -0.1240
  191SAPI  H18Y22176   3.501   0.817   4.611  0.9418 -0.9043 -1.0503
  191SAPI  H18Z22177   3.434   0.976   4.619  0.1564 -0.1916 -2.0907
  192SAPI   C1222178   1.198   0.172   2.069  0.2722 -0.1483 -0.3042
  192SAPI    H222179   1.146   0.100   2.136  1.8812 -0.0221  1.1618
  192SAPI    O222180   1.151   0.303   2.111  0.3485  0.2818 -0.3250
  192SAPI   HO222181   1.095   0.338   2.042  0.7076  0.4762 -0.5199
  192SAPI   C1322182   1.344   0.153   2.104  0.1524  0.3118  0.4956
  192SAPI    H322183   1.375   0.055   2.063  3.1503  1.1963  0.4468
  192SAPI    O322184   1.367   0.156   2.242  0.1656  0.1665 -0.2990
  192SAPI   HO322185   1.461   0.139   2.254 -0.2887 -2.8755 -0.1389
  192SAPI   C1422186   1.426   0.268   2.037 -0.0722 -0.5714 -0.1641
  192SAPI    H422187   1.394   0.357   2.094  0.9535 -0.2045 -0.1410
  192SAPI    O422188   1.570   0.250   2.054 -0.3110  0.7961  0.3173
  192SAPI   HO422189   1.605   0.168   2.019  0.2223  1.3188 -0.4113
  192SAPI   C1522190   1.393   0.297   1.886 -0.2227  0.1006 -0.1652
  192SAPI    H522191   1.461   0.229   1.830 -2.2667 -2.8700  0.7374
  192SAPI    O522192   1.411   0.430   1.850  0.6354 -0.5765 -0.2062
  192SAPI   HO522193   1.337   0.482   1.882  0.5049 -0.3980 -0.7998
  192SAPI   C1622194   1.253   0.244   1.837 -0.3860  0.2893 -0.0054
  192SAPI    H622195   1.180   0.326   1.821 -1.0288 -0.7417 -3.0023
  192SAPI    O622196   1.264   0.202   1.706  0.0206  0.0409 -0.2393
  192SAPI   HO622197   1.297   0.112   1.706  0.6009  0.1899  1.9489
  192SAPI   C1122198   1.179   0.145   1.919  0.6258  0.7297 -0.5442
  192SAPI    H122199   1.224   0.045   1.904 -0.2886  0.2414 -0.1145
  192SAPI     P22200   0.959   0.024   1.828  0.0030 -0.3632 -0.2207
  192SAPI   O1322201   1.050  -0.062   1.754 -0.1583 -0.5999 -0.3452
  192SAPI   O1422202   0.851   0.081   1.742  0.0526  0.3204  0.1660
  192SAPI   O1222203   1.042   0.140   1.894 -0.3500 -0.4422 -0.0440
  192SAPI   O1122204   0.893  -0.054   1.948  0.3205  0.4360 -0.2435
  192SAPI    C122205   0.965  -0.150   2.033 -0.8140  0.2139 -0.0036
  192SAPI    HA22206   0.962  -0.253   1.990  0.2821 -0.0064  0.4005
  192SAPI    HB22207   1.071  -0.120   2.047 -0.6356  0.1120 -1.0580
  192SAPI    C222208   0.901  -0.152   2.176  0.5623 -0.0359  0.0642
  192SAPI    HS22209   0.793  -0.171   2.160  0.4312 -0.8703  1.7945
  192SAPI   O2122210   0.922  -0.037   2.246  0.1187 -0.2270  0.5207
  192SAPI   C2122211   0.834   0.061   2.229 -0.6209  0.5868  0.3619
  192SAPI   O2222212   0.736   0.055   2.154 -0.0747 -0.0175  0.2232
  192SAPI   C2222213   0.872   0.182   2.313 -0.3192 -1.0191  0.0119
  192SAPI   H2R22214   0.824   0.164   2.412 -2.4030 -0.8716 -0.9218
  192SAPI   H2S22215   0.980   0.208   2.311 -0.1122 -1.9280 -1.6632
  192SAPI    C322216   0.948  -0.270   2.265  0.2286 -0.0895 -0.5182
  192SAPI    HX22217   1.058  -0.269   2.253  0.3266  1.1637  0.2541
  192SAPI    HY22218   0.911  -0.368   2.229  2.7742 -0.9663 -0.8967
  192SAPI   O3122219   0.906  -0.251   2.412  0.5411 -0.2552 -0.2034
  192SAPI   C3122220   0.993  -0.192   2.491  0.5123  0.1017 -0.7665
  192SAPI   O3222221   1.113  -0.177   2.475 -0.6701  0.3385 -0.4189
  192SAPI   C3222222   0.924  -0.152   2.625 -0.7187 -0.9949 -0.1029
  192SAPI   H2X22223   0.839  -0.218   2.650 -0.3460 -0.9137  1.5064
  192SAPI   H2Y22224   0.894  -0.045   2.615  0.2683 -0.7625 -0.6992
  192SAPI   C2322225   0.812   0.313   2.250  0.2029  0.2614 -0.5340
  192SAPI   H3R22226   0.707   0.287   2.224 -0.2759  0.5476  0.9718
  192SAPI   H3S22227   0.871   0.331   2.158  1.7161 -0.5359  0.2436
  192SAPI   C2422228   0.800   0.441   2.340  0.3807 -0.4207 -0.2030
  192SAPI   H4R22229   0.750   0.511   2.270  0.1626  0.0216  0.3850
  192SAPI   H4S22230   0.898   0.490   2.354 -0.1224  1.0138 -1.3669
  192SAPI   C2522231   0.728   0.425   2.473  0.5210 -0.2442  0.3269
  192SAPI   H5R22232   0.652   0.345   2.472  1.1284 -0.8688 -1.4757
  192SAPI   C2622233   0.732   0.504   2.586 -0.2451  0.2934 -0.1458
  192SAPI   H6R22234   0.673   0.483   2.676  0.8159 -0.1169  0.4671
  192SAPI   C2722235   0.807   0.634   2.611 -0.2772  0.4149  0.1137
  192SAPI   H7R22236   0.746   0.724   2.633 -0.5737  0.2099  0.1346
  192SAPI   H7S22237   0.871   0.657   2.523  3.1026 -2.4514  1.5981
  192SAPI   C2822238   0.916   0.622   2.717 -0.3640  0.1293  0.1769
  192SAPI   H8R22239   1.011   0.597   2.668 -0.9381 -0.9270 -0.4287
  192SAPI   C2922240   0.897   0.621   2.855  0.0092  0.3980  0.5109
  192SAPI   H9R22241   0.988   0.609   2.916 -0.1798 -0.4067  0.6445
  192SAPI  C21022242   0.767   0.658   2.918  0.1253 -0.2458  0.1453
  192SAPI  H10R22243   0.722   0.567   2.963 -0.0431  0.1362  0.7707
  192SAPI  H10S22244   0.683   0.688   2.852 -1.8907 -0.3390  2.5180
  192SAPI  C21122245   0.781   0.760   3.025  0.0327 -0.4809 -0.2389
  192SAPI  H11R22246   0.760   0.865   2.999  1.6000 -0.2762 -0.7441
  192SAPI  C21222247   0.823   0.731   3.149 -0.0809  0.1843 -0.4509
  192SAPI  H12R22248   0.848   0.817   3.214  2.9527  1.0611 -2.5662
  192SAPI  C21322249   0.866   0.601   3.208  0.8088  0.1293 -0.1734
  192SAPI  H13R22250   0.895   0.530   3.128  0.5174  0.9061 -0.9896
  192SAPI  H13S22251   0.772   0.556   3.248  0.2560  1.2661 -0.1624
  192SAPI  C21422252   0.975   0.619   3.314 -0.2749 -0.0224  0.2291
  192SAPI  H14R22253   1.073   0.646   3.274 -0.2628 -0.9292 -0.3780
  192SAPI  C21522254   0.965   0.601   3.449 -0.0121  0.2274 -0.4473
  192SAPI  H15R22255   1.058   0.608   3.507 -1.5858  3.0110  1.9534
  192SAPI  C21622256   0.839   0.565   3.517  0.0918 -0.1947 -0.0150
  192SAPI  H16R22257   0.841   0.462   3.558  2.4173 -0.2359 -0.0957
  192SAPI  H16S22258   0.755   0.587   3.447  0.3829 -2.1980 -1.0638
  192SAPI  C21722259   0.806   0.657   3.640 -0.1958 -0.1367 -0.4834
  192SAPI  H17R22260   0.713   0.622   3.690 -0.1414  1.9836  1.2530
  192SAPI  H17S22261   0.801   0.763   3.606  0.3302  0.9210  2.4304
  192SAPI  C21822262   0.906   0.654   3.762  0.0047  1.1651 -0.4367
  192SAPI  H18R22263   1.009   0.671   3.725 -0.3982  0.0361 -2.2140
  192SAPI  H18S22264   0.899   0.550   3.800 -1.1139  2.1527  2.2967
  192SAPI  C21922265   0.866   0.748   3.870 -0.2833 -0.0837 -0.7735
  192SAPI  H19R22266   0.757   0.741   3.891 -0.6936 -1.4494 -3.0442
  192SAPI  H19S22267   0.893   0.853   3.844 -2.7475  0.9199  0.3892
  192SAPI  C22022268   0.943   0.725   4.002  0.2432  0.2984 -0.4448
  192SAPI  H20R22269   0.973   0.827   4.033  1.7254  0.2581 -1.6608
  192SAPI  H20S22270   1.034   0.668   3.975  0.5134  0.8558 -0.7239
  192SAPI  H20T22271   0.874   0.677   4.076  1.9206  1.3627  1.9339
  192SAPI   C3322272   1.026  -0.152   2.743 -0.0844  0.1197  0.0060
  192SAPI   H3X22273   1.126  -0.105   2.726 -1.1259  1.7220 -2.1827
  192SAPI   H3Y22274   1.046  -0.254   2.781  0.8121 -0.2558 -1.3869
  192SAPI   C3422275   0.956  -0.072   2.852 -0.4550  0.6388 -0.5147
  192SAPI   H4X22276   0.852  -0.108   2.865  0.2844 -2.1416 -1.5801
  192SAPI   H4Y22277   0.953   0.034   2.820 -0.3403  0.1038 -2.3907
  192SAPI   C3522278   1.038  -0.076   2.983 -0.0086  0.0225 -0.3648
  192SAPI   H5X22279   1.135  -0.027   2.963  1.1343 -3.4229 -5.0274
  192SAPI   H5Y22280   1.042  -0.180   3.021  0.6881  0.3783  0.5756
  192SAPI   C3622281   0.968   0.003   3.091 -0.1067  1.1063 -0.2477
  192SAPI   H6X22282   0.873  -0.046   3.119  0.3761  0.5957  0.5693
  192SAPI   H6Y22283   0.951   0.100   3.039 -1.9987  1.1998  0.4826
  192SAPI   C3722284   1.053  -0.003   3.216 -0.1726 -0.1222 -0.2246
  192SAPI   H7X22285   1.046   0.103   3.251 -0.3403  0.2562 -1.3679
  192SAPI   H7Y22286   1.156  -0.043   3.203 -0.4366 -0.5842 -0.9556
  192SAPI   C3822287   1.003  -0.090   3.336 -0.0683 -1.0723  0.2641
  192SAPI   H8X22288   0.997  -0.197   3.306 -2.1584 -1.4527  1.7955
  192SAPI   H8Y22289   0.898  -0.075   3.369  0.1832 -1.7101  1.4250
  192SAPI   C3922290   1.100  -0.082   3.451 -0.3858  0.1177 -0.6942
  192SAPI   H9X22291   1.096   0.022   3.489  0.3423  1.1079 -3.1149
  192SAPI   H9Y22292   1.204  -0.096   3.412 -0.4839 -0.6465 -0.6979
  192SAPI  C31022293   1.093  -0.177   3.569  0.1335  0.2669 -0.0401
  192SAPI  H10X22294   1.183  -0.136   3.621  0.6961  1.4952 -1.8983
  192SAPI  H10Y22295   1.122  -0.279   3.537 -0.0489  0.7224 -1.7565
  192SAPI  C31122296   0.976  -0.160   3.645  0.8317 -0.2381  0.4948
  192SAPI  H11X22297   0.897  -0.197   3.576  1.3785  0.8072 -0.7313
  192SAPI  H11Y22298   0.958  -0.050   3.638  1.8866 -0.1237 -0.7518
  192SAPI  C31222299   0.978  -0.206   3.787 -0.4308  0.6830 -0.4036
  192SAPI  H12X22300   1.080  -0.196   3.830 -0.4653  0.3026 -0.2315
  192SAPI  H12Y22301   0.951  -0.314   3.792  0.2539  0.4476 -1.2720
  192SAPI  C31322302   0.881  -0.140   3.890 -0.0543 -0.2525 -0.0111
  192SAPI  H13X22303   0.782  -0.152   3.842 -0.7500  0.9163  1.0768
  192SAPI  H13Y22304   0.892  -0.029   3.892  1.3132 -0.3474 -0.9919
  192SAPI  C31422305   0.886  -0.209   4.026 -0.2821  0.2494 -0.0092
  192SAPI  H14X22306   0.984  -0.176   4.067 -0.1146 -0.3257  0.0590
  192SAPI  H14Y22307   0.897  -0.316   4.001  0.9459  0.1069  1.0308
  192SAPI  C31522308   0.776  -0.159   4.116 -0.3482 -0.5847 -0.1421
  192SAPI  H15X22309   0.674  -0.162   4.070 -0.3999  4.2105 -0.9168
  192SAPI  H15Y22310   0.794  -0.051   4.138  1.0517 -0.6654 -0.8112
  192SAPI  C31622311   0.774  -0.227   4.255  0.0617  0.5181  0.3075
  192SAPI  H16X22312   0.780  -0.333   4.221 -0.2314  0.9833 -1.2919
  192SAPI  H16Y22313   0.682  -0.207   4.313  0.8583  3.1586  0.7763
  192SAPI  C31722314   0.895  -0.190   4.337 -0.2258  0.1950  0.3072
  192SAPI  H17X22315   0.913  -0.082   4.321 -2.1575  0.5750  0.4675
  192SAPI  H17Y22316   0.990  -0.237   4.302 -0.5031 -0.2423  0.1268
  192SAPI  C31822317   0.870  -0.208   4.482  0.2975  0.3783 -0.3729
  192SAPI  H18X22318   0.776  -0.163   4.522 -0.0143  0.5275 -1.2388
  192SAPI  H18Y22319   0.957  -0.165   4.536 -1.1346  2.8007  0.1986
  192SAPI  H18Z22320   0.861  -0.316   4.506  2.7448  0.3714  0.8471
  193SOD    SOD22321   0.739   4.739   8.855 -0.0249  0.2946 -0.0939
  194SOD    SOD22322   6.277   4.695   1.883  0.1620  0.3749  0.1226
  195SOD    SOD22323   3.676   4.224   1.486 -0.2466 -0.0790  0.2734
  196SOD    SOD22324   1.482   1.883   2.177  0.0112 -0.0763 -0.1862
  197SOD    SOD22325   4.553   5.604   7.234  0.6305 -0.1138  0.2349
  198SOD    SOD22326   2.787   5.035   1.119  0.2229 -0.0742  0.4402
  199SOD    SOD22327   0.218   5.457   2.378 -0.3703  0.0073  0.0160
  200SOD    SOD22328   1.576   2.375   6.683 -0.5719  0.0715  0.2989
  201SOD    SOD22329   3.444   0.434   8.589 -0.7742  0.1402 -0.4184
  202SOD    SOD22330   5.429   2.811   0.894 -0.2141  0.0704  0.0982
  203SOD    SOD22331   3.746   6.741   0.085 -0.4724  0.1562  0.1394
  204SOD    SOD22332   1.631   0.955   7.971  0.0465 -0.3065 -0.3724
  205SOD    SOD22333   4.630   4.981   8.349  0.1717 -0.5588 -0.7557
  206SOD    SOD22334   1.604   2.278   7.626 -0.0803 -0.7168 -0.0113
  207SOD    SOD22335   3.429   0.192   2.359 -0.0137 -0.2179 -0.2888
  208SOD    SOD22336   5.694   2.940   2.353 -0.0929  0.2122  0.3474
  209SOD    SOD22337   0.735   0.850   0.554  0.4761 -0.2158  0.0001
  210SOD    SOD22338   2.015   6.202   1.574 -0.4306 -0.2109  0.1527
  211SOD    SOD22339   3.541   3.438   6.334 -0.2180  0.1852  0.5768
  212SOD    SOD22340   0.446   4.031   8.445  0.3393 -0.5078 -0.8367
  213SOD    SOD22341   1.831   5.152   2.092  0.1661 -0.3748 -0.5156
  214SOD    SOD22342   0.617   6.012   7.637 -0.3696  0.6902 -0.5056
  215SOD    SOD22343   4.042   1.173   1.404 -0.7305  0.4131  0.1509
  216SOD    SOD22344   1.773   3.337   6.463 -0.3507 -0.1701  0.4497
  217SOD    SOD22345   4.389   0.683   1.860  0.0882  0.4596 -0.0627
  218SOD    SOD22346   0.944   1.755   1.012 -0.1337 -0.3818 -0.0899
  219SOD    SOD22347   1.697   6.613   0.366 -0.5157 -0.6162  0.1871
  220SOD    SOD22348   3.659   2.359   1.042  0.3439 -0.2973  0.1023
  221SOD    SOD22349   3.557   1.625   7.109 -0.2812  0.4354  0.0257
  222SOD    SOD22350   2.778   3.331   6.461  0.4490  0.1969 -0.0280
  223SOD    SOD22351   3.134   5.645   0.279  0.5220  0.0354  0.1958
  224SOD    SOD22352   5.187   0.929   8.068  0.4914 -0.1947 -0.5032
  225SOD    SOD22353   3.982   3.142   6.218  0.1426 -0.0448 -0.0488
  226SOD    SOD22354   3.755   6.521   0.957  0.5093  0.3607  0.5006
  227SOD    SOD22355   5.023   4.149   6.700  0.5195  0.3906  0.1774
  228SOD    SOD22356   4.872   1.445   1.865  0.2771  0.4387  0.6875
  229SOD    SOD22357   4.396   0.988   1.132 -0.0086 -0.3563  0.2616
  230CLA    CLA22358   1.284   4.826   0.073 -0.2223  0.1567 -0.9312
  231CLA    CLA22359   5.542   4.505   1.417 -0.3101  0.0119 -0.2168
  232CLA    CLA22360   3.969   3.972   7.348  0.2782  0.4226  0.7062
  233CLA    CLA22361   4.228   1.298   1.569 -0.0727 -0.2704 -0.0898
  234CLA    CLA22362   2.253   6.333   1.206 -0.0750 -0.3608  0.0426
  235CLA    CLA22363   3.870   4.631   0.405  0.4046 -0.0663  0.5054
  236CLA    CLA22364   2.049   6.324   0.015  0.8421  0.1053 -0.0132
  237CLA    CLA22365   3.101   3.011   0.084 -0.4844  0.1023 -0.1031
  238CLA    CLA22366   4.647   4.100   1.378 -0.0874  0.4580 -0.1565
  239CLA    CLA22367   0.053   6.341   8.445  0.1279 -0.3856  0.0960
  240CLA    CLA22368   0.827   2.050   9.035 -0.2921 -0.1639  0.2615
  241CLA    CLA22369   4.378   6.176   1.610 -0.0152  0.5457 -0.1848
  242CLA    CLA22370   6.654   1.947   0.814 -0.2888  0.3860 -0.1157
  243CLA    CLA22371   2.729   0.670   0.356  0.4340  0.4370 -0.0845
  244CLA    CLA22372   6.611   4.010   8.128 -0.1184 -0.0048 -0.3009
  245CLA    CLA22373   4.107   1.637   0.332  0.1729  0.2235 -0.0749
  246CLA    CLA22374   2.570   5.553   0.002 -0.4912 -0.3668 -0.0683
  247TIP3   OH222375   3.086   1.056   0.358 -0.1271 -0.5689  0.1985
  247TIP3    H122376   3.093   1.132   0.416  0.0835 -0.0872 -0.4354
  247TIP3    H222377   2.993   1.050   0.338 -0.0028  0.3384 -0.7751
  248TIP3   OH222378   0.734   0.055   1.505  0.9660 -0.4126 -0.1008
  248TIP3    H122379   0.772   0.038   1.591  0.0858 -1.9965  0.0243
  248TIP3    H222380   0.770  -0.015   1.450  1.5617  0.6203 -1.0396
  249TIP3   OH222381   2.200   4.266   7.595 -0.0911 -0.4090  0.4279
  249TIP3    H122382   2.161   4.308   7.672 -1.3693 -1.2729  0.2841
  249TIP3    H222383   2.275   4.217   7.630  0.3823  0.6051  0.8481
  250TIP3   OH222384   4.363   5.381   9.000 -0.0526 -0.3025 -0.4043
  250TIP3    H122385   4.455   5.405   8.991  0.2094 -1.5369 -1.4896
  250TIP3    H222386   4.341   5.341   8.915 -1.1662 -1.3287  0.3420
  251TIP3   OH222387   0.220   2.911   7.691 -0.2645 -0.2822 -0.7448
  251TIP3    H122388   0.131   2.878   7.677 -0.2098  0.6494 -4.0808
  251TIP3    H222389   0.276   2.847   7.648  0.3532  0.8549 -1.6848
  252TIP3   OH222390   3.197   4.123   0.729  0.1122 -0.4777 -0.1505
  252TIP3    H122391   3.260   4.078   0.784  1.2804  1.9041  0.5932
  252TIP3    H222392   3.250   4.183   0.676 -1.4798  2.9509  1.7831
  253TIP3   OH222393   4.537   4.669   0.562  0.1057 -0.3014 -0.6184
  253TIP3    H122394   4.548   4.762   0.583 -0.8360 -0.2252 -0.4286
  253TIP3    H222395   4.457   4.666   0.509  0.9558 -0.8225 -1.9274
  254TIP3   OH222396   4.592   5.267   0.176 -0.3579  0.3422 -0.3997
  254TIP3    H122397   4.617   5.321   0.101  0.8703  1.0646  0.4917
  254TIP3    H222398   4.543   5.327   0.233  0.1258  0.2382  0.1267
  255TIP3   OH222399   4.577   2.825   7.576 -0.2004  0.2409  0.3221
  255TIP3    H122400   4.595   2.776   7.496 -0.7546  1.0430 -0.3198
  255TIP3    H222401   4.530   2.903   7.546  2.1730  2.0996  1.0697
  256TIP3   OH222402   5.397   1.903   2.123 -0.4852 -0.0409  0.0480
  256TIP3    H122403   5.380   1.814   2.155  2.1151 -0.8612 -0.6373
  256TIP3    H222404   5.468   1.935   2.177  1.2171  0.0987 -2.1589
  257TIP3   OH222405   6.654   1.313   8.788 -0.4393  0.0188 -0.0446
  257TIP3    H122406   6.746   1.337   8.776 -0.2306 -0.2494  0.9672
  257TIP3    H222407   6.655   1.240   8.850 -1.2583 -0.8459 -1.0019
  258TIP3   OH222408   0.561   2.055   8.355 -0.1618 -0.1490 -0.0839
  258TIP3    H122409   0.571   2.040   8.261  1.6747 -1.1210  0.2001
  258TIP3    H222410   0.634   2.113   8.378 -0.8063  0.3746  0.6844
  259TIP3   OH222411   0.616   2.958   8.480  0.8408  0.6382  0.1001
  259TIP3    H122412   0.601   2.917   8.565  2.4689 -0.3553 -0.0441
  259TIP3    H222413   0.606   3.052   8.496  0.0330  0.3853  1.1293
  260TIP3   OH222414   6.526   0.975   7.791 -0.0890 -0.1286  0.5543
  260TIP3    H122415   6.499   1.017   7.873 -1.3660 -2.4119  1.4017
  260TIP3    H222416   6.575   0.897   7.819  0.2012 -0.4939 -0.8741
  261TIP3   OH222417   3.520   1.131   7.103  0.8713  0.4940 -0.3615
  261TIP3    H122418   3.460   1.105   7.033  0.6740 -0.4990  0.1669
  261TIP3    H222419   3.508   1.066   7.171  0.8530  1.6129  0.7429
  262TIP3   OH222420   3.601   2.942   7.185  0.4674 -0.1427  0.2504
  262TIP3    H122421   3.527   2.887   7.159 -0.0068  1.4036 -1.9230
  262TIP3    H222422   3.562   3.026   7.207  1.3320 -0.1734  2.0199
  263TIP3   OH222423   3.413   0.505   7.003  0.0987  0.4306 -0.3237
  263TIP3    H122424   3.500   0.515   6.963 -0.0721  0.9756 -0.5620
  263TIP3    H222425   3.404   0.582   7.058  1.0698 -1.1239  2.1971
  264TIP3   OH222426   2.000   2.078   8.487 -0.0920 -1.0380  0.5626
  264TIP3    H122427   2.034   2.145   8.427 -1.8502 -0.8352 -0.2745
  264TIP3    H222428   2.071   2.015   8.495  0.6555 -0.4067 -0.7332
  265TIP3   OH222429   3.361   5.389   2.462 -0.3276 -0.3362 -0.5784
  265TIP3    H122430   3.276   5.423   2.490 -0.6512  0.3002 -2.2096
  265TIP3    H222431   3.402   5.463   2.415  1.0690 -0.6804  0.0486
  266TIP3   OH222432   3.763   0.134   2.213 -0.7679 -0.4197  0.5622
  266TIP3    H122433   3.681   0.102   2.250 -1.4245  0.8841  0.3110
  266TIP3    H222434   3.770   0.224   2.245  0.3952 -0.3867  0.2839
  267TIP3   OH222435   4.903   5.970   6.934  0.1390  0.4283  0.3887
  267TIP3    H122436   4.880   5.882   6.964 -0.9122  0.6556  0.2844
  267TIP3    H222437   4.823   6.004   6.894  1.7684 -0.4527 -4.2490
  268TIP3   OH222438   2.542   1.985   8.814  0.0327 -0.3387  0.6083
  268TIP3    H122439   2.596   1.935   8.876 -0.6345  0.3907  1.8072
  268TIP3    H222440   2.519   1.922   8.746  2.6762 -0.5963 -0.1598
  269TIP3   OH222441   1.635   2.574   1.761  0.2804  0.4207 -0.2759
  269TIP3    H122442   1.569   2.583   1.829 -0.1107  0.8432 -0.7039
  269TIP3    H222443   1.654   2.480   1.758 -2.5054 -0.1948 -2.1857
  270TIP3   OH222444   4.076   3.440   7.289  0.1574  0.5148 -0.1604
  270TIP3    H122445   4.091   3.527   7.325  1.0991  0.8894 -1.3950
  270TIP3    H222446   4.051   3.387   7.365 -2.2903  2.2232  0.3336
  271TIP3   OH222447   5.340   2.398   8.968  0.3969 -0.2093  0.1703
  271TIP3    H122448   5.423   2.426   9.007  0.7555 -0.5663 -0.3247
  271TIP3    H222449   5.288   2.365   9.041  0.0538  1.4808  0.7467
  272TIP3   OH222450   3.356   1.962   0.923  0.3253 -0.1038 -0.1747
  272TIP3    H122451   3.412   1.889   0.896  0.1800 -0.3807  0.2683
  272TIP3    H222452   3.268   1.925   0.926  0.6033 -0.7980  3.0835
  273TIP3   OH222453   4.803   3.247   1.002  0.1554  0.0011  0.1887
  273TIP3    H122454   4.745   3.221   1.074 -0.4030  1.1544  0.1728
  273TIP3    H222455   4.878   3.287   1.045  0.3564 -0.3519  0.1670
  274TIP3   OH222456   0.176   6.533   1.887 -0.0659 -0.0480  0.1022
  274TIP3    H122457   0.210   6.620   1.908  0.4671 -0.3087  0.3372
  274TIP3    H222458   0.081   6.544   1.884 -0.0815  0.2807  1.3637
  275TIP3   OH222459   0.661   2.983   0.184 -0.1827 -0.1952  0.5667
  275TIP3    H122460   0.659   2.889   0.163 -0.1772  0.1289 -1.0037
  275TIP3    H222461   0.645   3.026   0.100 -0.4943  1.2136  1.3328
  276TIP3   OH222462   0.427   1.364   0.282  1.0926 -0.3598 -0.5441
  276TIP3    H122463   0.484   1.403   0.216  0.9640  0.3763 -0.2224
  276TIP3    H222464   0.393   1.285   0.241 -1.2112  1.4948 -2.4633
  277TIP3   OH222465   1.233   3.904   7.805  0.4062  0.2782  0.8756
  277TIP3    H122466   1.252   3.813   7.831 -3.3919 -0.2795  2.3922
  277TIP3    H222467   1.234   3.902   7.710  1.9937 -0.9035  0.8632
  278TIP3   OH222468   5.598   3.596   1.860  0.2695 -0.8066 -0.1814
  278TIP3    H122469   5.585   3.531   1.791  1.5090 -0.6857 -0.5544
  278TIP3    H222470   5.628   3.546   1.935 -1.1505 -0.9472  0.3177
  279TIP3   OH222471   6.286   2.107   8.903 -0.1487  0.5102  0.0888
  279TIP3    H122472   6.375   2.138   8.885 -0.3653  0.9029 -0.3164
  279TIP3    H222473   6.255   2.074   8.819  0.0569 -0.7846  0.4934
  280TIP3   OH222474   0.503   2.851   7.589 -0.5491 -0.4036  0.2036
  280TIP3    H122475   0.468   2.937   7.609 -0.3073 -0.1688 -0.3803
  280TIP3    H222476   0.500   2.844   7.494  0.7463 -0.4653  0.1468
  281TIP3   OH222477   4.618   5.659   8.495 -0.2486 -0.4161  0.3940
  281TIP3    H122478   4.547   5.599   8.519  0.4578 -1.5634 -0.3200
  281TIP3    H222479   4.685   5.644   8.562 -0.1236 -0.3188  0.2911
  282TIP3   OH222480   4.149   1.319   8.550 -0.2012  0.1252 -0.0253
  282TIP3    H122481   4.060   1.300   8.522 -0.1368  0.6803 -0.6484
  282TIP3    H222482   4.173   1.398   8.501  1.1423 -0.8172 -0.9579
  283TIP3   OH222483   6.288   3.905   1.863  0.0619  0.0510  0.5756
  283TIP3    H122484   6.317   3.844   1.795 -0.7488  1.2896 -0.9605
  283TIP3    H222485   6.246   3.849   1.929  2.2074 -1.3327  0.8756
  284TIP3   OH222486   6.725   3.146   8.211 -0.3390  0.3517 -0.1173
  284TIP3    H122487   6.630   3.159   8.208 -0.6111 -1.4779 -1.3738
  284TIP3    H222488   6.738   3.057   8.177  1.9875  1.2895 -1.9421
  285TIP3   OH222489   5.270   1.414   8.658 -0.3943  0.1136  0.2271
  285TIP3    H122490   5.272   1.384   8.567  1.1938  1.5882 -0.2876
  285TIP3    H222491   5.203   1.360   8.700 -0.1428 -1.6055 -1.4534
  286TIP3   OH222492   5.322   5.377   0.841  0.5170 -0.2622  0.3727
  286TIP3    H122493   5.286   5.429   0.912  0.8764  0.4469  0.0416
  286TIP3    H222494   5.246   5.354   0.787  0.5696  1.6067 -0.5695
  287TIP3   OH222495   3.997   0.137   0.951 -0.3434  0.5187 -0.0668
  287TIP3    H122496   3.914   0.170   0.916  0.0188 -0.4065 -1.9124
  287TIP3    H222497   3.972   0.067   1.011 -0.9289  0.2631 -0.5916
  288TIP3   OH222498   0.571   1.686   8.792 -0.0346 -0.2739  0.5414
  288TIP3    H122499   0.583   1.733   8.874  0.0534  1.8621 -0.6178
  288TIP3    H222500   0.628   1.731   8.730  2.0755 -3.5573 -0.1421
  289TIP3   OH222501   0.614   4.112   8.614  0.3273 -0.2928  0.0206
  289TIP3    H122502   0.683   4.048   8.597  1.3023  0.5403  0.7103
  289TIP3    H222503   0.583   4.092   8.703 -0.9174 -1.1688 -0.5720
  290TIP3   OH222504   6.514   2.823   8.793  0.1342 -0.5280  0.2380
  290TIP3    H122505   6.420   2.832   8.779  0.3115  0.0777 -0.5769
  290TIP3    H222506   6.521   2.753   8.858 -0.9178  0.0631  1.0214
  291TIP3   OH222507   2.254   4.744   0.547  0.3279  0.3665 -0.3946
  291TIP3    H122508   2.224   4.793   0.623  0.6545  1.3539 -0.8800
  291TIP3    H222509   2.329   4.794   0.514  0.2714 -0.1056 -1.2927
  292TIP3   OH222510   1.397   4.617   0.285  0.0183 -0.4968  0.3310
  292TIP3    H122511   1.377   4.685   0.221  1.3705 -1.2903 -1.0029
  292TIP3    H222512   1.479   4.579   0.255  2.3337  0.9753  4.0934
  293TIP3   OH222513   0.614   3.137   0.964 -0.5213 -0.3525 -0.4199
  293TIP3    H122514   0.634   3.053   0.922 -1.6092 -0.2131 -1.2672
  293TIP3    H222515   0.689   3.154   1.020 -0.6650 -2.3144  0.4390
  294TIP3   OH222516   6.596   4.639   7.654 -0.0591  0.1108  0.4932
  294TIP3    H122517   6.580   4.683   7.571 -1.1537 -0.2221  0.5104
  294TIP3    H222518   6.543   4.688   7.718  1.1065  0.6333  1.0804
  295TIP3   OH222519   0.999   5.598   0.862  0.2053 -0.2244 -0.4135
  295TIP3    H122520   1.016   5.576   0.953 -1.9091  0.3543  0.1769
  295TIP3    H222521   0.968   5.516   0.822  2.0608 -0.7271 -0.9190
  296TIP3   OH222522   1.652   4.102   1.261 -0.1620  0.0508  0.1371
  296TIP3    H122523   1.570   4.086   1.308 -0.9242  1.1268 -0.7560
  296TIP3    H222524   1.642   4.055   1.179  0.4027 -0.3568  0.2993
  297TIP3   OH222525   2.012   0.727   0.212 -0.3164  0.3888  0.0753
  297TIP3    H122526   2.013   0.738   0.117  0.6611 -1.3770 -0.1717
  297TIP3    H222527   2.101   0.699   0.233 -0.3794  1.2542  1.5912
  298TIP3   OH222528   1.993   4.591   8.072 -0.7216  0.6144 -0.5158
  298TIP3    H122529   1.971   4.579   8.164  1.7919  1.6816  0.3076
  298TIP3    H222530   2.058   4.661   8.072 -0.6221  0.6243 -3.1200
  299TIP3   OH222531   0.890   1.098   8.597 -0.0755  0.1530 -0.3018
  299TIP3    H122532   0.937   1.170   8.637 -0.8986  0.7231 -0.3432
  299TIP3    H222533   0.949   1.023   8.604  0.1301  0.4362  1.2150
  300TIP3   OH222534   6.675   1.282   2.367 -0.1310 -0.0336 -0.5230
  300TIP3    H122535   6.594   1.334   2.360 -0.3264 -0.1506  0.6844
  300TIP3    H222536   6.712   1.307   2.451  0.0140 -1.5022 -0.1268
  301TIP3   OH222537   2.222   0.916   1.517  0.6348 -0.4917 -0.2795
  301TIP3    H122538   2.231   0.959   1.432  0.2155 -1.6961 -0.9544
  301TIP3    H222539   2.156   0.849   1.504 -0.3693  0.1062  1.3454
  302TIP3   OH222540   1.949   5.222   7.050 -0.6733  0.1148 -0.1153
  302TIP3    H122541   1.982   5.145   7.005 -0.3428  0.8745 -1.2130
  302TIP3    H222542   1.977   5.211   7.141  1.1157 -0.1027 -0.6628
  303TIP3   OH222543   3.011   5.463   1.130 -0.5327  0.0411  0.0544
  303TIP3    H122544   2.973   5.499   1.210 -0.8647  1.3027 -0.6409
  303TIP3    H222545   2.940   5.465   1.066 -0.4650 -1.5670 -0.1331
  304TIP3   OH222546   0.901   4.832   0.996  0.5167  0.3129 -0.3121
  304TIP3    H122547   0.872   4.761   0.939  3.3092 -0.6237 -0.7170
  304TIP3    H222548   0.939   4.897   0.937  0.0208  1.1172  0.2287
  305TIP3   OH222549   3.952   1.957   8.905  0.1215  0.0868  0.5419
  305TIP3    H122550   3.904   1.982   8.984 -0.5456 -1.1482  0.5503
  305TIP3    H222551   3.914   2.011   8.835  0.5279  0.9870  1.0093
  306TIP3   OH222552   5.921   5.560   7.649  0.2469  0.3208 -0.4154
  306TIP3    H122553   5.996   5.573   7.708  1.4096 -1.5552 -1.3953
  306TIP3    H222554   5.846   5.593   7.699  1.4644  0.6902  1.2821
  307TIP3   OH222555   3.948   4.505   8.929 -0.4050 -0.0198  0.2311
  307TIP3    H122556   4.019   4.540   8.983 -0.1641 -1.0672  0.6025
  307TIP3    H222557   3.970   4.532   8.840 -0.0593  0.4949  0.4689
  308TIP3   OH222558   5.348   0.533   1.331 -0.1120  0.1890 -0.2075
  308TIP3    H122559   5.254   0.549   1.332 -0.2262 -0.4706  0.6018
  308TIP3    H222560   5.356   0.438   1.331  0.5611  0.1950 -2.5925
  309TIP3   OH222561   6.679   3.686   0.320 -0.4334 -0.2881 -0.2098
  309TIP3    H122562   6.660   3.716   0.408  1.6465  0.9455 -0.1323
  309TIP3    H222563   6.678   3.765   0.266  1.1776 -0.6052 -0.7490
  310TIP3   OH222564   2.523   4.857   8.091  0.2023 -0.0026  0.6761
  310TIP3    H122565   2.480   4.942   8.080  1.5722  0.6763  0.3320
  310TIP3    H222566   2.611   4.879   8.120  0.0098 -1.4029  2.4371
  311TIP3   OH222567   5.437   4.345   0.062 -1.1583 -0.6418  0.1927
  311TIP3    H122568   5.503   4.309   0.002 -1.4575 -1.5910  0.4053
  311TIP3    H222569   5.354   4.309   0.029 -1.3939 -0.6565  0.7925
  312TIP3   OH222570   4.896   3.211   1.871  1.3560  0.3881  0.4237
  312TIP3    H122571   4.910   3.265   1.948  1.4978  0.5708  0.2684
  312TIP3    H222572   4.821   3.156   1.894 -1.8978  3.7795 -1.0729
  313TIP3   OH222573   4.231   6.124   0.461 -0.1638  1.0026  0.0561
  313TIP3    H122574   4.273   6.184   0.400 -0.3748  1.3547  0.2516
  313TIP3    H222575   4.283   6.044   0.457  1.2049  1.7988  1.1035
  314TIP3   OH222576   0.215   0.103   8.225 -0.1417  0.3163 -0.4387
  314TIP3    H122577   0.283   0.050   8.184 -0.9503  0.3437 -1.8872
  314TIP3    H222578   0.258   0.145   8.299  0.8868 -1.2272 -0.1228
  315TIP3   OH222579   2.354   5.775   8.210 -0.4245  0.0118 -0.6935
  315TIP3    H122580   2.409   5.820   8.146 -0.6489 -0.2941 -1.1005
  315TIP3    H222581   2.279   5.743   8.160 -0.4792 -0.4417 -0.3249
  316TIP3   OH222582   2.622   3.535   1.425  0.1008 -0.2250  0.1858
  316TIP3    H122583   2.696   3.473   1.426  1.0209  0.8118 -0.8759
  316TIP3    H222584   2.547   3.483   1.454  0.9393 -1.7113 -0.1978
  317TIP3   OH222585   1.443   6.446   8.534  0.4904 -0.4914  0.4937
  317TIP3    H122586   1.491   6.486   8.461  3.0447 -1.8329  1.3159
  317TIP3    H222587   1.352   6.443   8.504  1.3241 -0.3940 -2.3652
  318TIP3   OH222588   6.267   1.555   0.503  0.1623 -0.5439  0.9800
  318TIP3    H122589   6.277   1.530   0.411 -0.1414 -1.0083  1.0729
  318TIP3    H222590   6.326   1.630   0.513 -0.5664  0.1643  0.1485
  319TIP3   OH222591   0.997   1.484   8.495 -0.1310 -0.2947  0.1465
  319TIP3    H122592   0.955   1.569   8.490 -0.4007 -0.4071  0.4836
  319TIP3    H222593   1.080   1.495   8.448  0.3668  0.4744  1.1683
  320TIP3   OH222594   3.060   3.645   7.179  0.0510 -0.1567  0.2346
  320TIP3    H122595   3.055   3.560   7.222 -0.1263 -0.1450  0.2372
  320TIP3    H222596   3.152   3.670   7.186 -0.0376 -0.0123  0.8818
  321TIP3   OH222597   3.298   4.438   7.788  0.2553  0.7542  0.4799
  321TIP3    H122598   3.341   4.469   7.867 -0.1969  0.4374  0.8580
  321TIP3    H222599   3.331   4.494   7.718  1.5338  0.3105  0.7015
  322TIP3   OH222600   5.263   5.056   0.276  0.1268  0.4641  0.0112
  322TIP3    H122601   5.186   5.112   0.287  0.1884  1.3326 -3.0742
  322TIP3    H222602   5.327   5.093   0.336 -0.4721  2.5442 -0.5295
  323TIP3   OH222603   3.821   2.466   0.903 -0.2387  0.2465  0.0855
  323TIP3    H122604   3.916   2.464   0.912 -0.0864 -0.2117 -1.3840
  323TIP3    H222605   3.806   2.472   0.809 -1.6670 -0.9550  0.1921
  324TIP3   OH222606   4.128   2.311   6.434 -0.4993  0.7093 -0.2941
  324TIP3    H122607   4.049   2.348   6.394  0.4390  1.0958 -1.8557
  324TIP3    H222608   4.170   2.385   6.478 -1.1977  0.4161  0.9076
  325TIP3   OH222609   4.184   5.224   7.127 -0.2929  0.5498 -0.3111
  325TIP3    H122610   4.156   5.151   7.182  0.6419  0.1837 -0.2980
  325TIP3    H222611   4.259   5.262   7.173  0.6224  0.1309 -1.3855
  326TIP3   OH222612   4.748   3.415   8.374  0.0813  0.8745 -0.4833
  326TIP3    H122613   4.717   3.505   8.369 -0.2112  0.9401  1.5077
  326TIP3    H222614   4.839   3.421   8.401  0.0816  0.5871 -0.4090
  327TIP3   OH222615   5.157   5.218   1.068  0.0631  0.5107  0.3205
  327TIP3    H122616   5.227   5.181   1.124  0.8534  1.5965  0.0882
  327TIP3    H222617   5.163   5.312   1.082 -0.7446  0.6868 -0.4443
  328TIP3   OH222618   6.383   5.354   6.956  0.1322  0.2593  0.3426
  328TIP3    H122619   6.389   5.272   7.004 -0.1701  0.0322  0.0010
  328TIP3    H222620   6.307   5.399   6.994  0.2459  0.3448  0.4707
  329TIP3   OH222621   4.184   3.347   1.799 -0.3562 -0.0186  0.8568
  329TIP3    H122622   4.154   3.379   1.885 -0.7139 -2.1298  1.5673
  329TIP3    H222623   4.107   3.352   1.743 -0.7189 -0.7060  1.2863
  330TIP3   OH222624   5.339   6.293   0.949  0.5465  0.0571  0.1980
  330TIP3    H122625   5.333   6.205   0.986  0.4338  0.0030  0.0493
  330TIP3    H222626   5.413   6.333   0.995  0.8341 -0.2402 -0.0068
  331TIP3   OH222627   2.393   3.330   7.724  0.0887  0.5525 -0.0908
  331TIP3    H122628   2.394   3.252   7.667  1.6679  2.1714 -2.5009
  331TIP3    H222629   2.301   3.348   7.739 -0.3256 -1.6450  0.4031
  332TIP3   OH222630   6.527   4.227   2.024 -0.3385 -1.1515 -0.0852
  332TIP3    H122631   6.525   4.228   2.119  0.0182 -0.6322 -0.0812
  332TIP3    H222632   6.620   4.222   2.002  0.0899  3.6340 -0.4138
  333TIP3   OH222633   2.822   5.217   8.054  0.1672  0.5452 -0.4511
  333TIP3    H122634   2.745   5.226   7.997  0.4678  1.6666 -0.7113
  333TIP3    H222635   2.883   5.164   8.004 -0.8031 -1.2274  0.1672
  334TIP3   OH222636   4.581   4.544   1.875  0.6439  0.4995  0.0674
  334TIP3    H122637   4.657   4.496   1.843  0.4341  0.9521 -1.1952
  334TIP3    H222638   4.617   4.617   1.924  1.0437  0.8588 -0.7454
  335TIP3   OH222639   6.500   5.559   7.454  0.2697 -0.4769 -0.0425
  335TIP3    H122640   6.560   5.597   7.390 -1.0269  0.5728 -0.6796
  335TIP3    H222641   6.480   5.631   7.513  0.5331 -1.1354  0.8808
  336TIP3   OH222642   3.929   5.978   7.944  0.2414 -0.1409  0.0246
  336TIP3    H122643   3.985   6.018   8.010  0.9020  1.9342 -1.6820
  336TIP3    H222644   3.873   6.050   7.914 -0.0160 -1.0071 -1.6591
  337TIP3   OH222645   3.445   6.252   0.972 -0.1645  0.3242 -0.2691
  337TIP3    H122646   3.473   6.176   0.920  1.2890  0.1876  0.6480
  337TIP3    H222647   3.353   6.235   0.991 -0.4593 -0.1029 -1.9412
  338TIP3   OH222648   4.435   6.187   0.286  0.3988 -0.2269  0.4255
  338TIP3    H122649   4.456   6.194   0.193  0.5374  1.6277  0.5623
  338TIP3    H222650   4.482   6.109   0.315  0.6056 -0.6628 -0.9795
  339TIP3   OH222651   4.118   4.225   1.830  0.3083 -1.1549  0.1887
  339TIP3    H122652   4.180   4.296   1.810 -0.1175 -0.7643  0.2497
  339TIP3    H222653   4.134   4.206   1.923  1.3446 -2.0525 -0.1458
  340TIP3   OH222654   1.787   2.297   1.855  0.3543  0.0810 -0.0285
  340TIP3    H122655   1.846   2.372   1.855 -0.2629  0.5732  1.0375
  340TIP3    H222656   1.835   2.228   1.902  0.2795  0.3178  0.3941
  341TIP3   OH222657   0.652   2.226   0.694 -0.7364 -0.1555 -0.2260
  341TIP3    H122658   0.601   2.146   0.682 -1.5737 -0.0353  2.0322
  341TIP3    H222659   0.612   2.289   0.634  0.4586 -1.5569 -2.6613
  342TIP3   OH222660   0.141   2.617   7.242 -0.2917  0.6190  0.4183
  342TIP3    H122661   0.200   2.562   7.191  0.5344  1.3433  0.5614
  342TIP3    H222662   0.108   2.560   7.312  3.3178  1.1092  2.7935
  343TIP3   OH222663   3.288   4.054   6.374  0.1917 -0.1541 -0.4741
  343TIP3    H122664   3.226   3.981   6.384 -0.9597  0.6783 -1.3161
  343TIP3    H222665   3.336   4.033   6.294 -1.4604  0.8912 -1.8140
  344TIP3   OH222666   2.396   3.522   8.123 -0.0108  0.3204 -0.3329
  344TIP3    H122667   2.318   3.559   8.081 -1.3322 -1.3772  0.5048
  344TIP3    H222668   2.409   3.577   8.200 -1.3023 -0.2448  0.3230
  345TIP3   OH222669   3.749   4.992   8.960  0.4595 -0.0266  0.0672
  345TIP3    H122670   3.813   5.014   9.027  1.0925  0.9921 -0.8303
  345TIP3    H222671   3.759   5.061   8.894 -0.2922 -0.8629 -0.9582
  346TIP3   OH222672   2.090   4.075   1.017  0.7315  0.8265 -0.4873
  346TIP3    H122673   2.035   4.123   0.954 -0.3502 -0.1114 -0.2833
  346TIP3    H222674   2.035   4.066   1.095  1.5141  0.6478  0.0599
  347TIP3   OH222675   2.417   4.181   1.528 -0.1889 -1.0240  0.4171
  347TIP3    H122676   2.321   4.187   1.527 -0.2047  0.0420  2.4803
  347TIP3    H222677   2.446   4.271   1.544  1.2815 -1.0008 -1.9651
  348TIP3   OH222678   4.872   5.385   0.423 -0.3062  0.1192  0.0834
  348TIP3    H122679   4.956   5.340   0.422 -0.2733  0.0834  1.8258
  348TIP3    H222680   4.814   5.329   0.372  0.6570  0.0666 -1.0047
  349TIP3   OH222681   2.236   5.897   6.441 -0.5519 -0.8705 -0.4561
  349TIP3    H122682   2.329   5.918   6.446  0.2419 -3.8252 -0.7321
  349TIP3    H222683   2.227   5.816   6.492 -3.2496  0.0328  0.6574
  350TIP3   OH222684   4.431   1.531   8.996 -0.5284  1.1333 -0.2495
  350TIP3    H122685   4.421   1.558   8.905 -0.7115 -0.0578 -0.6007
  350TIP3    H222686   4.345   1.545   9.035 -0.2802  2.2509 -0.0768
  351TIP3   OH222687   1.069   3.889   8.440 -0.6948 -0.0880  0.4979
  351TIP3    H122688   1.121   3.951   8.491  0.6238  1.0656 -2.0951
  351TIP3    H222689   1.110   3.804   8.456 -0.6830  0.1393  1.7680
  352TIP3   OH222690   0.319   0.355   1.072 -0.1401 -0.0279  1.1200
  352TIP3    H122691   0.261   0.429   1.053  1.5412  1.7275  2.4241
  352TIP3    H222692   0.261   0.279   1.071 -1.7477  1.0491 -1.5505
  353TIP3   OH222693   0.091   4.849   8.454  0.1958 -0.9964  0.1830
  353TIP3    H122694   0.131   4.933   8.433 -1.9839  0.0498 -0.0795
  353TIP3    H222695   0.079   4.806   8.370 -0.0619 -0.9101  0.1757
  354TIP3   OH222696   2.889   0.398   1.454  0.2418  0.4810 -0.2801
  354TIP3    H122697   2.859   0.327   1.398  1.7195  1.7320 -2.8242
  354TIP3    H222698   2.859   0.374   1.542 -1.6869 -1.8601 -1.4779
  355TIP3   OH222699   3.778   2.791   8.919 -0.5462 -0.3016  0.0132
  355TIP3    H122700   3.741   2.708   8.889 -1.7760 -0.1306  0.9514
  355TIP3    H222701   3.701   2.844   8.941  0.2088  1.1409 -0.6949
  356TIP3   OH222702   5.435   4.909   0.982  0.3920  0.2489 -0.0630
  356TIP3    H122703   5.479   4.837   1.028  1.4229  2.2786  2.3615
  356TIP3    H222704   5.426   4.977   1.048 -1.8169  1.8646 -1.8920
  357TIP3   OH222705   5.957   4.461   1.081 -0.2124  0.0662  0.2399
  357TIP3    H122706   5.957   4.403   1.157 -1.2302 -0.2035  0.0477
  357TIP3    H222707   6.016   4.532   1.105  2.5821 -1.9337 -0.2244
  358TIP3   OH222708   1.697   5.827   1.582 -0.3041 -0.8549  0.0642
  358TIP3    H122709   1.629   5.834   1.515  1.1580 -1.3377 -1.5226
  358TIP3    H222710   1.744   5.746   1.561  1.1887 -0.1958  0.7023
  359TIP3   OH222711   5.184   6.149   9.096 -0.3096  0.0920 -0.1296
  359TIP3    H122712   5.123   6.080   9.120 -0.3427  0.4463  0.8512
  359TIP3    H222713   5.232   6.114   9.020 -1.1451 -0.5123 -0.3907
  360TIP3   OH222714   5.153   3.725   0.945 -0.4566 -0.2917  0.4932
  360TIP3    H122715   5.119   3.790   1.006 -0.8954 -0.4229  0.3903
  360TIP3    H222716   5.190   3.777   0.873 -1.3626 -0.1663  0.1140
  361TIP3   OH222717   4.880   1.534   1.064 -0.2601 -0.2185  0.1728
  361TIP3    H122718   4.860   1.610   1.010  0.0275 -0.2347  0.0386
  361TIP3    H222719   4.801   1.481   1.062  0.1367 -0.8068 -1.2209
  362TIP3   OH222720   1.115   1.237   7.697  0.5209 -0.5015 -0.0846
  362TIP3    H122721   1.152   1.177   7.632  1.7877 -0.5463  0.6538
  362TIP3    H222722   1.110   1.185   7.777  1.5016  0.3173  0.5324
  363TIP3   OH222723   5.794   6.023   7.942  0.1159  0.1795  0.2909
  363TIP3    H122724   5.735   6.033   7.867 -1.4479 -0.6442  1.3510
  363TIP3    H222725   5.874   6.070   7.917  0.0412 -0.9275 -2.2972
  364TIP3   OH222726   6.709   4.265   7.596 -0.5316 -0.5629  0.4011
  364TIP3    H122727   6.732   4.206   7.524  0.2379  0.5814 -0.3192
  364TIP3    H222728   6.743   4.221   7.674  1.6992 -0.2483 -0.3231
  365TIP3   OH222729   3.774   2.822   8.080  0.0090 -0.1252 -0.8133
  365TIP3    H122730   3.844   2.780   8.130  0.9241  1.4127 -0.7136
  365TIP3    H222731   3.710   2.849   8.147  0.6774  0.9001 -0.5530
  366TIP3   OH222732   5.470   6.337   8.114  0.8322  0.0016 -0.1975
  366TIP3    H122733   5.519   6.391   8.052  1.3255 -1.0283 -0.7424
  366TIP3    H222734   5.495   6.369   8.200  3.0599 -0.9399 -0.4304
  367TIP3   OH222735   0.218   2.401   0.363  0.0974  0.4562 -0.0090
  367TIP3    H122736   0.267   2.483   0.362 -0.1429  0.5967 -0.8558
  367TIP3    H222737   0.141   2.418   0.309  0.1252 -0.3716 -0.3234
  368TIP3   OH222738   6.647   1.826   0.276  0.0332 -0.0302  0.2550
  368TIP3    H122739   6.714   1.877   0.232  0.4720 -1.9367 -1.4621
  368TIP3    H222740   6.676   1.820   0.367  1.0662  0.9562  0.0037
  369TIP3   OH222741   0.696   2.550   7.648 -0.1738 -0.1462 -0.6571
  369TIP3    H122742   0.706   2.458   7.672  2.3897  0.1926 -0.1607
  369TIP3    H222743   0.729   2.598   7.724 -2.0551  1.2494 -0.6407
  370TIP3   OH222744   0.392   4.992   0.662  0.4813  0.4251 -0.1408
  370TIP3    H122745   0.392   5.071   0.608  2.0343  3.2037  3.4802
  370TIP3    H222746   0.308   4.994   0.707  0.5035 -0.0263 -0.0754
  371TIP3   OH222747   4.038   3.104   0.806  0.5491  0.3835 -0.2319
  371TIP3    H122748   3.950   3.089   0.839  1.8566 -1.7577  2.7810
  371TIP3    H222749   4.046   3.199   0.800 -1.3066  0.7141  1.5191
  372TIP3   OH222750   1.440   4.442   1.451  0.3883  0.2720  0.1431
  372TIP3    H122751   1.433   4.531   1.416 -2.3865  0.3904  0.8059
  372TIP3    H222752   1.382   4.390   1.396  0.1911 -0.6478  1.1896
  373TIP3   OH222753   5.754   6.205   7.438  0.4621  0.4726 -0.0896
  373TIP3    H122754   5.755   6.240   7.349  1.2886 -1.7760 -1.0284
  373TIP3    H222755   5.685   6.138   7.437  0.7770  0.1227  0.8340
  374TIP3   OH222756   0.628   4.828   7.345 -0.2397 -0.6769  0.0572
  374TIP3    H122757   0.615   4.920   7.365  1.2656 -0.2279 -0.9284
  374TIP3    H222758   0.624   4.784   7.431  0.9964  0.5460  0.7681
  375TIP3   OH222759   3.346   6.427   7.901 -0.9743 -0.2547  0.2004
  375TIP3    H122760   3.298   6.359   7.949 -1.1883 -0.2629 -0.0175
  375TIP3    H222761   3.399   6.471   7.967  0.7209 -1.9390  0.0291
  376TIP3   OH222762   3.616   4.665   1.799 -0.2418 -0.1642 -0.4091
  376TIP3    H122763   3.529   4.682   1.764 -0.4065 -0.0900  0.0276
  376TIP3    H222764   3.603   4.592   1.860 -0.5553  1.7352  1.9168
  377TIP3   OH222765   4.967   3.095   1.621  0.0206  0.0177  0.1715
  377TIP3    H122766   4.933   3.146   1.695 -0.7463 -0.9865  0.5305
  377TIP3    H222767   5.029   3.154   1.578  1.8724  0.0199  2.6491
  378TIP3   OH222768   2.827   6.739   0.752  0.2728  0.3024 -0.2466
  378TIP3    H122769   2.907   6.741   0.700 -0.3341  1.9094 -1.1804
  378TIP3    H222770   2.837   6.811   0.815 -0.8333  1.1904 -1.0378
  379TIP3   OH222771   0.491   2.614   1.352 -0.0315 -0.0294 -0.0574
  379TIP3    H122772   0.509   2.527   1.387 -1.8087 -0.1798  0.5973
  379TIP3    H222773   0.556   2.626   1.282 -1.0163 -2.7521 -1.5986
  380TIP3   OH222774   2.248   4.485   0.142  0.5222 -0.3970  0.1796
  380TIP3    H122775   2.212   4.427   0.075  0.7054  1.6891 -1.8392
  380TIP3    H222776   2.340   4.498   0.116 -0.2900  3.3683 -1.5121
  381TIP3   OH222777   1.822   2.176   0.157 -0.2292 -0.2558 -0.8937
  381TIP3    H122778   1.902   2.230   0.158 -0.7620  0.5703  0.6026
  381TIP3    H222779   1.847   2.095   0.201 -0.2482  0.1043 -0.1918
  382TIP3   OH222780   4.818   3.050   0.770  0.4348 -0.3119  0.3699
  382TIP3    H122781   4.889   3.077   0.712  0.5889 -1.8151 -0.1862
  382TIP3    H222782   4.834   3.098   0.851 -0.1626  2.3493 -1.0053
  383TIP3   OH222783   2.734   4.653   0.605 -0.5656  0.0403  0.0021
  383TIP3    H122784   2.764   4.710   0.535 -2.5662 -0.3996 -1.3048
  383TIP3    H222785   2.780   4.570   0.590 -0.1293  0.2993 -0.0938
  384TIP3   OH222786   1.769   0.438   8.918 -0.0516  0.0739 -0.2119
  384TIP3    H122787   1.693   0.489   8.948  0.3028  0.0060  0.8336
  384TIP3    H222788   1.734   0.350   8.903  0.0516 -0.3002  1.5437
  385TIP3   OH222789   2.246   5.462   6.812 -0.0518 -0.4777  0.0633
  385TIP3    H122790   2.290   5.471   6.897  0.2465 -0.2505 -0.1138
  385TIP3    H222791   2.153   5.479   6.831 -0.3335 -2.5302  0.7302
  386TIP3   OH222792   4.887   3.180   8.915  0.6313 -0.2262  0.3353
  386TIP3    H122793   4.921   3.120   8.849  1.5950 -0.1954  0.7986
  386TIP3    H222794   4.962   3.232   8.942  0.5232 -1.0287  2.3185
  387TIP3   OH222795   5.059   6.431   0.953 -0.1178  0.4730 -0.3356
  387TIP3    H122796   5.047   6.443   0.859 -0.9011 -0.2107 -0.3335
  387TIP3    H222797   5.145   6.391   0.961  0.1638  0.9840 -0.7191
  388TIP3   OH222798   1.734   4.478   1.905  0.0849  0.4678  0.6907
  388TIP3    H122799   1.668   4.450   1.840  0.4260  0.8229  0.1840
  388TIP3    H222800   1.743   4.403   1.963  0.7164 -0.3532 -0.4325
  389TIP3   OH222801   0.117   2.375   8.642  0.1708 -0.2304  0.0714
  389TIP3    H122802   0.033   2.351   8.604 -0.0380  2.5692 -1.5308
  389TIP3    H222803   0.098   2.452   8.695  1.6445  0.2869 -0.1009
  390TIP3   OH222804   4.108   1.588   7.817 -0.1169  0.7920  1.1148
  390TIP3    H122805   4.031   1.544   7.853  0.9809  0.0425  2.6504
  390TIP3    H222806   4.162   1.607   7.893  2.4606 -1.1511 -0.1008
  391TIP3   OH222807   4.050   4.251   8.111 -0.6343  0.1719 -0.1053
  391TIP3    H122808   4.097   4.177   8.073  0.0251  1.0881 -1.1062
  391TIP3    H222809   4.022   4.219   8.197  1.1927 -0.6423  0.2364
  392TIP3   OH222810   4.128   0.009   7.405  0.0100  0.1827  0.2531
  392TIP3    H122811   4.172   0.093   7.388 -0.4508  1.2730  3.6242
  392TIP3    H222812   4.199  -0.055   7.406  0.3690  0.4345 -2.4530
  393TIP3   OH222813   1.072   3.848   1.235 -0.5552  0.3545  0.9101
  393TIP3    H122814   1.129   3.905   1.285  1.0533  0.1795 -0.6174
  393TIP3    H222815   1.119   3.765   1.230 -1.4548 -0.1505  0.5393
  394TIP3   OH222816   4.125   1.015   0.527 -0.2840 -0.4184 -0.3583
  394TIP3    H122817   4.218   1.012   0.506 -0.5641  0.6617 -1.9359
  394TIP3    H222818   4.081   1.027   0.443 -1.8240 -0.2557  0.4167
  395TIP3   OH222819   3.123   1.364   7.275 -0.2989  0.2248  0.4297
  395TIP3    H122820   3.128   1.431   7.342 -1.3261 -0.4001  1.1512
  395TIP3    H222821   3.049   1.309   7.300  0.6407 -1.3250  0.0035
  396TIP3   OH222822   3.492   0.263   8.979 -0.1567 -0.7261 -0.0293
  396TIP3    H122823   3.535   0.286   9.062  1.0758 -0.6274 -0.6701
  396TIP3    H222824   3.438   0.339   8.959  1.3759  0.2907 -0.4905
  397TIP3   OH222825   6.121   4.586   2.304 -0.4395  0.5492 -0.4431
  397TIP3    H122826   6.133   4.532   2.383 -0.2894  0.3782 -0.5816
  397TIP3    H222827   6.090   4.670   2.337  0.8260  0.8951 -0.0934
  398TIP3   OH222828   3.811   2.115   7.573 -0.3974 -0.5298 -0.2441
  398TIP3    H122829   3.904   2.106   7.594 -0.4787  1.6161  1.4059
  398TIP3    H222830   3.810   2.150   7.484  0.4336  0.1650  0.0026
  399TIP3   OH222831   4.237   6.316   8.121  0.4466 -0.0054 -0.5033
  399TIP3    H122832   4.308   6.296   8.060  0.9255  0.8193 -0.2215
  399TIP3    H222833   4.269   6.390   8.172 -0.1053 -0.4477  0.5014
  400TIP3   OH222834   0.026   4.401   1.194 -0.5493  0.0509 -0.5860
  400TIP3    H122835  -0.026   4.324   1.173 -1.6218  0.8809 -1.0438
  400TIP3    H222836  -0.037   4.464   1.230  0.4165  0.4818  0.4295
  401TIP3   OH222837   3.181   3.496   6.506  0.2235 -0.0270  0.2350
  401TIP3    H122838   3.225   3.482   6.590  2.2638  3.3504 -0.0883
  401TIP3    H222839   3.097   3.535   6.529  0.5179  0.3142  0.7638
  402TIP3   OH222840   3.306   2.651   8.963 -0.3764 -0.0577 -0.5401
  402TIP3    H122841   3.230   2.709   8.954 -1.3146 -0.9505  1.1623
  402TIP3    H222842   3.351   2.658   8.879 -2.2936  0.5708 -1.5836
  403TIP3   OH222843   3.741   5.150   2.556  0.5242  0.0986 -0.3478
  403TIP3    H122844   3.682   5.153   2.631  2.9057  2.2948  1.6158
  403TIP3    H222845   3.702   5.086   2.497 -3.5306  1.0700  0.9752
  404TIP3   OH222846   6.035   3.828   2.363  0.4275 -0.0396  0.8239
  404TIP3    H122847   5.972   3.757   2.346 -1.0808  1.5568 -0.6853
  404TIP3    H222848   5.994   3.880   2.432  1.0746 -0.0680  1.2428
  405TIP3   OH222849   3.952   5.265   7.447  0.1774  0.1020  0.3016
  405TIP3    H122850   4.002   5.186   7.430 -0.8267 -0.4011 -0.3990
  405TIP3    H222851   3.862   5.235   7.459 -0.4246  1.2084 -1.1120
  406TIP3   OH222852   0.652   3.610   1.289 -0.1836  0.6329  0.5241
  406TIP3    H122853   0.660   3.517   1.310  0.6501  0.6576  0.3572
  406TIP3    H222854   0.698   3.619   1.205  0.6770  1.3889  1.0731
  407TIP3   OH222855   6.139   6.721   8.874 -0.3126  0.1739  0.1702
  407TIP3    H122856   6.223   6.765   8.884 -1.0722  1.9569 -0.8819
  407TIP3    H222857   6.118   6.689   8.962  1.4710 -0.3756  0.4340
  408TIP3   OH222858   6.403   5.355   7.845  0.6287  0.1180 -0.5660
  408TIP3    H122859   6.362   5.411   7.911 -0.1694 -1.0525 -0.0332
  408TIP3    H222860   6.366   5.268   7.861  2.5283 -0.7676 -0.7652
  409TIP3   OH222861   5.557   2.233   7.657 -1.0134 -0.5452  0.3508
  409TIP3    H122862   5.591   2.310   7.701  0.4759 -1.1255  0.2552
  409TIP3    H222863   5.572   2.250   7.564 -0.9441 -0.8280  0.3099
  410TIP3   OH222864   2.883   2.378   6.873 -0.6028 -0.3386  0.5353
  410TIP3    H122865   2.874   2.467   6.841  1.2786 -0.0860  0.5981
  410TIP3    H222866   2.971   2.351   6.846 -1.3769 -2.4456 -0.0950
  411TIP3   OH222867   5.018   1.873   6.557  0.4775  0.4811  0.0159
  411TIP3    H122868   4.936   1.852   6.511  1.8205 -1.6031 -1.5965
  411TIP3    H222869   5.002   1.959   6.595 -2.0651  0.6442 -1.1851
  412TIP3   OH222870   3.002   1.742   8.895  0.0149  0.2213  0.5392
  412TIP3    H122871   3.045   1.814   8.941 -0.5849  0.4746  0.7098
  412TIP3    H222872   3.016   1.666   8.952  2.7439 -0.3657 -0.7726
  413TIP3   OH222873   5.746   0.451   2.244 -0.4483 -0.3804 -0.4366
  413TIP3    H122874   5.829   0.474   2.202 -0.4553 -0.8899 -0.7410
  413TIP3    H222875   5.761   0.468   2.337 -0.2581  0.2565 -0.5798
  414TIP3   OH222876   4.845   4.470   6.786 -0.3452 -0.3080 -0.0098
  414TIP3    H122877   4.800   4.492   6.867  1.8753  0.6054  1.0467
  414TIP3    H222878   4.908   4.541   6.773 -0.7391 -0.3408 -2.6404
  415TIP3   OH222879   5.913   2.950   1.967 -0.0432  0.2592 -0.5829
  415TIP3    H122880   5.906   3.027   1.911 -1.2938 -0.5010 -1.5379
  415TIP3    H222881   5.854   2.886   1.927  2.2631 -1.8493 -0.8586
  416TIP3   OH222882   4.917   4.033   8.936  0.1164 -0.2772  0.2758
  416TIP3    H122883   4.992   3.975   8.925  0.6320  0.4947 -0.3674
  416TIP3    H222884   4.928   4.071   9.023  1.6310  1.4167 -0.6027
  417TIP3   OH222885   3.793   5.741   1.444  0.9128 -0.5531 -0.3941
  417TIP3    H122886   3.810   5.660   1.492  0.2798  0.3201  1.4036
  417TIP3    H222887   3.755   5.713   1.361  0.5081 -2.0804  0.2781
  418TIP3   OH222888   6.160   6.506   7.080  0.1292 -0.2615 -0.3037
  418TIP3    H122889   6.219   6.471   7.147 -0.9369  1.5311  1.7248
  418TIP3    H222890   6.079   6.455   7.092 -0.1306  0.2019 -0.0785
  419TIP3   OH222891   2.989   4.744   9.067  0.1415 -0.0987  0.0321
  419TIP3    H122892   2.983   4.685   8.992  0.3448  0.6315 -0.5672
  419TIP3    H222893   3.083   4.762   9.075  0.0019  0.8859 -0.3872
  420TIP3   OH222894   6.656   6.734   8.723 -0.5100 -0.0530 -0.7985
  420TIP3    H122895   6.656   6.802   8.790  0.1067  0.4871 -1.3270
  420TIP3    H222896   6.676   6.654   8.770  1.3227  0.5214 -0.5056
  421TIP3   OH222897   0.482   5.390   8.774  0.1044 -0.3882  0.3065
  421TIP3    H122898   0.426   5.359   8.846 -2.2978 -0.2404 -1.3806
  421TIP3    H222899   0.466   5.484   8.769 -1.3042 -0.6658 -1.5763
  422TIP3   OH222900   6.087   2.889   2.546  0.2906 -0.1672 -0.4678
  422TIP3    H122901   6.128   2.831   2.610  1.6674 -1.6498 -2.5223
  422TIP3    H222902   6.137   2.873   2.465  0.6022  3.7621 -1.2508
  423TIP3   OH222903   3.785   3.064   1.606  0.2405  0.3998 -0.1312
  423TIP3    H122904   3.791   2.970   1.620 -0.4047  0.3226 -0.3532
  423TIP3    H222905   3.769   3.074   1.512  3.2417  0.8573 -0.7207
  424TIP3   OH222906   6.178   5.634   7.810 -0.2443  0.4691 -0.3375
  424TIP3    H122907   6.238   5.596   7.746 -1.1200 -0.7840 -0.4471
  424TIP3    H222908   6.219   5.614   7.895 -1.2902 -1.9352 -0.3202
  425TIP3   OH222909   2.570   4.096   0.496 -0.2389  0.8360  0.2074
  425TIP3    H122910   2.533   4.181   0.470  0.9650  1.2966 -0.0646
  425TIP3    H222911   2.582   4.049   0.414  2.3814  1.8007 -0.0553
  426TIP3   OH222912   2.143   5.626   9.113  0.2484 -0.8575  0.4484
  426TIP3    H122913   2.148   5.597   9.204 -1.5240 -0.0872  0.8159
  426TIP3    H222914   2.060   5.672   9.106  0.2717 -1.0270 -1.6120
  427TIP3   OH222915   4.545   5.726   2.091 -0.4066  0.1950 -0.1036
  427TIP3    H122916   4.617   5.726   2.155 -0.7647  0.2268  0.3097
  427TIP3    H222917   4.542   5.636   2.059  0.5219  0.4444 -0.9470
  428TIP3   OH222918   6.471   5.128   7.583  0.4948 -0.3251 -0.0645
  428TIP3    H122919   6.481   5.207   7.636  1.6749 -0.7241  0.3449
  428TIP3    H222920   6.523   5.062   7.629 -0.4171 -1.3339 -0.4296
  429TIP3   OH222921   5.012   6.367   1.618  0.1632 -0.0720  0.2472
  429TIP3    H122922   4.933   6.412   1.647  1.0520  1.1304  0.9029
  429TIP3    H222923   4.988   6.274   1.617 -1.0009  0.1989  1.2277
  430TIP3   OH222924   6.516   5.814   8.461 -0.5203  0.7296 -0.1194
  430TIP3    H122925   6.536   5.908   8.454  0.7202  0.5937  1.1936
  430TIP3    H222926   6.586   5.771   8.411 -0.3777  0.4564  0.3103
  431TIP3   OH222927   4.118   3.604   1.261 -0.1926  0.1812 -0.0894
  431TIP3    H122928   4.076   3.593   1.346  1.3361  0.1808  0.7112
  431TIP3    H222929   4.159   3.690   1.265 -0.1094  0.1883 -0.8379
  432TIP3   OH222930   2.461   6.402   0.147  0.5466  0.6056 -0.3177
  432TIP3    H122931   2.502   6.352   0.076  0.1027 -1.8042  1.0378
  432TIP3    H222932   2.367   6.393   0.132  0.4499  0.2280  0.4674
  433TIP3   OH222933   5.050   3.338   1.521  0.4690 -0.4783 -0.2053
  433TIP3    H122934   4.967   3.363   1.563  1.5653  0.7734  1.3179
  433TIP3    H222935   5.118   3.369   1.581  2.0953 -0.0399 -2.1654
  434TIP3   OH222936   0.663   4.463   7.372 -0.3502 -0.4749 -0.0279
  434TIP3    H122937   0.599   4.457   7.442  0.5675 -0.8209  0.8127
  434TIP3    H222938   0.694   4.373   7.359  1.4208 -0.0598  1.0184
  435TIP3   OH222939   0.171   4.111   7.727 -0.4841  0.0599 -0.4087
  435TIP3    H122940   0.126   4.029   7.709 -1.1570  0.1077  0.9597
  435TIP3    H222941   0.248   4.109   7.670 -0.7131 -1.3227 -0.7000
  436TIP3   OH222942   0.250   6.699   8.839 -0.1088 -0.1494 -0.5013
  436TIP3    H122943   0.189   6.653   8.896 -0.5410  1.8423  0.7534
  436TIP3    H222944   0.335   6.657   8.856  0.5295  2.3395  4.3801
  437TIP3   OH222945   6.525   2.688   1.373  0.4960 -0.6434  0.5846
  437TIP3    H122946   6.570   2.764   1.411  0.7210  0.1537 -1.1716
  437TIP3    H222947   6.595   2.635   1.335  0.2635 -1.3480  1.1204
  438TIP3   OH222948   1.972   5.215   8.375 -0.2944  1.3035 -0.1134
  438TIP3    H122949   2.027   5.240   8.449  1.1674 -1.0280 -0.2884
  438TIP3    H222950   1.965   5.120   8.383  0.3703  0.8907 -3.2427
  439TIP3   OH222951   5.925   4.076   8.970 -0.2516  0.3735  0.1560
  439TIP3    H122952   6.009   4.035   8.952  0.0690  1.0925 -0.0151
  439TIP3    H222953   5.892   4.031   9.047  1.9368  2.4019  2.4857
  440TIP3   OH222954   4.001   0.170   8.837  0.2484 -0.3815 -0.1617
  440TIP3    H122955   4.071   0.226   8.872 -0.7044  0.1667  0.9111
  440TIP3    H222956   3.948   0.147   8.913 -1.2438 -0.0683 -1.0639
  441TIP3   OH222957   6.503   1.686   2.012 -0.5788  0.7942  0.3242
  441TIP3    H122958   6.559   1.752   2.052 -0.6829  0.7333  0.5715
  441TIP3    H222959   6.464   1.639   2.086  0.5877 -0.4875  0.1569
  442TIP3   OH222960   4.215   1.136   0.262  0.0118  0.1627  0.2032
  442TIP3    H122961   4.225   1.190   0.340  0.0399 -0.3672  0.5733
  442TIP3    H222962   4.160   1.188   0.203  0.3338  0.7358  0.4111
  443TIP3   OH222963   1.545   5.545   0.982  0.0085  0.5636  0.2986
  443TIP3    H122964   1.517   5.566   1.071  0.3099  0.7941  0.3425
  443TIP3    H222965   1.627   5.593   0.971  1.0129 -0.9807  0.5847
  444TIP3   OH222966   1.801   0.869   7.855 -0.3237 -0.7291  0.0438
  444TIP3    H122967   1.859   0.794   7.865  0.3618 -0.0825  1.0565
  444TIP3    H222968   1.855   0.937   7.817 -0.6406 -0.3781  0.2151
  445TIP3   OH222969   1.574   0.198   0.747  0.0273  0.1694  0.0464
  445TIP3    H122970   1.573   0.103   0.760  0.2388  0.2721  0.8641
  445TIP3    H222971   1.568   0.235   0.835 -0.8165  0.9286 -0.3082
  446TIP3   OH222972   6.010   5.362   8.261  0.2462 -0.9994  0.1672
  446TIP3    H122973   6.023   5.331   8.350 -1.6019 -1.7107  0.2271
  446TIP3    H222974   5.927   5.323   8.233 -0.1762  0.7218 -1.1896
  447TIP3   OH222975   3.309   0.469   6.551  0.0431  0.2849 -0.5223
  447TIP3    H122976   3.257   0.502   6.625 -0.1220 -1.9669  0.4594
  447TIP3    H222977   3.244   0.436   6.489  0.1010 -2.7335  0.8008
  448TIP3   OH222978   6.480   6.401   0.684  0.1892 -0.5940  0.3229
  448TIP3    H122979   6.452   6.480   0.639 -1.1304  0.7500  3.2090
  448TIP3    H222980   6.563   6.425   0.726  0.7847 -1.4110 -0.3587
  449TIP3   OH222981   5.321   4.889   8.602 -0.6236  0.5743 -0.1379
  449TIP3    H122982   5.276   4.840   8.534 -0.4811  0.5299 -0.1997
  449TIP3    H222983   5.410   4.854   8.603 -0.4122  1.0861 -0.4361
  450TIP3   OH222984   0.815   1.516   8.814  0.6107  0.8713  0.2830
  450TIP3    H122985   0.829   1.567   8.734  0.2369  2.5809  1.2660
  450TIP3    H222986   0.841   1.575   8.885 -1.3572  0.2871  1.5684
  451TIP3   OH222987   1.488   5.341   7.766  0.5638 -0.2512 -0.1163
  451TIP3    H122988   1.511   5.248   7.768 -0.6139 -0.7084 -2.7700
  451TIP3    H222989   1.394   5.343   7.784  0.3594  0.2626 -1.1486
  452TIP3   OH222990   4.409   4.013   8.042  0.0213  0.1951  0.4190
  452TIP3    H122991   4.403   3.958   7.963 -1.7983  2.3826 -1.1145
  452TIP3    H222992   4.503   4.022   8.058  0.4069 -1.1410 -0.9012
  453TIP3   OH222993   0.336   3.760   8.158  0.2690  0.4799  0.3735
  453TIP3    H122994   0.284   3.795   8.085  0.5268  2.1522  0.9523
  453TIP3    H222995   0.275   3.757   8.232  0.0301 -1.1397  0.1444
  454TIP3   OH222996   3.087   1.868   8.578  0.5720  0.2530 -0.6681
  454TIP3    H122997   3.125   1.789   8.539  0.2422 -1.7654  2.6672
  454TIP3    H222998   3.156   1.903   8.635  0.1032  1.3108 -0.7255
  455TIP3   OH222999   3.924   2.557   7.990 -0.5190  0.1230 -0.3679
  455TIP3    H123000   3.831   2.571   8.010 -0.9303 -1.1748 -1.2003
  455TIP3    H223001   3.929   2.464   7.966  0.8162  0.4170 -1.3332
  456TIP3   OH223002   5.700   2.421   0.447 -0.5321 -0.3617  0.2971
  456TIP3    H123003   5.745   2.463   0.520 -0.5119 -0.5733  0.4095
  456TIP3    H223004   5.693   2.329   0.474 -1.1580 -0.3009  0.3436
  457TIP3   OH223005   1.714   4.352   8.009 -0.2579 -0.3244 -0.2707
  457TIP3    H123006   1.729   4.274   7.955  1.1354 -1.2275  1.3139
  457TIP3    H223007   1.788   4.410   7.989 -0.9055  0.3056 -0.9081
  458TIP3   OH223008   5.099   0.647   0.742  0.4096 -0.4739 -0.4612
  458TIP3    H123009   5.097   0.603   0.657  1.9635 -0.5035 -0.5153
  458TIP3    H223010   5.139   0.732   0.724 -1.7935  0.6986 -0.2156
  459TIP3   OH223011   6.692   1.353   8.482  0.5467  0.4165  0.3009
  459TIP3    H123012   6.733   1.411   8.418 -0.5196  1.3726  0.4694
  459TIP3    H223013   6.711   1.392   8.567 -0.2804  0.5991  0.4104
  460TIP3   OH223014   4.314   2.132   1.417  0.2288 -0.4300  0.0411
  460TIP3    H123015   4.242   2.071   1.404  1.2940 -2.0832  1.4725
  460TIP3    H223016   4.333   2.166   1.329 -0.8065 -1.6858 -0.7054
  461TIP3   OH223017   4.987   0.529   8.321  1.1701 -0.2256  0.1336
  461TIP3    H123018   4.893   0.525   8.301  0.8729 -1.8897  1.5786
  461TIP3    H223019   4.999   0.610   8.369  0.8279  0.8774 -1.5728
  462TIP3   OH223020   6.081   3.372   8.019  0.8190  0.1748  0.6625
  462TIP3    H123021   6.040   3.421   7.948  0.6181 -0.2924  0.4487
  462TIP3    H223022   6.159   3.423   8.042  1.5989 -0.3215 -0.7673
  463TIP3   OH223023   1.431   4.120   0.690  1.2411  0.1162 -0.1518
  463TIP3    H123024   1.493   4.131   0.762  0.7893  0.6359  0.1604
  463TIP3    H223025   1.364   4.062   0.725  1.9331 -1.0927 -0.7423
  464TIP3   OH223026   0.214   2.923   9.127 -0.2206  0.2335 -0.0342
  464TIP3    H123027   0.303   2.952   9.105 -0.7500  1.1129 -1.1491
  464TIP3    H223028   0.160   3.000   9.112 -1.3465 -0.6495 -0.6533
  465TIP3   OH223029   0.552   0.731   0.682  0.4667  0.1199 -0.2980
  465TIP3    H123030   0.548   0.722   0.777 -0.5549 -0.2544 -0.3679
  465TIP3    H223031   0.490   0.666   0.649 -0.6640  1.5907 -1.1469
  466TIP3   OH223032   0.731   2.227   7.992 -0.1198 -0.4687 -0.8030
  466TIP3    H123033   0.706   2.296   7.932  0.6319  0.9827  0.4658
  466TIP3    H223034   0.826   2.217   7.979  0.1446  0.2178  0.4410
  467TIP3   OH223035   4.310   2.400   9.129 -0.1599  0.4694  0.4805
  467TIP3    H123036   4.295   2.412   9.223  1.0336 -0.7869  0.8577
  467TIP3    H223037   4.284   2.310   9.112  0.9120  0.2517 -0.0988
  468TIP3   OH223038   1.277   2.570   7.883  0.0242  0.2057 -0.5196
  468TIP3    H123039   1.226   2.629   7.826 -1.9333 -0.2256  0.6740
  468TIP3    H223040   1.212   2.536   7.945  1.8057 -0.4836  1.0303
  469TIP3   OH223041   5.315   0.978   1.864  0.0381 -0.2804 -0.0207
  469TIP3    H123042   5.234   0.929   1.876 -0.0348  0.0915  1.1736
  469TIP3    H223043   5.291   1.052   1.808 -0.9499  0.9361  1.9237
  470TIP3   OH223044   6.379   4.149   0.286  0.0384  0.0525  0.1380
  470TIP3    H123045   6.368   4.113   0.198  0.0026 -0.2524  0.2670
  470TIP3    H223046   6.472   4.167   0.293  0.0547 -0.0008  0.0671
  471TIP3   OH223047   4.728   1.892   6.947 -0.0522 -0.7695  0.0419
  471TIP3    H123048   4.665   1.880   6.876 -1.0458 -2.1993  1.1040
  471TIP3    H223049   4.679   1.869   7.026  1.6172 -1.2505  0.9776
  472TIP3   OH223050   3.012   4.818   1.745  0.3211  0.4826  0.1127
  472TIP3    H123051   3.068   4.780   1.813  1.8904 -0.4248 -1.5792
  472TIP3    H223052   3.015   4.754   1.674 -1.9685  0.9831 -0.4970
  473TIP3   OH223053   0.733   4.483   1.872  0.2554  0.1142 -0.1720
  473TIP3    H123054   0.750   4.398   1.912  0.0326 -0.1833 -0.6915
  473TIP3    H223055   0.756   4.547   1.939  2.2192 -0.2911 -0.3944
  474TIP3   OH223056   4.404   5.033   8.783 -0.0132 -0.2341 -0.0748
  474TIP3    H123057   4.343   5.106   8.773  0.6634  0.3135 -0.1864
  474TIP3    H223058   4.349   4.962   8.818 -0.3095  0.8996  1.9440
  475TIP3   OH223059   1.427   4.086   7.939  0.2114  0.0862 -1.1038
  475TIP3    H123060   1.362   4.018   7.925  0.3876  0.0701 -1.9499
  475TIP3    H223061   1.449   4.116   7.850  1.0767  0.3433 -0.8115
  476TIP3   OH223062   0.517   2.403   6.730  0.0915 -0.2375 -0.5478
  476TIP3    H123063   0.483   2.472   6.786 -0.5208 -2.6680  2.3624
  476TIP3    H223064   0.446   2.385   6.667  0.1747  1.5106 -1.1858
  477TIP3   OH223065   1.510   1.258   1.179  0.3044 -0.1458  0.2483
  477TIP3    H123066   1.604   1.263   1.158  0.4797 -1.7156  0.4685
  477TIP3    H223067   1.467   1.249   1.095  0.4912 -0.6842  0.2004
  478TIP3   OH223068   6.293   2.839   8.662 -0.3177  0.0122 -0.0069
  478TIP3    H123069   6.326   2.764   8.613  0.7646  0.5618 -0.1784
  478TIP3    H223070   6.214   2.866   8.615 -0.1790 -0.4356 -0.5100
  479TIP3   OH223071   4.298   5.342   1.283  0.1719 -0.0055  0.7384
  479TIP3    H123072   4.379   5.391   1.271  0.0114 -0.1949 -1.6730
  479TIP3    H223073   4.327   5.253   1.305  0.5258  0.3762  1.9189
  480TIP3   OH223074   2.299   1.279   8.099  0.1165 -0.5678  0.1891
  480TIP3    H123075   2.226   1.299   8.040 -0.1681  2.2325  1.3368
  480TIP3    H223076   2.370   1.254   8.041 -0.9201 -0.5245 -1.1475
  481TIP3   OH223077   1.065   3.177   8.002  0.1953 -0.1816 -0.6362
  481TIP3    H123078   1.021   3.132   7.930  0.2681 -1.9430  0.3617
  481TIP3    H223079   1.002   3.177   8.074  0.9666 -0.6099  0.0571
  482TIP3   OH223080   1.748   2.847   9.053 -0.5342  0.5088 -0.1896
  482TIP3    H123081   1.763   2.939   9.075  0.4396  0.4802 -0.6581
  482TIP3    H223082   1.710   2.850   8.965 -0.9453  0.4796 -0.0134
  483TIP3   OH223083   1.628   0.558   0.986 -0.1974  0.3918  0.1509
  483TIP3    H123084   1.645   0.598   1.071 -0.3236  1.7198 -0.4288
  483TIP3    H223085   1.713   0.559   0.942 -0.1252 -0.3218  0.2652
  484TIP3   OH223086   2.122   0.424   7.445  0.6380  0.1810 -0.1180
  484TIP3    H123087   2.211   0.442   7.416  0.7697  0.0582  0.2140
  484TIP3    H223088   2.129   0.345   7.498 -0.0055 -1.1980 -1.9752
  485TIP3   OH223089   5.473   0.748   1.470  0.2282  0.5552  0.2429
  485TIP3    H123090   5.538   0.755   1.399  0.9809  0.2399  0.8844
  485TIP3    H223091   5.411   0.682   1.439  0.0112  1.1061 -0.5280
  486TIP3   OH223092   4.652   2.244   7.241  0.0261  0.0215 -0.3446
  486TIP3    H123093   4.734   2.294   7.246  0.7929 -1.2391  0.0522
  486TIP3    H223094   4.679   2.153   7.253 -1.5253 -0.3490  0.5561
  487TIP3   OH223095   0.991   1.282   0.285 -0.0377 -0.9000  0.7927
  487TIP3    H123096   0.900   1.261   0.308 -0.1486 -0.4300  0.7920
  487TIP3    H223097   1.043   1.253   0.360 -0.2074 -1.0296  0.8594
  488TIP3   OH223098   3.660   2.519   8.030  1.0004  0.7310  0.3346
  488TIP3    H123099   3.616   2.489   8.109  2.4901  0.4223  1.0926
  488TIP3    H223100   3.598   2.579   7.989 -1.3588 -1.8871 -0.2649
  489TIP3   OH223101   0.118   5.257   7.976  0.0000 -0.3031  0.0517
  489TIP3    H123102   0.204   5.239   8.014 -0.0049  0.7498  0.6156
  489TIP3    H223103   0.118   5.209   7.893  1.8790  1.1175 -0.8686
  490TIP3   OH223104   4.035   1.665   7.143  0.4791 -0.0176  0.6823
  490TIP3    H123105   4.086   1.648   7.222  1.3078 -2.1192 -0.2146
  490TIP3    H223106   4.100   1.692   7.078 -0.0425  0.7114  0.4567
  491TIP3   OH223107   0.546   6.321   8.084 -0.5035 -0.3270  0.1188
  491TIP3    H123108   0.469   6.343   8.031 -0.7021 -1.4703 -0.0750
  491TIP3    H223109   0.549   6.391   8.150 -1.5536 -0.1218 -0.0248
  492TIP3   OH223110   6.316   5.428   7.607  0.2421 -0.3206 -0.2620
  492TIP3    H123111   6.394   5.430   7.552  0.3714 -1.7941 -0.1767
  492TIP3    H223112   6.346   5.389   7.690 -0.0665  1.3604  0.6777
  493TIP3   OH223113   6.341   0.966   7.580  0.3823  0.4858 -0.5624
  493TIP3    H123114   6.386   0.947   7.662  0.1427  2.7957  0.1676
  493TIP3    H223115   6.273   1.029   7.604 -1.4265 -0.7616 -2.1114
  494TIP3   OH223116   0.425   6.595   9.020  0.1595 -0.2245 -0.1920
  494TIP3    H123117   0.405   6.642   9.101 -1.0473 -0.1123 -0.5260
  494TIP3    H223118   0.499   6.539   9.042 -0.0780 -0.1167  0.9579
  495TIP3   OH223119   6.136   3.148   0.570  0.3063  0.1253 -0.2868
  495TIP3    H123120   6.205   3.083   0.555 -0.3180 -0.8202  0.7674
  495TIP3    H223121   6.055   3.103   0.548 -0.2161  0.2221  1.3026
  496TIP3   OH223122   0.826   2.504   7.890  0.7666 -0.4968 -0.6258
  496TIP3    H123123   0.867   2.591   7.890 -1.0168  0.4992  2.7592
  496TIP3    H223124   0.890   2.447   7.932  0.1307  0.2963  1.5118
  497TIP3   OH223125   0.881   4.229   8.900 -0.4465  0.4428 -0.3233
  497TIP3    H123126   0.919   4.221   8.812  1.7121 -1.7233  0.6850
  497TIP3    H223127   0.848   4.142   8.920 -0.7988  0.8734  1.0594
  498TIP3   OH223128   6.640   4.657   8.489 -0.3960 -0.5645  0.2856
  498TIP3    H123129   6.558   4.661   8.539 -0.1909 -0.4709  0.6127
  498TIP3    H223130   6.686   4.737   8.513 -1.6807  1.1878 -2.4397
  499TIP3   OH223131   5.761   0.526   2.521 -0.0001  0.1565 -0.3913
  499TIP3    H123132   5.765   0.610   2.566  3.7838  0.1688 -0.4671
  499TIP3    H223133   5.711   0.470   2.580 -0.2690  1.7250  0.9586
  500TIP3   OH223134   2.260   0.048   7.160  0.3577  0.6387 -0.4251
  500TIP3    H123135   2.300  -0.038   7.174  2.3154  1.3546 -1.1939
  500TIP3    H223136   2.214   0.067   7.241  0.8885 -0.6296  0.1983
  501TIP3   OH223137   5.565   4.744   8.090  0.1325  0.3868  0.1415
  501TIP3    H123138   5.635   4.714   8.032 -0.5911  0.1008 -0.6056
  501TIP3    H223139   5.602   4.737   8.178  0.8715 -0.2238 -0.2068
  502TIP3   OH223140   1.782   4.392   7.402  1.4627  0.7493  0.4176
  502TIP3    H123141   1.837   4.423   7.474  0.4192  2.6710  0.4651
  502TIP3    H223142   1.730   4.469   7.377 -0.7553 -0.7853 -0.0248
  503TIP3   OH223143   5.318   0.264   8.013  0.1696 -0.0902  0.2231
  503TIP3    H123144   5.247   0.231   7.957 -1.7563  0.1928  2.3647
  503TIP3    H223145   5.370   0.186   8.033 -0.1006 -0.4871 -0.5515
  504TIP3   OH223146   0.681   3.954   0.892  0.0218  0.1342 -0.2734
  504TIP3    H123147   0.619   3.992   0.954  0.1864  1.5079 -0.9007
  504TIP3    H223148   0.766   3.958   0.936 -0.0812 -0.2352 -0.0391
  505TIP3   OH223149   5.120   3.845   8.932 -0.1719 -0.1051 -0.3698
  505TIP3    H123150   5.120   3.797   8.849 -1.8286 -0.3775 -0.2597
  505TIP3    H223151   5.164   3.787   8.993  2.7583  0.8522 -1.3757
  506TIP3   OH223152   1.577   6.637   7.784  0.5566 -0.0902  0.5150
  506TIP3    H123153   1.554   6.548   7.758  2.7610 -0.2602 -1.1610
  506TIP3    H223154   1.518   6.693   7.734 -0.7427 -0.5633  1.4693
  507TIP3   OH223155   1.285   1.459   1.829 -0.5611 -0.0948 -0.0158
  507TIP3    H123156   1.251   1.407   1.902 -0.2646 -0.5798 -0.2188
  507TIP3    H223157   1.271   1.403   1.752  1.4583 -0.6807 -0.0109
  508TIP3   OH223158   1.568   6.483   0.525 -0.0855 -0.2552 -0.0451
  508TIP3    H123159   1.536   6.399   0.557 -0.0501 -0.4514 -0.5157
  508TIP3    H223160   1.604   6.527   0.602  1.6474 -1.4516 -0.1343
  509TIP3   OH223161   0.995   0.705   8.536 -0.1536  0.0334 -0.1836
  509TIP3    H123162   1.012   0.622   8.580 -0.3287  1.0165  1.9200
  509TIP3    H223163   1.026   0.771   8.599 -0.3309  1.5734 -1.6303
  510TIP3   OH223164   3.980   0.636   8.367  0.2023  0.2454 -0.1508
  510TIP3    H123165   4.072   0.653   8.389  0.2707 -1.2663  0.9373
  510TIP3    H223166   3.980   0.547   8.330 -0.6032  0.9165 -1.8683
  511TIP3   OH223167   5.060   5.577   0.642  0.2980 -0.1742 -0.5213
  511TIP3    H123168   5.154   5.596   0.641  0.0026  1.3248 -1.5565
  511TIP3    H223169   5.055   5.486   0.673  2.1216 -0.4982 -1.0493
  512TIP3   OH223170   4.722   4.537   9.067 -0.6714  0.5654  0.0589
  512TIP3    H123171   4.791   4.578   9.118  1.8958  0.1769 -2.8116
  512TIP3    H223172   4.708   4.452   9.108  0.1544  0.8766  1.0130
  513TIP3   OH223173   2.753   5.911   8.867 -0.2322 -0.3266 -0.3560
  513TIP3    H123174   2.777   5.999   8.897  1.2931 -0.6056 -0.6532
  513TIP3    H223175   2.751   5.918   8.771  0.8588 -0.8198 -0.4297
  514TIP3   OH223176   5.630   0.012   2.671  0.5519 -0.1048  0.7354
  514TIP3    H123177   5.713  -0.035   2.675 -0.0632 -1.2558  0.5843
  514TIP3    H223178   5.653   0.101   2.647  1.6855 -0.6027 -0.0916
  515TIP3   OH223179   4.632   3.650   1.434  0.2638 -0.4418  0.7006
  515TIP3    H123180   4.544   3.682   1.453  0.3931 -1.3442  3.2435
  515TIP3    H223181   4.618   3.579   1.371 -0.5074  1.1547 -1.0033
  516TIP3   OH223182   0.462   1.467   0.774  0.1591  0.2353  0.4153
  516TIP3    H123183   0.367   1.457   0.771  0.1160  0.6450  0.2322
  516TIP3    H223184   0.475   1.556   0.808  0.4798  0.0629  0.7426
  517TIP3   OH223185   2.950   1.377   8.718 -0.1811 -0.3212  0.2818
  517TIP3    H123186   2.993   1.369   8.633  0.3448 -0.5190  0.5643
  517TIP3    H223187   2.898   1.457   8.711  0.1379 -0.1465 -0.1009
  518TIP3   OH223188   4.765   0.752   2.178 -0.2808 -0.2572  0.4664
  518TIP3    H123189   4.849   0.797   2.188 -0.2237  0.1340 -1.4804
  518TIP3    H223190   4.770   0.680   2.241  1.5559 -0.3122  0.3289
  519TIP3   OH223191   4.951   0.361   1.433  0.4041 -0.6003  0.2884
  519TIP3    H123192   4.937   0.345   1.339 -0.8577  0.7771  0.2004
  519TIP3    H223193   5.044   0.380   1.440  0.5413 -0.8389 -0.6669
  520TIP3   OH223194   0.948   5.814   7.052 -0.3733 -0.0925 -0.0270
  520TIP3    H123195   0.891   5.760   7.107 -0.0820 -0.6537 -0.2626
  520TIP3    H223196   1.019   5.755   7.026 -1.5016 -0.4459 -2.6012
  521TIP3   OH223197   1.299   4.509   0.931 -0.4544  0.2476 -0.4084
  521TIP3    H123198   1.208   4.481   0.923 -0.8609  0.8397  1.4721
  521TIP3    H223199   1.294   4.602   0.954  0.6086  0.2815 -0.2458
  522TIP3   OH223200   4.619   4.375   7.104 -0.1007  0.0638  0.1216
  522TIP3    H123201   4.555   4.374   7.033 -0.1225  1.1645  0.1071
  522TIP3    H223202   4.682   4.442   7.078  1.1870 -1.1512  0.0387
  523TIP3   OH223203   5.977   2.177   1.439  0.2635 -0.2658 -0.3155
  523TIP3    H123204   5.918   2.146   1.507  0.9045 -0.8998 -0.0424
  523TIP3    H223205   5.976   2.272   1.448 -0.1279 -0.3148  0.1818
  524TIP3   OH223206   6.643   1.630   6.550 -0.0204 -0.2404 -0.0545
  524TIP3    H123207   6.628   1.587   6.635  0.1769  0.0868  0.1487
  524TIP3    H223208   6.581   1.587   6.491  0.3217 -0.9567  0.0887
  525TIP3   OH223209   4.773   1.056   8.752  0.7995 -0.0689 -0.3131
  525TIP3    H123210   4.792   1.093   8.666  0.2164 -1.2528 -0.9791
  525TIP3    H223211   4.725   1.125   8.797 -1.1902 -0.2952 -1.8982
  526TIP3   OH223212   2.669   3.466   7.354 -0.2826 -0.1363  0.1264
  526TIP3    H123213   2.708   3.399   7.298 -0.1858 -1.0321  1.2145
  526TIP3    H223214   2.649   3.419   7.436  0.6862  1.3753  1.2771
  527TIP3   OH223215   5.556   5.077   8.183  0.3541  0.0103 -0.2812
  527TIP3    H123216   5.621   5.147   8.184  0.2557  0.1076 -0.5926
  527TIP3    H223217   5.535   5.063   8.275  0.4306  0.3383 -0.2117
  528TIP3   OH223218   2.089   2.353   0.917  0.3810  0.2582 -0.2752
  528TIP3    H123219   2.180   2.327   0.929  0.2056 -0.2319  0.0664
  528TIP3    H223220   2.042   2.270   0.906 -0.3611  0.2852  2.0131
  529TIP3   OH223221   5.882   3.322   8.208 -0.3438 -0.3489 -0.5425
  529TIP3    H123222   5.955   3.360   8.159  1.2437 -1.7849  0.5713
  529TIP3    H223223   5.810   3.320   8.146 -0.4514  3.9439 -0.8097
  530TIP3   OH223224   0.248   0.668   7.580  0.2282  0.3304  0.0460
  530TIP3    H123225   0.245   0.687   7.673 -1.5075  1.0851 -0.1240
  530TIP3    H223226   0.213   0.579   7.572  0.2123  0.3321  0.0987
  531TIP3   OH223227   3.657   1.146   8.080 -0.4548  0.2440 -0.1388
  531TIP3    H123228   3.664   1.139   7.985 -1.2009 -0.2782 -0.1556
  531TIP3    H223229   3.616   1.065   8.108  2.1344 -0.8400  0.9148
  532TIP3   OH223230   3.967   3.481   1.077  0.5991 -0.5928 -0.5173
  532TIP3    H123231   4.023   3.523   1.142 -0.1866 -0.4017  0.0547
  532TIP3    H223232   3.966   3.389   1.102 -0.6634 -0.3386  0.5075
  533TIP3   OH223233   4.218   6.239   8.731 -0.0402 -0.2400  0.2637
  533TIP3    H123234   4.199   6.244   8.638 -0.6705  1.1317  0.4358
  533TIP3    H223235   4.156   6.175   8.765 -2.7576  2.2617  0.3771
  534TIP3   OH223236   2.415   3.913   1.614  0.0132  0.0292  0.3212
  534TIP3    H123237   2.408   4.004   1.582 -1.3169 -0.3028 -0.3992
  534TIP3    H223238   2.503   3.886   1.588 -0.3456  0.4106 -1.4102
  535TIP3   OH223239   4.603   6.152   8.216 -0.4036 -0.0882 -0.1127
  535TIP3    H123240   4.631   6.221   8.275 -0.0734  0.6859 -1.1379
  535TIP3    H223241   4.682   6.127   8.169 -0.1958 -2.2280  1.2453
  536TIP3   OH223242   4.347   4.730   6.880 -0.4459 -0.2845 -0.2490
  536TIP3    H123243   4.315   4.767   6.962  0.0462 -0.8120  0.1920
  536TIP3    H223244   4.370   4.806   6.827  2.1354  0.1333  1.2603
  537TIP3   OH223245   1.486   6.685   6.839  0.3128 -0.1650  0.3539
  537TIP3    H123246   1.398   6.722   6.845 -0.2141 -1.3031 -0.0187
  537TIP3    H223247   1.544   6.754   6.871 -0.6883  0.7048  0.3353
  538TIP3   OH223248   5.910   1.492   8.465  0.4225  0.2382  0.2967
  538TIP3    H123249   5.885   1.494   8.372  0.4990 -0.4038  0.2620
  538TIP3    H223250   5.840   1.540   8.509  0.8033  1.2595 -0.1856
  539TIP3   OH223251   2.833   3.415   9.063 -0.3476 -0.5555  0.0998
  539TIP3    H123252   2.881   3.429   9.145  1.9025  0.5617 -1.3366
  539TIP3    H223253   2.859   3.328   9.035 -2.0391 -1.4363  1.0816
  540TIP3   OH223254   2.011   0.644   2.401 -0.7916  0.3367  0.0072
  540TIP3    H123255   1.923   0.680   2.393 -0.9125  0.0882  0.2264
  540TIP3    H223256   2.059   0.682   2.327 -0.9482  0.8630  0.1701
  541TIP3   OH223257   5.279   4.312   1.951 -0.3401 -0.0330 -0.2194
  541TIP3    H123258   5.268   4.333   2.044 -1.9474  0.8198 -0.5615
  541TIP3    H223259   5.215   4.243   1.934 -0.9120  0.6703 -0.9560
  542TIP3   OH223260   4.923   1.172   0.828 -0.4392 -0.1521 -0.1994
  542TIP3    H123261   4.944   1.179   0.921 -0.8095 -0.1824 -0.1120
  542TIP3    H223262   4.988   1.111   0.793  1.3460  1.8322 -0.5067
  543TIP3   OH223263   2.805   4.808   7.689  0.4283 -0.1158  0.2272
  543TIP3    H123264   2.747   4.802   7.765 -0.1256  0.5972 -0.1230
  543TIP3    H223265   2.818   4.718   7.661  0.4091 -0.3577  1.0034
  544TIP3   OH223266   6.242   2.087   1.369  0.7699 -0.0544  0.2698
  544TIP3    H123267   6.176   2.139   1.414 -0.0789 -1.3492  0.5768
  544TIP3    H223268   6.196   2.044   1.298  0.3699 -3.5337  2.3840
  545TIP3   OH223269   5.706   2.830   1.656  0.9922  0.0381 -0.3655
  545TIP3    H123270   5.761   2.908   1.646 -1.5434  2.2466  1.3798
  545TIP3    H223271   5.714   2.808   1.749 -1.3235  0.7800  0.0831
  546TIP3   OH223272   4.337   1.096   8.249  0.4991 -0.0565  0.8648
  546TIP3    H123273   4.345   1.184   8.211  1.8508 -0.1304  0.9279
  546TIP3    H223274   4.296   1.110   8.334  0.1709  0.4495  0.6267
  547TIP3   OH223275   2.498   5.424   7.081 -0.4963 -0.2496 -0.4003
  547TIP3    H123276   2.555   5.479   7.028 -1.0714  0.5904 -0.1661
  547TIP3    H223277   2.446   5.486   7.132 -1.9746 -0.9834 -0.9786
  548TIP3   OH223278   1.771   1.982   1.437  0.1073  0.3416  0.6878
  548TIP3    H123279   1.695   2.038   1.425 -0.0569 -0.0198 -0.0117
  548TIP3    H223280   1.833   2.012   1.370 -0.3655 -0.9430 -0.3682
  549TIP3   OH223281   4.949   0.265   8.846 -0.3090  0.0520  0.0620
  549TIP3    H123282   4.946   0.171   8.861 -0.7522  0.3896  2.4832
  549TIP3    H223283   4.929   0.304   8.931 -1.9873  2.3563 -1.2808
  550TIP3   OH223284   0.723   2.815   8.258  0.5301  0.2210 -0.5607
  550TIP3    H123285   0.702   2.884   8.320 -1.4481 -1.7119  1.0553
  550TIP3    H223286   0.696   2.850   8.173 -1.6815  0.9933  0.3837
  551TIP3   OH223287   2.542   0.933   8.188  0.0640 -0.0098  0.1255
  551TIP3    H123288   2.474   0.970   8.244 -0.7156 -0.1743 -0.6837
  551TIP3    H223289   2.586   1.010   8.150  1.8567  0.1583  2.3548
  552TIP3   OH223290   0.151   4.856   1.098 -0.3214 -0.3954 -0.2612
  552TIP3    H123291   0.183   4.766   1.105  0.3051 -0.4793 -3.1307
  552TIP3    H223292   0.170   4.882   1.008 -0.7860  2.5247  0.3749
  553TIP3   OH223293   6.614   0.785   8.159  0.0416 -0.0304  0.5537
  553TIP3    H123294   6.574   0.714   8.210  1.2848 -2.3550 -1.4759
  553TIP3    H223295   6.702   0.793   8.195  0.6097 -1.0377 -0.5440
  554TIP3   OH223296   6.268   2.751   1.282  0.0461 -0.2834  0.4616
  554TIP3    H123297   6.353   2.738   1.324  1.4247  0.8933 -1.7614
  554TIP3    H223298   6.218   2.804   1.344 -0.7544 -4.2484  3.6559
  555TIP3   OH223299   1.519   0.566   9.051 -0.2892 -0.2509  0.4300
  555TIP3    H123300   1.493   0.642   8.999  1.3875  0.2595  0.2536
  555TIP3    H223301   1.478   0.579   9.136  2.2903  2.4966  1.4361
  556TIP3   OH223302   2.373   3.048   6.695  0.5225 -0.4674 -0.2621
  556TIP3    H123303   2.347   2.999   6.618  0.0408 -0.4710 -0.0974
  556TIP3    H223304   2.357   3.139   6.673 -1.0420 -0.5707  0.3731
  557TIP3   OH223305   3.295   2.894   7.521 -0.0828  0.2250 -0.0270
  557TIP3    H123306   3.224   2.945   7.481  1.9410  2.3458 -1.1290
  557TIP3    H223307   3.330   2.949   7.590  2.1719  0.4743 -1.2497
  558TIP3   OH223308   3.319   5.272   1.755  0.0698 -0.0993 -0.1175
  558TIP3    H123309   3.321   5.301   1.846 -2.0144 -0.1586 -0.0139
  558TIP3    H223310   3.232   5.297   1.724  0.0674 -1.7349 -1.5275
  559TIP3   OH223311   3.932   2.540   7.569 -0.1137  0.3028  0.2387
  559TIP3    H123312   3.878   2.496   7.635 -2.2090 -0.0155 -1.5770
  559TIP3    H223313   3.968   2.468   7.516 -2.0000  0.6220 -1.5709
  560TIP3   OH223314   4.855   2.453   2.017  0.1039  0.4337  0.9475
  560TIP3    H123315   4.825   2.543   2.027 -1.5293  0.2568 -1.4294
  560TIP3    H223316   4.799   2.402   2.077 -0.6980  0.7340  0.4662
  561TIP3   OH223317   3.884   4.911   7.419  0.0257 -0.4160 -0.5741
  561TIP3    H123318   3.833   4.897   7.339  0.1340 -2.7020 -0.2908
  561TIP3    H223319   3.953   4.845   7.416 -0.4045 -1.0561  1.7527
  562TIP3   OH223320   2.216   0.771   7.178  0.5710 -0.3903 -0.4854
  562TIP3    H123321   2.304   0.734   7.186  0.6053 -0.3180 -0.5229
  562TIP3    H223322   2.230   0.856   7.136  0.7845  0.7958  1.8139
  563TIP3   OH223323   2.412   0.672   8.106 -0.1516  0.0195  0.3885
  563TIP3    H123324   2.434   0.764   8.088  0.9858 -0.2744  0.1824
  563TIP3    H223325   2.430   0.660   8.199  0.9109 -0.3048  0.1517
  564TIP3   OH223326   1.685   5.651   6.909 -0.2065 -0.1237  0.0380
  564TIP3    H123327   1.759   5.609   6.864 -0.4266 -0.1298 -0.3143
  564TIP3    H223328   1.622   5.670   6.840 -0.1515  0.7059  0.2096
  565TIP3   OH223329   6.536   2.450   6.373 -0.3914 -0.0381  0.6916
  565TIP3    H123330   6.607   2.494   6.418 -1.1989  2.9416 -0.6644
  565TIP3    H223331   6.466   2.444   6.438 -0.2719  0.7496  0.9014
  566TIP3   OH223332   3.117   2.697   0.068 -0.0646  0.4001 -0.4858
  566TIP3    H123333   3.047   2.674   0.007  1.5759 -1.2445 -1.8553
  566TIP3    H223334   3.122   2.792   0.063 -3.3071  0.8115  1.0366
  567TIP3   OH223335   2.530   1.659   1.535 -0.2017 -0.0434  0.2508
  567TIP3    H123336   2.594   1.716   1.491 -0.7895  0.3318 -0.1324
  567TIP3    H223337   2.495   1.714   1.605 -0.4134 -0.1044  0.1911
  568TIP3   OH223338   1.978   0.850   1.806 -0.4630 -0.0368  0.6374
  568TIP3    H123339   1.932   0.797   1.741  0.6887 -0.9970  0.5551
  568TIP3    H223340   1.921   0.849   1.882 -0.2224 -1.9512  0.8511
  569TIP3   OH223341   5.554   0.656   7.659  0.0981  0.2470 -0.1543
  569TIP3    H123342   5.484   0.719   7.675 -0.0433  0.3943 -1.2912
  569TIP3    H223343   5.585   0.632   7.746 -1.5245  0.0026  0.3917
  570TIP3   OH223344   6.438   4.719   2.369 -0.0550  0.4738  0.1441
  570TIP3    H123345   6.490   4.719   2.289 -1.3789 -0.3835 -0.7692
  570TIP3    H223346   6.351   4.747   2.341 -0.6492 -0.2395  1.2066
  571TIP3   OH223347   4.374   2.609   2.515  0.5806  0.0643  0.6689
  571TIP3    H123348   4.393   2.696   2.480 -1.2846  0.1873 -0.1868
  571TIP3    H223349   4.446   2.555   2.483  0.7897  0.9190 -0.4061
  572TIP3   OH223350   4.766   2.128   7.861  0.3225 -0.2855 -0.4307
  572TIP3    H123351   4.701   2.198   7.859  0.0349 -0.4955  0.7454
  572TIP3    H223352   4.843   2.166   7.819 -0.0405  0.5232 -0.3821
  573TIP3   OH223353   2.667   1.549   8.477  0.1228  0.7508  0.6379
  573TIP3    H123354   2.742   1.520   8.426  0.3913  1.0174  0.8838
  573TIP3    H223355   2.605   1.475   8.473 -0.2826  1.1489 -0.9038
  574TIP3   OH223356   2.955   5.531   0.694  0.4795  0.1769  0.1005
  574TIP3    H123357   2.930   5.622   0.680  0.0354  0.1074  0.4211
  574TIP3    H223358   3.024   5.515   0.629  1.2479  1.0122  0.6941
  575TIP3   OH223359   0.028   5.601   0.834 -0.1278  0.4002  0.0941
  575TIP3    H123360  -0.033   5.596   0.907  0.9898  0.4969  1.0559
  575TIP3    H223361   0.034   5.694   0.814 -0.1080  0.4126  0.1578
  576TIP3   OH223362   4.610   6.489   0.910  0.2674  0.9404  0.3361
  576TIP3    H123363   4.594   6.421   0.975  0.5379  1.0420  0.5137
  576TIP3    H223364   4.665   6.447   0.845 -1.8991  0.1340 -1.0742
  577TIP3   OH223365   0.875   3.979   1.425  0.0184 -0.3021 -0.2688
  577TIP3    H123366   0.953   3.924   1.416  0.1371  0.0751 -1.6258
  577TIP3    H223367   0.905   4.068   1.406 -0.2346  0.2427  1.6573
  578TIP3   OH223368   0.020   5.642   0.517  0.2926 -0.4251  0.7891
  578TIP3    H123369   0.039   5.726   0.559 -0.6838 -0.6139  1.6329
  578TIP3    H223370   0.027   5.578   0.587  0.3346 -0.9671  0.2947
  579TIP3   OH223371   5.787   4.245   8.003  0.7464  0.9040  0.0239
  579TIP3    H123372   5.877   4.275   8.017  1.0073 -0.5707  1.9632
  579TIP3    H223373   5.733   4.313   8.043  1.0254  1.4627 -0.5397
  580TIP3   OH223374   4.702   5.124   7.123  0.2217  0.6575  0.1515
  580TIP3    H123375   4.792   5.137   7.094  0.5512 -0.4090  0.6148
  580TIP3    H223376   4.701   5.155   7.213  0.2922  0.1342  0.3398
  581TIP3   OH223377   3.407   0.530   1.807 -0.3973 -0.1802 -0.1639
  581TIP3    H123378   3.440   0.613   1.773 -1.7551  0.6344  0.4079
  581TIP3    H223379   3.471   0.465   1.780 -0.5706  0.6632 -2.8495
  582TIP3   OH223380   6.235   1.793   6.466  0.0211  0.1731  0.0833
  582TIP3    H123381   6.263   1.845   6.391 -0.8242 -2.0056 -1.8872
  582TIP3    H223382   6.165   1.738   6.431  1.7769 -3.2690  1.5637
  583TIP3   OH223383   2.528   2.302   1.108  0.4492  0.0805  0.0273
  583TIP3    H123384   2.591   2.291   1.036  0.0441  1.3985 -0.5697
  583TIP3    H223385   2.518   2.215   1.145 -0.2953 -0.9288 -2.3446
  584TIP3   OH223386   3.445   6.317   6.573 -0.3600  0.0281  0.1999
  584TIP3    H123387   3.521   6.364   6.539 -0.1916 -0.2347  0.2070
  584TIP3    H223388   3.406   6.378   6.636 -0.3188  0.2740 -0.0101
  585TIP3   OH223389   3.551   0.416   6.660  0.1424 -0.3711  0.5900
  585TIP3    H123390   3.547   0.320   6.651  0.2228 -0.4762  1.6022
  585TIP3    H223391   3.464   0.446   6.633 -0.5464 -0.9050  2.0941
  586TIP3   OH223392   4.022   3.247   8.466  0.3654  0.0888 -0.0136
  586TIP3    H123393   4.013   3.329   8.516  0.7822 -0.4952  1.0344
  586TIP3    H223394   3.936   3.236   8.424  0.5379  1.4428 -0.7772
  587TIP3   OH223395   5.042   3.390   9.130 -0.6472 -0.4838 -0.4674
  587TIP3    H123396   5.029   3.462   9.192 -0.9207 -2.0145  1.3573
  587TIP3    H223397   5.135   3.396   9.106 -0.5124  0.1165  0.1502
  588TIP3   OH223398   3.049   1.518   6.826 -0.9883 -0.4596  0.1290
  588TIP3    H123399   3.029   1.601   6.782 -0.9507  0.4287  1.7318
  588TIP3    H223400   3.098   1.467   6.760  0.3283  1.3912 -0.4034
  589TIP3   OH223401   4.876   3.600   0.439 -0.1856  0.6172 -0.2433
  589TIP3    H123402   4.802   3.570   0.492  0.7818 -0.0024  0.8242
  589TIP3    H223403   4.924   3.660   0.496  2.3958 -2.1064  0.7884
  590TIP3   OH223404   3.930   4.779   8.212 -0.0398  0.0434  0.0146
  590TIP3    H123405   3.998   4.719   8.180 -0.0391  0.9971 -1.9126
  590TIP3    H223406   3.892   4.734   8.288  3.1429 -0.2316  1.6039
  591TIP3   OH223407   3.736   3.867   7.000  0.2328  0.5944 -0.2623
  591TIP3    H123408   3.777   3.954   7.008  1.7535 -0.1487  0.4442
  591TIP3    H223409   3.742   3.830   7.088 -1.1978  0.0895 -0.3538
  592TIP3   OH223410   4.910   6.242   2.497  0.1091 -0.1887 -0.4498
  592TIP3    H123411   4.978   6.222   2.561  0.7612  2.0249 -0.3576
  592TIP3    H223412   4.936   6.195   2.418  0.9336 -0.5561  0.0314
  593TIP3   OH223413   0.392   5.393   7.523 -0.0631  0.4585 -0.5730
  593TIP3    H123414   0.442   5.408   7.443  0.0485  2.2798 -0.2023
  593TIP3    H223415   0.312   5.445   7.513  0.1815  1.1383  0.6701
  594TIP3   OH223416   0.153   0.599   1.540 -0.7435  0.2175  0.0656
  594TIP3    H123417   0.137   0.639   1.626 -0.7013  1.9877 -0.7172
  594TIP3    H223418   0.248   0.607   1.527 -0.9287  1.3080 -0.7554
  595TIP3   OH223419   3.604   6.029   8.430 -0.6611  0.0313  0.4608
  595TIP3    H123420   3.581   5.978   8.352 -0.7656 -1.1876  1.2549
  595TIP3    H223421   3.687   6.071   8.409 -0.5734 -0.4765 -0.2213
  596TIP3   OH223422   1.056   5.213   0.588 -0.8400  0.2787 -0.1387
  596TIP3    H123423   1.031   5.121   0.582  0.9394 -0.3840  1.7590
  596TIP3    H223424   1.144   5.217   0.551 -0.8726  1.2151 -0.1374
  597TIP3   OH223425   1.342   4.993   1.071  0.0634 -0.7957  0.3148
  597TIP3    H123426   1.253   5.016   1.098  0.1752 -1.1866  1.0407
  597TIP3    H223427   1.391   4.989   1.153  1.0909  0.7863 -0.1874
  598TIP3   OH223428   3.637   5.323   2.093 -0.2548 -0.2495 -0.3173
  598TIP3    H123429   3.690   5.289   2.164 -0.8056  0.4848  0.4703
  598TIP3    H223430   3.654   5.417   2.092 -0.1335 -0.2655 -1.2705
  599TIP3   OH223431   5.754   3.165   2.304 -0.0197 -0.1162 -0.4316
  599TIP3    H123432   5.673   3.198   2.265 -0.0193  0.5058  0.0758
  599TIP3    H223433   5.823   3.219   2.267  0.2174 -0.8787 -1.1362
  600TIP3   OH223434   1.815   0.769   8.345  1.0240  0.4293  0.0863
  600TIP3    H123435   1.879   0.724   8.290  2.2562  1.1380  0.8923
  600TIP3    H223436   1.738   0.713   8.343  0.5852  0.9709 -3.2489
  601TIP3   OH223437   0.357   1.265   7.149 -0.2689 -0.1961  0.0845
  601TIP3    H123438   0.416   1.274   7.224  1.2640 -1.5773 -0.8749
  601TIP3    H223439   0.301   1.190   7.171 -1.6830  1.0666  0.9612
  602TIP3   OH223440   6.567   4.818   0.823  0.2815 -0.7848 -0.4864
  602TIP3    H123441   6.491   4.874   0.834  0.1698 -0.9370 -0.4870
  602TIP3    H223442   6.550   4.742   0.879  1.1804 -0.0473  0.8540
  603TIP3   OH223443   6.639   2.161   2.631  0.0074  0.3138 -0.0619
  603TIP3    H123444   6.635   2.072   2.599  0.5114 -0.2407  1.3130
  603TIP3    H223445   6.571   2.208   2.583 -1.7138 -1.3063  0.6624
  604TIP3   OH223446   4.225   1.466   7.003 -0.2565  0.2260 -0.0325
  604TIP3    H123447   4.241   1.557   6.977 -0.6614  0.1430 -0.6150
  604TIP3    H223448   4.300   1.418   6.970 -0.8961  0.0804 -1.3422
  605TIP3   OH223449   5.293   1.108   0.805  0.4403  0.4033  0.1052
  605TIP3    H123450   5.345   1.110   0.885 -0.7424  0.7430  0.9015
  605TIP3    H223451   5.254   1.196   0.800 -0.6920 -0.0889  0.0029
  606TIP3   OH223452   1.036   2.228   1.695 -0.0626 -0.4092 -0.3618
  606TIP3    H123453   1.091   2.160   1.657 -0.0879 -0.3864 -0.4389
  606TIP3    H223454   1.069   2.310   1.657  2.0277 -0.0110  2.0541
  607TIP3   OH223455   3.439   0.740   0.498  0.0024  0.4751 -0.1499
  607TIP3    H123456   3.370   0.802   0.522  1.1288  1.7780 -0.2374
  607TIP3    H223457   3.519   0.777   0.534  0.8200 -0.5398 -0.8643
  608TIP3   OH223458   4.802   1.726   0.048 -0.2443 -0.0379 -0.6714
  608TIP3    H123459   4.872   1.729  -0.017 -0.1894 -1.0495 -0.6806
  608TIP3    H223460   4.768   1.636   0.042  0.1519 -0.3393  1.0990
  609TIP3   OH223461   5.324   6.717   9.081  0.4712 -0.0392 -0.0003
  609TIP3    H123462   5.307   6.632   9.122  1.8609 -0.2882  0.1157
  609TIP3    H223463   5.419   6.720   9.071  0.6526  2.2521  1.6280
  610TIP3   OH223464   4.223   0.736   6.843  0.4058 -0.2127 -0.4056
  610TIP3    H123465   4.208   0.811   6.785  0.8451 -0.2611 -0.5884
  610TIP3    H223466   4.191   0.660   6.794 -0.0228 -0.1476 -0.2275
  611TIP3   OH223467   1.299   4.349   1.231 -0.4453 -0.0019 -0.6346
  611TIP3    H123468   1.301   4.269   1.179 -0.8539  0.8037 -1.9537
  611TIP3    H223469   1.276   4.418   1.168 -0.0299  1.1645  0.4415
  612TIP3   OH223470   4.507   4.813   7.613 -0.4438  0.0052 -0.1874
  612TIP3    H123471   4.444   4.741   7.616 -0.5987  0.1664  1.5141
  612TIP3    H223472   4.454   4.892   7.619 -0.1238  0.1670  0.5920
  613TIP3   OH223473   1.063   6.217   1.814 -0.1976 -0.2747  0.9184
  613TIP3    H123474   1.137   6.253   1.862  0.7340  1.1439 -1.4017
  613TIP3    H223475   1.025   6.292   1.769 -3.0821 -0.9783  1.9862
  614TIP3   OH223476   0.836   6.151   1.001  0.1926  0.3472  0.7540
  614TIP3    H123477   0.900   6.223   0.995 -0.5565  0.9779 -0.0291
  614TIP3    H223478   0.792   6.152   0.916  0.0281 -0.9266  0.8032
  615TIP3   OH223479   0.744   0.337   1.050 -0.6949 -0.4561  0.1164
  615TIP3    H123480   0.803   0.272   1.089  0.3388 -0.0961 -0.7924
  615TIP3    H223481   0.695   0.372   1.124  0.7019 -0.3039  1.0164
  616TIP3   OH223482   0.968   1.940   2.374 -0.2444 -0.5398 -0.1823
  616TIP3    H123483   0.922   1.898   2.446 -2.5100  1.2269 -0.5050
  616TIP3    H223484   0.998   2.024   2.410  0.9993 -0.8017 -0.5605
  617TIP3   OH223485   0.356   4.677   0.686  0.3966  0.0749 -0.1683
  617TIP3    H123486   0.292   4.639   0.746  0.8165 -0.3589  0.0082
  617TIP3    H223487   0.319   4.762   0.663  0.2081  0.2343  0.6773
  618TIP3   OH223488   1.294   6.233   0.021 -0.1029  0.4626 -0.0206
  618TIP3    H123489   1.221   6.251   0.080 -1.1791  0.6343 -1.3459
  618TIP3    H223490   1.255   6.237  -0.067  0.8589 -2.3061 -0.6796
  619TIP3   OH223491   5.316   5.156   0.020 -0.1539 -0.2824  0.1664
  619TIP3    H123492   5.280   5.098   0.086 -1.0037 -1.0503 -0.9419
  619TIP3    H223493   5.411   5.150   0.032 -0.2862  0.6544  2.1752
  620TIP3   OH223494   5.888   2.077   6.450 -0.0736  0.1608 -0.3840
  620TIP3    H123495   5.848   2.020   6.516 -2.0952  1.8785 -0.0108
  620TIP3    H223496   5.816   2.098   6.390  1.2611  0.1843 -2.0549
  621TIP3   OH223497   1.363   2.574   1.495 -0.1203 -0.5756 -0.2343
  621TIP3    H123498   1.454   2.600   1.511 -0.3524  0.5940 -0.7226
  621TIP3    H223499   1.322   2.653   1.460 -1.1277 -1.3294 -0.7719
  622TIP3   OH223500   5.558   2.330   7.383 -0.1119  0.4607  0.4227
  622TIP3    H123501   5.467   2.331   7.412 -0.5590 -0.1487 -0.8791
  622TIP3    H223502   5.583   2.423   7.379 -0.6034  0.6189  1.0017
  623TIP3   OH223503   2.259   2.961   6.137  0.7276  0.3498 -0.0409
  623TIP3    H123504   2.203   2.884   6.140  0.9493  0.1762 -0.3220
  623TIP3    H223505   2.330   2.937   6.078  3.5733 -1.0887  3.6083
  624TIP3   OH223506   0.693   0.306   8.840  0.2025 -0.2610 -0.4548
  624TIP3    H123507   0.618   0.364   8.827 -0.2066 -0.8509 -0.7842
  624TIP3    H223508   0.660   0.219   8.816  0.8749 -0.5881 -0.2034
  625TIP3   OH223509   6.084   5.050   1.530  0.6770 -0.3693 -0.3354
  625TIP3    H123510   6.008   5.002   1.563  1.9225 -1.2639  1.3927
  625TIP3    H223511   6.091   5.025   1.438 -0.6332 -0.8936 -0.3163
  626TIP3   OH223512   4.381   0.103   2.143  0.1083 -0.2121  0.1169
  626TIP3    H123513   4.379   0.022   2.195  2.4085 -0.1428  0.4284
  626TIP3    H223514   4.391   0.073   2.053 -2.3426 -0.2910 -0.1984
  627TIP3   OH223515   4.363   2.970   0.767 -0.8296 -0.3003 -0.5808
  627TIP3    H123516   4.410   3.052   0.751 -1.9984  0.3624 -0.7415
  627TIP3    H223517   4.322   2.983   0.852  2.6778 -2.5357  1.7205
  628TIP3   OH223518   3.653   0.288   1.317  0.4786 -0.6209 -0.0621
  628TIP3    H123519   3.625   0.373   1.352  2.7368  0.2230 -0.1655
  628TIP3    H223520   3.573   0.236   1.316 -1.1203  1.6675 -0.5125
  629TIP3   OH223521   1.876   5.942   0.709  0.2703  0.1188  0.1107
  629TIP3    H123522   1.813   6.005   0.675 -0.7914 -1.0833 -0.2631
  629TIP3    H223523   1.880   5.874   0.641 -0.3109 -1.3061  1.4385
  630TIP3   OH223524   2.066   5.545   2.201 -0.6787 -0.1336  0.0743
  630TIP3    H123525   1.979   5.585   2.200 -0.0116  1.4064  0.6192
  630TIP3    H223526   2.114   5.588   2.130 -0.1973 -0.5866  0.1153
  631TIP3   OH223527   3.852   1.831   0.161  0.1337  0.6835  0.5166
  631TIP3    H123528   3.870   1.854   0.069 -2.0529  1.2077  0.1716
  631TIP3    H223529   3.859   1.736   0.164  0.3955  0.6732 -0.1371
  632TIP3   OH223530   3.911   3.310   2.272  0.3226 -0.5453  0.6039
  632TIP3    H123531   3.838   3.255   2.244  1.4368 -3.0043  2.1886
  632TIP3    H223532   3.910   3.304   2.368  0.8725  1.7983  0.8275
  633TIP3   OH223533   3.463   2.257   8.142  0.3678 -0.4750 -0.4198
  633TIP3    H123534   3.447   2.317   8.069 -0.7436  1.7950  1.5400
  633TIP3    H223535   3.376   2.236   8.175  0.8622  0.4577  1.6384
  634TIP3   OH223536   3.188   5.056   2.675  0.4014  0.6321 -0.8854
  634TIP3    H123537   3.218   5.045   2.585 -0.4925  0.5337 -1.1764
  634TIP3    H223538   3.094   5.039   2.672  0.0647  2.1844 -0.2298
  635TIP3   OH223539   1.341   1.569   0.375  0.5605 -0.2262  0.5593
  635TIP3    H123540   1.358   1.613   0.459  1.4639  4.3809 -1.7049
  635TIP3    H223541   1.250   1.591   0.355  1.0542  0.8286 -0.6602
  636TIP3   OH223542   2.353   5.811   2.270 -0.1472  0.7335 -0.1514
  636TIP3    H123543   2.430   5.867   2.257  0.6790 -0.4071 -0.3600
  636TIP3    H223544   2.295   5.833   2.198  0.6734  0.5230 -0.8996
  637TIP3   OH223545   3.461   3.092   0.681  0.3008 -0.5664 -0.3037
  637TIP3    H123546   3.432   3.000   0.681 -0.8995 -0.2457  1.4590
  637TIP3    H223547   3.437   3.124   0.768  4.6140  0.2362  0.8088
  638TIP3   OH223548   3.663   4.345   1.691 -0.3845  0.3469 -0.0114
  638TIP3    H123549   3.734   4.303   1.739  0.5001  1.5352 -0.2361
  638TIP3    H223550   3.594   4.359   1.757  0.3550  0.9125  0.6575
  639TIP3   OH223551   3.537   1.327   8.741 -0.2527  0.0161 -0.7213
  639TIP3    H123552   3.464   1.266   8.736 -0.5350 -0.0184  2.2204
  639TIP3    H223553   3.510   1.391   8.808  2.2316  0.1958  0.2054
  640TIP3   OH223554   3.292   4.298   0.548  0.2749  0.0327 -0.0771
  640TIP3    H123555   3.277   4.392   0.545  1.7421  0.2709 -0.7872
  640TIP3    H223556   3.277   4.268   0.459  2.3268  0.0590 -0.4887
  641TIP3   OH223557   3.604   2.271   1.613 -0.2038 -0.2037 -0.0087
  641TIP3    H123558   3.582   2.183   1.643  2.3727 -0.7239  0.6144
  641TIP3    H223559   3.587   2.327   1.689 -0.6670 -0.3398 -0.0065
  642TIP3   OH223560   0.301   4.152   6.995  0.4174  0.2428 -0.0140
  642TIP3    H123561   0.369   4.100   7.038  0.5921  1.4046  1.1880
  642TIP3    H223562   0.348   4.215   6.941  0.2079 -0.8014 -1.4572
  643TIP3   OH223563   4.383   4.108   8.578 -0.8656  0.2033  0.1582
  643TIP3    H123564   4.461   4.128   8.630 -0.1438 -1.1290 -0.3815
  643TIP3    H223565   4.338   4.040   8.628 -1.5715  0.7790  0.3344
  644TIP3   OH223566   6.090   5.284   1.683  0.1559 -0.3226  0.4144
  644TIP3    H123567   6.011   5.337   1.692  0.4940  0.1175  0.8435
  644TIP3    H223568   6.067   5.216   1.620 -0.7968 -0.6335  1.0836
  645TIP3   OH223569   4.291   3.233   0.170  0.1358 -0.4772 -0.2278
  645TIP3    H123570   4.227   3.178   0.214 -2.2588  3.2596  1.4501
  645TIP3    H223571   4.366   3.235   0.229 -0.4005 -0.6926  0.4785
  646TIP3   OH223572   1.670   3.522   1.035  0.2778  0.3189 -0.3888
  646TIP3    H123573   1.649   3.592   1.097  0.4790  1.0696 -1.1666
  646TIP3    H223574   1.587   3.501   0.993 -0.5397 -2.2916  2.2073
  647TIP3   OH223575   2.613   5.951   6.821 -0.2559 -0.1367  0.9362
  647TIP3    H123576   2.695   5.977   6.779 -0.5338 -0.6195  0.0643
  647TIP3    H223577   2.589   5.868   6.777 -0.5692 -0.6413  2.0358
  648TIP3   OH223578   5.916   2.145   7.919  0.0201  0.1110  0.0962
  648TIP3    H123579   5.948   2.088   7.989 -1.5671 -1.0987 -0.1172
  648TIP3    H223580   5.863   2.088   7.864 -0.9132  1.6117 -0.6234
  649TIP3   OH223581   5.574   3.560   8.500  0.4513 -0.0811 -0.1293
  649TIP3    H123582   5.670   3.566   8.508  0.3455  1.9040  0.2618
  649TIP3    H223583   5.556   3.585   8.410  0.2106  2.0284  0.4423
  650TIP3   OH223584   0.550   5.815   0.105  0.3206  0.1704  0.1906
  650TIP3    H123585   0.516   5.863   0.180 -0.6988  2.2705 -1.5252
  650TIP3    H223586   0.597   5.880   0.054 -1.4975 -0.4543 -2.4729
  651TIP3   OH223587   4.140   4.906   1.310 -0.0076  0.2560 -0.2223
  651TIP3    H123588   4.054   4.872   1.335 -0.6570  1.9820  0.0324
  651TIP3    H223589   4.120   4.981   1.255  1.2536  2.1774  1.7934
  652TIP3   OH223590   2.666   3.724   0.519  0.0759  0.1716  0.1103
  652TIP3    H123591   2.609   3.726   0.596 -0.9827 -0.0183 -0.6449
  652TIP3    H223592   2.755   3.721   0.555 -0.3891  0.2879  1.3159
  653TIP3   OH223593   4.043   0.453   0.647  0.1459  0.6661 -0.2667
  653TIP3    H123594   4.101   0.398   0.594  2.5125  1.7766  1.0052
  653TIP3    H223595   4.059   0.424   0.737 -1.0038  1.2861  0.1500
  654TIP3   OH223596   2.902   1.248   2.475  0.0100  0.6159  0.1461
  654TIP3    H123597   2.834   1.190   2.509 -1.0277 -0.1863 -2.9415
  654TIP3    H223598   2.880   1.335   2.509  0.2982 -0.3181  3.0353
  655TIP3   OH223599   6.325   6.543   0.119 -0.2525 -0.1725 -0.4005
  655TIP3    H123600   6.378   6.581   0.049  1.1801 -1.5166 -0.1066
  655TIP3    H223601   6.388   6.522   0.189 -1.1386 -1.8068 -0.0255
  656TIP3   OH223602   2.329   0.439   7.984  0.1012  0.0637 -0.0581
  656TIP3    H123603   2.298   0.394   8.063  0.0930 -1.9155 -1.1347
  656TIP3    H223604   2.386   0.509   8.018  1.8277 -2.0500  1.7142
  657TIP3   OH223605   4.771   0.977   8.110 -0.2494  0.0877  0.3004
  657TIP3    H123606   4.717   0.979   8.189  0.8160  1.7908  1.0461
  657TIP3    H223607   4.710   0.990   8.038 -1.1544 -0.8528  0.8737
  658TIP3   OH223608   0.561   4.883   7.988 -0.4081  0.8217 -0.1844
  658TIP3    H123609   0.480   4.834   7.977 -1.0212  1.3995  1.5119
  658TIP3    H223610   0.597   4.853   8.071  1.3173  0.3506 -1.0437
  659TIP3   OH223611   3.107   2.410   9.054  0.7882  0.2206 -0.1843
  659TIP3    H123612   3.047   2.480   9.029 -0.0178  0.6000  2.5486
  659TIP3    H223613   3.194   2.444   9.032  0.3644  1.8560  0.5433
  660TIP3   OH223614   5.115   3.552   8.019 -0.2091 -0.0665  0.5373
  660TIP3    H123615   5.172   3.625   8.044 -0.9010  0.4960  0.5087
  660TIP3    H223616   5.026   3.585   8.034 -0.5542 -0.6125 -0.2692
  661TIP3   OH223617   4.628   3.962   2.512 -0.3444 -0.2801  0.1621
  661TIP3    H123618   4.594   4.033   2.458 -0.4127  0.7516  1.5009
  661TIP3    H223619   4.560   3.896   2.512 -0.8383  0.2217 -0.0656
  662TIP3   OH223620   1.885   2.441   8.554  0.0581  0.1821  0.1784
  662TIP3    H123621   1.944   2.481   8.490  1.1222 -2.5714 -0.6940
  662TIP3    H223622   1.901   2.491   8.635  1.7342  1.1056 -0.6693
  663TIP3   OH223623   1.159   5.627   0.152  0.6221  0.6863 -0.4343
  663TIP3    H123624   1.238   5.664   0.190  1.1639  0.8443 -1.6646
  663TIP3    H223625   1.186   5.542   0.116 -0.0308  0.2287  0.1208
  664TIP3   OH223626   0.872   0.818   9.031 -0.9720 -0.0610  0.4468
  664TIP3    H123627   0.821   0.881   9.082 -2.0028  2.8920 -3.7477
  664TIP3    H223628   0.807   0.765   8.986 -0.0998 -1.9071  1.2636
  665TIP3   OH223629   6.669   4.875   8.214 -0.2322 -0.2448 -0.1803
  665TIP3    H123630   6.636   4.920   8.292  1.3840 -0.7035  0.8257
  665TIP3    H223631   6.655   4.937   8.143  1.1129  1.5400  1.0139
  666TIP3   OH223632   2.541   4.497   0.731 -0.3309  0.6816  0.0387
  666TIP3    H123633   2.588   4.549   0.666  0.8612  0.1403  0.4386
  666TIP3    H223634   2.453   4.487   0.694  0.4844 -0.1650 -1.8196
  667TIP3   OH223635   4.335   4.511   6.590 -0.0908  0.3902  0.4373
  667TIP3    H123636   4.397   4.584   6.581  0.1499  0.4582  2.2648
  667TIP3    H223637   4.385   4.433   6.568 -0.1006  0.6752 -0.6461
  668TIP3   OH223638   3.741   5.544   8.642  0.3218 -0.4688  0.0494
  668TIP3    H123639   3.697   5.465   8.609 -1.5947 -0.5308  2.4787
  668TIP3    H223640   3.676   5.586   8.697  2.3704  1.1044  1.4018
  669TIP3   OH223641   2.921   3.272   1.072  0.1949  0.4626 -0.1197
  669TIP3    H123642   2.843   3.216   1.081  0.6017 -0.0411  0.2812
  669TIP3    H223643   2.990   3.213   1.043  0.7488  0.6563  0.7589
  670TIP3   OH223644   1.438   5.359   6.382  0.3202  0.0786 -0.3594
  670TIP3    H123645   1.439   5.455   6.378 -0.9898  0.0913 -2.0341
  670TIP3    H223646   1.392   5.339   6.463  0.8729  0.8650  0.1588
  671TIP3   OH223647   6.051   0.009   1.028 -0.3496 -0.2090  0.1280
  671TIP3    H123648   6.142   0.017   1.056 -1.2411 -2.2743  4.5517
  671TIP3    H223649   6.029  -0.083   1.044 -3.2703  0.2573 -0.6035
  672TIP3   OH223650   0.067   0.435   1.858 -0.0030 -0.4005 -0.1145
  672TIP3    H123651   0.002   0.411   1.924  1.1124  0.9303  1.5442
  672TIP3    H223652   0.034   0.516   1.819  1.0451  0.7919  1.3842
  673TIP3   OH223653   0.454   1.858   0.550  1.0263  0.3411  0.0061
  673TIP3    H123654   0.432   1.944   0.513 -2.5284  0.0325  1.0868
  673TIP3    H223655   0.437   1.797   0.479 -0.0511  0.2461  0.3358
  674TIP3   OH223656   3.170   4.615   8.139 -0.3079 -0.3284 -0.5882
  674TIP3    H123657   3.107   4.560   8.187 -1.2224 -0.8420 -2.3134
  674TIP3    H223658   3.254   4.571   8.153 -0.3886 -0.0049  1.1873
  675TIP3   OH223659   6.472   2.393   9.105 -0.4801 -0.0015  0.1641
  675TIP3    H123660   6.527   2.323   9.137 -0.4433  0.4780  1.1924
  675TIP3    H223661   6.386   2.376   9.144  0.1506  1.9366  2.6468
  676TIP3   OH223662   3.119   6.041   8.133  0.2730 -0.0107  0.2455
  676TIP3    H123663   3.189   6.054   8.197  1.5929 -1.9430 -0.7080
  676TIP3    H223664   3.038   6.056   8.183  1.2939  0.4520  1.8425
  677TIP3   OH223665   2.531   5.334   8.298 -0.5394 -0.3656 -0.0370
  677TIP3    H123666   2.618   5.303   8.272  0.4173  0.2788  2.1813
  677TIP3    H223667   2.536   5.429   8.289 -0.7195 -0.2621  0.8842
  678TIP3   OH223668   3.240   4.951   8.762  0.0294  0.5673 -0.4972
  678TIP3    H123669   3.168   4.991   8.812  0.3097  0.1349  0.2805
  678TIP3    H223670   3.319   4.981   8.807  0.4341  2.2827 -2.2682
  679TIP3   OH223671   4.428   2.871   2.413  0.9837 -0.2647  0.2224
  679TIP3    H123672   4.496   2.855   2.348 -0.2684 -1.9492 -0.7678
  679TIP3    H223673   4.405   2.964   2.402  3.5501  0.5587  1.1052
  680TIP3   OH223674   3.380   0.617   2.214  0.1614  0.0324 -0.4076
  680TIP3    H123675   3.359   0.709   2.225  2.8806  0.4285  2.9227
  680TIP3    H223676   3.473   0.615   2.193  0.0918 -1.9693 -0.7910
  681TIP3   OH223677   2.067   4.883   1.140 -0.5532 -0.1767 -0.0860
  681TIP3    H123678   2.021   4.825   1.080  0.6010  0.1405 -1.3339
  681TIP3    H223679   2.014   4.962   1.142 -0.7619 -0.3011 -0.4676
  682TIP3   OH223680   0.459   3.817   1.979  0.0414  0.6503 -0.1233
  682TIP3    H123681   0.388   3.879   1.994  1.1856  1.6070  1.5635
  682TIP3    H223682   0.527   3.841   2.042  1.6507 -0.5965 -1.2906
  683TIP3   OH223683   1.989   5.045   0.365  0.3668 -0.0297 -0.3039
  683TIP3    H123684   1.925   5.086   0.307  0.6092  0.7880  0.0014
  683TIP3    H223685   1.945   4.964   0.394 -1.0151  1.0596  0.7951
  684TIP3   OH223686   3.749   3.239   0.443  0.3463  0.4519  0.3779
  684TIP3    H123687   3.696   3.306   0.487 -2.4269 -0.4794 -1.2477
  684TIP3    H223688   3.832   3.283   0.422  0.1299  2.1354  2.7292
  685TIP3   OH223689   5.776   0.327   7.601 -0.5438  0.3229 -0.4455
  685TIP3    H123690   5.847   0.379   7.639 -0.8024  0.9254 -0.7909
  685TIP3    H223691   5.818   0.243   7.579  0.5886  1.3372 -2.5107
  686TIP3   OH223692   5.250   2.764   0.676  0.2648 -0.1307 -0.2800
  686TIP3    H123693   5.230   2.765   0.582  0.5503  1.5072 -0.3655
  686TIP3    H223694   5.181   2.818   0.715  0.3361 -0.5332  0.4046
  687TIP3   OH223695   4.228   0.273   1.402  0.1396  0.1750 -0.4689
  687TIP3    H123696   4.174   0.241   1.475  0.0227  2.2496  0.4138
  687TIP3    H223697   4.202   0.219   1.327 -0.5262 -1.2843  0.7540
  688TIP3   OH223698   5.240   5.919   8.022  0.3376 -0.1471  0.5204
  688TIP3    H123699   5.237   5.831   7.984  0.8117 -0.4798  1.2435
  688TIP3    H223700   5.168   5.922   8.084 -0.2919  0.3202 -0.2122
  689TIP3   OH223701   1.127   2.127   9.018 -0.3464  0.0095  0.3470
  689TIP3    H123702   1.182   2.061   8.976 -0.7382 -0.9346  1.2788
  689TIP3    H223703   1.040   2.088   9.022 -0.1262 -0.3876  2.9059
  690TIP3   OH223704   1.742   6.266   9.101 -0.1672 -0.2448  0.0475
  690TIP3    H123705   1.754   6.176   9.133 -0.8528  0.1511  1.4981
  690TIP3    H223706   1.826   6.309   9.120 -0.3771 -0.1671  0.8343
  691TIP3   OH223707   1.435   1.399   2.129  0.3324 -0.1710  0.3086
  691TIP3    H123708   1.469   1.360   2.048 -0.2399 -0.3344  0.1412
  691TIP3    H223709   1.340   1.387   2.123 -0.0019  2.3419 -0.3404
  692TIP3   OH223710   5.511   3.837   8.832 -0.2733 -0.1764 -0.0406
  692TIP3    H123711   5.575   3.905   8.853 -1.6654  1.0911  0.3206
  692TIP3    H223712   5.530   3.766   8.892  0.2520  0.5389  0.6563
  693TIP3   OH223713   4.810   5.798   2.578 -0.2611  0.3458  0.2349
  693TIP3    H123714   4.734   5.848   2.608 -0.0119  0.2759  1.0007
  693TIP3    H223715   4.782   5.707   2.584 -0.2027  0.3305  0.2727
  694TIP3   OH223716   3.504   0.969   7.635 -0.3009  0.6487 -0.1078
  694TIP3    H123717   3.463   0.954   7.550 -0.3935  2.7880 -0.5106
  694TIP3    H223718   3.447   1.034   7.677  1.1755  1.5999  0.4831
  695TIP3   OH223719   3.069   4.035   8.871 -0.1311 -0.4665 -0.4052
  695TIP3    H123720   3.041   3.947   8.848 -0.0713 -0.8841  1.0031
  695TIP3    H223721   3.156   4.023   8.909  0.0100  0.2414 -0.4921
  696TIP3   OH223722   3.605   4.043   6.629  0.1095 -0.4832 -0.5090
  696TIP3    H123723   3.695   4.072   6.619  0.2597 -0.7266  0.1213
  696TIP3    H223724   3.553   4.111   6.586  0.2920  1.7142  2.4628
  697TIP3   OH223725   2.042   4.961   1.694 -0.7085 -0.0544 -0.0512
  697TIP3    H123726   2.060   4.973   1.601 -1.8244 -0.3775 -0.3217
  697TIP3    H223727   1.958   4.915   1.697 -2.3600  2.8162  1.1400
  698TIP3   OH223728   1.994   4.549   0.615 -0.6277 -0.9550 -0.1480
  698TIP3    H123729   2.057   4.539   0.544 -0.9051  3.1706 -1.2276
  698TIP3    H223730   2.048   4.546   0.695  0.2602 -1.7076 -0.7540
  699TIP3   OH223731   3.027   4.759   0.842  0.1858 -0.8560 -0.0581
  699TIP3    H123732   2.952   4.710   0.875  0.2948 -0.7445  0.3732
  699TIP3    H223733   3.103   4.705   0.866  0.5472  0.7074  2.8858
  700TIP3   OH223734   2.761   6.605   8.536  0.4595 -0.1379 -0.4811
  700TIP3    H123735   2.683   6.659   8.539  0.4923 -0.1502  1.2850
  700TIP3    H223736   2.735   6.522   8.575  0.8551 -0.8571 -1.6617
  701TIP3   OH223737   5.272   5.656   7.974  0.5389  0.2203  0.0259
  701TIP3    H123738   5.325   5.577   7.979  1.0255  0.6032  3.5933
  701TIP3    H223739   5.192   5.629   7.929  1.6631 -1.6434 -0.9466
  702TIP3   OH223740   0.707   4.844   0.744 -0.2004  0.2842  0.5795
  702TIP3    H123741   0.703   4.754   0.776  1.3062  0.6978  2.0747
  702TIP3    H223742   0.669   4.840   0.656  0.4155 -1.9193  0.3577
  703TIP3   OH223743   4.708   1.078   1.248 -0.4491  0.0460  0.2226
  703TIP3    H123744   4.719   0.999   1.302  0.6406  0.9684  1.3978
  703TIP3    H223745   4.728   1.048   1.159 -1.0566 -1.2272  0.4924
  704TIP3   OH223746   2.692   5.297   0.116  0.1707 -0.0265 -0.1857
  704TIP3    H123747   2.668   5.383   0.082  1.8292  1.3417  1.7824
  704TIP3    H223748   2.688   5.308   0.211  0.5847 -2.1038  0.1092
  705TIP3   OH223749   0.525   1.604   1.385  0.3867  0.1084  0.6402
  705TIP3    H123750   0.436   1.591   1.417  0.2123 -0.7176 -0.1463
  705TIP3    H223751   0.567   1.658   1.452 -0.8005  0.8016  0.8573
  706TIP3   OH223752   2.190   2.515   9.052 -0.0711  0.4996  0.1819
  706TIP3    H123753   2.270   2.549   9.012 -0.2435  0.3086 -0.3372
  706TIP3    H223754   2.120   2.566   9.012 -0.4849 -1.4506 -1.8266
  707TIP3   OH223755   4.610   1.445   1.517 -0.2425  0.5549 -0.3108
  707TIP3    H123756   4.641   1.536   1.518  0.5594  0.2904  0.2075
  707TIP3    H223757   4.575   1.431   1.605  0.0507  0.2350 -0.2404
  708TIP3   OH223758   4.923   4.767   1.249  0.7627 -0.0520  0.6346
  708TIP3    H123759   4.898   4.680   1.219 -0.0897 -0.4832  2.4125
  708TIP3    H223760   4.876   4.778   1.332  1.2667  1.8918  0.7210
  709TIP3   OH223761   6.174   3.774   7.346 -0.7913  0.0666  0.1087
  709TIP3    H123762   6.199   3.852   7.296  1.6825 -1.4175 -1.1758
  709TIP3    H223763   6.180   3.702   7.283 -2.3952 -1.2980  1.3951
  710TIP3   OH223764   0.596   0.651   7.585 -0.1988  0.4232  0.1133
  710TIP3    H123765   0.507   0.658   7.552  0.0625  0.0910 -0.7004
  710TIP3    H223766   0.587   0.609   7.671 -0.7453 -0.7209 -0.4730
  711TIP3   OH223767   6.705   5.379   7.780 -0.1146 -0.2230 -0.3972
  711TIP3    H123768   6.753   5.363   7.861 -0.8559  1.1563  0.3584
  711TIP3    H223769   6.615   5.353   7.800 -0.1991 -0.3755 -0.9555
  712TIP3   OH223770   2.052   5.276   1.375 -0.1643  0.2509  0.4847
  712TIP3    H123771   2.133   5.265   1.425 -1.1128  0.3296  2.1139
  712TIP3    H223772   2.028   5.187   1.350  1.2450  0.3529 -1.4624
  713TIP3   OH223773   5.009   6.088   8.385 -0.5949  0.0366 -0.4587
  713TIP3    H123774   4.921   6.086   8.422 -1.0050 -1.7848 -1.3814
  713TIP3    H223775   5.064   6.127   8.453 -2.0174  0.7429  0.3237
  714TIP3   OH223776   4.410   0.263   8.322 -0.0000  0.2209  0.3277
  714TIP3    H123777   4.432   0.175   8.294  0.0526  0.2880  0.1583
  714TIP3    H223778   4.491   0.298   8.359  0.0262  0.2611  0.2332
  715TIP3   OH223779   0.302   5.153   1.554 -0.0198  0.0152 -0.3832
  715TIP3    H123780   0.275   5.123   1.467 -0.5360 -1.1642  0.1500
  715TIP3    H223781   0.224   5.139   1.609  0.9480 -1.3188  0.7146
  716TIP3   OH223782   2.924   4.373   0.944 -0.0446 -0.0978  0.0658
  716TIP3    H123783   2.946   4.323   0.865 -0.8384 -1.0344  0.4132
  716TIP3    H223784   2.899   4.459   0.911 -0.8897 -0.6392 -0.7695
  717TIP3   OH223785   6.573   5.578   2.201  0.1115  0.4526  0.2206
  717TIP3    H123786   6.636   5.609   2.137  0.4588 -0.3058  0.1819
  717TIP3    H223787   6.541   5.657   2.244  1.5039  0.8157  0.6238
  718TIP3   OH223788   1.431   2.638   9.106  0.7180 -0.0864  0.3976
  718TIP3    H123789   1.505   2.650   9.166  1.5745 -1.9033 -0.2336
  718TIP3    H223790   1.465   2.664   9.020  0.5512 -0.6737  0.1488
  719TIP3   OH223791   0.407   6.065   1.149 -0.1208 -0.3858 -0.0918
  719TIP3    H123792   0.481   6.026   1.195  0.4327  2.1176  1.2864
  719TIP3    H223793   0.436   6.154   1.127 -1.3394 -0.5772 -3.0046
  720TIP3   OH223794   0.954   3.186   8.516 -0.7947  0.1920  0.8284
  720TIP3    H123795   1.038   3.141   8.529 -0.8010  0.5072  2.0503
  720TIP3    H223796   0.898   3.152   8.585 -1.8606 -0.4053 -0.2948
  721TIP3   OH223797   1.455   3.582   6.951 -0.0509 -0.2776 -0.7489
  721TIP3    H123798   1.533   3.633   6.928  0.8351 -1.4125 -0.3449
  721TIP3    H223799   1.488   3.494   6.967 -1.5670 -1.0261 -1.5642
  722TIP3   OH223800   1.521   6.681   0.211  0.4921  0.9623 -0.6506
  722TIP3    H123801   1.467   6.760   0.211  0.8748  1.3028  1.5394
  722TIP3    H223802   1.461   6.610   0.236  0.7363  1.0980  0.3625
  723TIP3   OH223803   0.403   2.239   1.032  0.0421  0.3082  0.2854
  723TIP3    H123804   0.407   2.298   0.957  2.2669  1.4016  1.1855
  723TIP3    H223805   0.346   2.284   1.095 -2.0025 -0.7086 -0.7282
  724TIP3   OH223806   6.239   3.240   7.069 -0.4523 -0.2355 -0.1923
  724TIP3    H123807   6.212   3.282   6.987 -0.3989  0.0250 -0.0791
  724TIP3    H223808   6.328   3.272   7.084 -0.1972 -0.8433 -0.4014
  725TIP3   OH223809   1.238   2.701   1.099 -0.0313 -0.7741 -0.3036
  725TIP3    H123810   1.320   2.716   1.146  0.7815 -3.2269 -0.8074
  725TIP3    H223811   1.178   2.669   1.166 -0.3449  0.2237 -0.0932
  726TIP3   OH223812   4.174   3.111   1.535  0.0185  0.0282 -0.5507
  726TIP3    H123813   4.189   3.049   1.464 -0.8829 -0.2021 -0.5462
  726TIP3    H223814   4.228   3.187   1.511  2.5963 -1.3945  0.3787
  727TIP3   OH223815   4.710   0.149   1.356 -0.1546  0.0597  0.3606
  727TIP3    H123816   4.741   0.226   1.309  0.3911  0.0823  0.7472
  727TIP3    H223817   4.723   0.076   1.295 -0.0216  0.1720  0.2559
  728TIP3   OH223818   3.153   0.661   8.446  0.2904  0.2062 -0.4020
  728TIP3    H123819   3.178   0.723   8.377  0.3696  1.3544  0.6171
  728TIP3    H223820   3.236   0.633   8.485  0.2019  1.4248  0.7667
  729TIP3   OH223821   1.805   6.680   8.475 -0.2007 -0.1018  0.2293
  729TIP3    H123822   1.720   6.680   8.518 -1.3143 -0.2759 -1.8126
  729TIP3    H223823   1.808   6.765   8.430 -0.4297 -1.0590 -1.7045
  730TIP3   OH223824   6.096   0.978   7.027  0.1119  0.1815  0.1177
  730TIP3    H123825   6.172   1.012   6.981  0.7006  2.9511  2.8360
  730TIP3    H223826   6.128   0.953   7.113 -1.5296 -1.6664  0.2789
  731TIP3   OH223827   5.785   4.824   0.437  0.9712 -0.2454 -0.2213
  731TIP3    H123828   5.856   4.855   0.381 -1.2254  0.0733 -3.0321
  731TIP3    H223829   5.808   4.733   0.456  3.3634  0.5465  1.2278
  732TIP3   OH223830   2.111   3.236   6.800 -0.2139  0.1236 -0.3524
  732TIP3    H123831   2.193   3.252   6.754 -0.2969 -1.4110 -1.0758
  732TIP3    H223832   2.080   3.152   6.767 -0.3416 -1.0330  2.4079
  733TIP3   OH223833   3.930   4.069   7.052 -0.4940 -0.0013  0.0884
  733TIP3    H123834   3.870   4.143   7.056 -0.4729  0.0155  0.0967
  733TIP3    H223835   3.950   4.048   7.144  0.0645  0.4426  0.0725
  734TIP3   OH223836   0.373   2.415   0.824 -0.2380 -0.1703 -0.5185
  734TIP3    H123837   0.397   2.379   0.739  1.5922 -0.7675  0.2001
  734TIP3    H223838   0.364   2.509   0.809 -0.3421 -0.3209 -1.4471
  735TIP3   OH223839   0.948   1.457   7.222 -0.4468  0.0717  0.7839
  735TIP3    H123840   0.970   1.381   7.167 -1.8063  1.2931 -1.6523
  735TIP3    H223841   0.854   1.447   7.239 -0.2519  0.2737  2.0218
  736TIP3   OH223842   1.003   0.003   0.382  0.1304  0.2111  0.3443
  736TIP3    H123843   0.941   0.044   0.443 -1.1187 -0.7971 -0.1839
  736TIP3    H223844   1.074   0.066   0.373 -0.4360  1.0669  1.6012
  737TIP3   OH223845   2.122   0.920   7.405 -0.0939  0.3714 -0.3400
  737TIP3    H123846   2.185   0.864   7.360  0.4604 -1.2053  2.1405
  737TIP3    H223847   2.068   0.859   7.456 -1.9170  1.8761 -0.3579
  738TIP3   OH223848   1.497   2.972   8.465  0.2800  0.0108  0.1221
  738TIP3    H123849   1.589   2.999   8.461  0.2007  0.1662 -1.8538
  738TIP3    H223850   1.448   3.050   8.438 -0.4058 -0.1971  0.7422
  739TIP3   OH223851   5.770   4.885   1.364 -0.1509 -0.0517  0.0648
  739TIP3    H123852   5.684   4.925   1.349 -0.6190 -1.5146 -1.5131
  739TIP3    H223853   5.832   4.943   1.319 -0.3204  0.8858  1.0128
  740TIP3   OH223854   5.588   1.409   8.799  0.3451  0.3641  0.0167
  740TIP3    H123855   5.504   1.367   8.817  0.4669 -0.0116 -0.2989
  740TIP3    H223856   5.650   1.337   8.789  0.4237  0.5823 -1.2277
  741TIP3   OH223857   3.237   3.460   0.343  0.2578  0.4156  0.1740
  741TIP3    H123858   3.192   3.419   0.269 -2.6041  1.2771  1.3288
  741TIP3    H223859   3.308   3.400   0.364  0.8983 -0.0861 -2.9215
  742TIP3   OH223860   0.079   0.720   1.786  0.7081  0.3593  0.4119
  742TIP3    H123861   0.064   0.810   1.815  1.3865  0.7365 -0.3868
  742TIP3    H223862  -0.009   0.682   1.778  0.3798  1.1785  0.0546
  743TIP3   OH223863   4.027   2.190   1.083 -0.0874  1.0932 -0.2561
  743TIP3    H123864   4.118   2.192   1.112 -0.9605  0.3983  3.0134
  743TIP3    H223865   3.977   2.173   1.163 -2.8409 -2.4569 -2.4277
  744TIP3   OH223866   2.131   3.631   8.096  0.4988  0.2729 -0.3951
  744TIP3    H123867   2.036   3.617   8.094  0.3352  0.9769  1.2949
  744TIP3    H223868   2.157   3.626   8.004 -1.3006  0.9038 -0.9878
  745TIP3   OH223869   5.822   2.198   6.752  0.0469  0.0047 -0.6845
  745TIP3    H123870   5.771   2.240   6.683 -0.1650 -1.6868 -1.6072
  745TIP3    H223871   5.823   2.105   6.728  2.5921 -0.1816 -0.0667
  746TIP3   OH223872   6.021   5.919   6.602 -0.1710 -0.3683  0.2011
  746TIP3    H123873   6.003   5.867   6.523 -0.2156  0.0026 -0.0334
  746TIP3    H223874   6.010   5.857   6.674  0.2605 -0.8106 -0.1060
  747TIP3   OH223875   0.752   6.689   6.679 -0.2043 -0.2891 -0.2106
  747TIP3    H123876   0.841   6.686   6.643 -0.2280 -1.4183 -0.2033
  747TIP3    H223877   0.727   6.598   6.688 -0.4998 -0.0464  1.9487
  748TIP3   OH223878   5.319   2.095   7.036 -0.4002  0.3781  0.3122
  748TIP3    H123879   5.374   2.118   6.962  1.5056 -0.7707  1.2805
  748TIP3    H223880   5.309   2.000   7.030  0.1321  0.2012  1.6980
  749TIP3   OH223881   2.212   4.579   8.686 -1.2287  0.3367 -0.2305
  749TIP3    H123882   2.163   4.550   8.763  0.9852 -0.8559  0.8266
  749TIP3    H223883   2.214   4.502   8.629  0.2272  0.0095  0.2142
  750TIP3   OH223884   2.763   1.786   0.453 -0.9489  0.0947 -0.4809
  750TIP3    H123885   2.849   1.748   0.467 -0.4593  0.7514 -1.6277
  750TIP3    H223886   2.733   1.747   0.371 -0.6787  1.7166 -1.3825
  751TIP3   OH223887   0.315   1.695   8.883 -0.3104 -0.9097  0.1354
  751TIP3    H123888   0.399   1.686   8.839 -0.9813 -1.1398 -1.1889
  751TIP3    H223889   0.309   1.787   8.906  1.1129 -1.2411  2.0384
  752TIP3   OH223890   5.202   1.407   9.028  0.2642 -0.0064  0.4345
  752TIP3    H123891   5.134   1.431   8.965 -1.3437 -2.8501  0.8923
  752TIP3    H223892   5.236   1.324   8.996 -0.0207 -1.1258  2.8193
  753TIP3   OH223893   5.865   5.829   9.033 -0.3505  0.3479 -0.4808
  753TIP3    H123894   5.927   5.772   9.078  1.4290  2.2087 -0.4069
  753TIP3    H223895   5.864   5.799   8.942 -1.1239 -1.1042 -0.0217
  754TIP3   OH223896   6.294   4.389   0.714 -0.4499  0.0832 -0.2173
  754TIP3    H123897   6.212   4.351   0.682  0.9385 -2.5181 -1.0515
  754TIP3    H223898   6.279   4.406   0.807 -0.9728 -3.6320  0.5352
  755TIP3   OH223899   4.322   4.511   0.662  0.4296 -0.2599 -0.0951
  755TIP3    H123900   4.361   4.434   0.621  0.9211  1.2971 -2.7869
  755TIP3    H223901   4.392   4.549   0.715  1.4359  0.3490 -1.7771
  756TIP3   OH223902   6.147   2.001   8.666 -0.8127  0.1776  0.9898
  756TIP3    H123903   6.114   1.919   8.629  0.9446 -0.3982  0.6197
  756TIP3    H223904   6.215   2.029   8.605 -1.6640  2.1649  0.8831
  757TIP3   OH223905   2.313   4.754   0.220 -0.3757 -0.2688  0.1548
  757TIP3    H123906   2.360   4.798   0.149 -0.7908 -0.0434  0.0189
  757TIP3    H223907   2.276   4.676   0.180 -2.2442  0.8341 -0.3704
  758TIP3   OH223908   3.318   3.850   0.074  0.2405  0.1487 -0.0784
  758TIP3    H123909   3.322   3.827   0.166  1.1490 -2.3181 -0.6446
  758TIP3    H223910   3.225   3.844   0.051  0.0832  0.2036  0.5352
  759TIP3   OH223911   3.560   3.855   2.089 -0.1844  0.8471  0.8459
  759TIP3    H123912   3.600   3.925   2.141 -1.5645  2.2391  0.1010
  759TIP3    H223913   3.482   3.894   2.051 -1.1007 -1.1597  0.5132
  760TIP3   OH223914   6.044   3.770   7.584  0.5121 -0.5849 -0.0858
  760TIP3    H123915   6.084   3.772   7.497  1.1234  0.3326  0.1996
  760TIP3    H223916   5.978   3.840   7.583 -1.5658 -2.4400 -0.7349
  761TIP3   OH223917   3.644   3.789   0.031  0.3708  0.1349  0.1195
  761TIP3    H123918   3.583   3.835   0.088 -1.2541 -1.6783 -0.0510
  761TIP3    H223919   3.711   3.853   0.011 -1.2457  2.0993  0.6862
  762TIP3   OH223920   0.688   5.624   1.759  0.0438 -0.1602  0.0171
  762TIP3    H123921   0.628   5.550   1.752 -1.0721  0.5581  1.5054
  762TIP3    H223922   0.723   5.618   1.848  1.0919  0.2587 -0.3535
  763TIP3   OH223923   6.035   4.294   6.978  0.2413 -0.1476 -0.1083
  763TIP3    H123924   5.987   4.284   6.896 -0.2109  1.3303 -0.0397
  763TIP3    H223925   6.125   4.313   6.952 -0.0305  0.9266 -0.2710
  764TIP3   OH223926   0.587   3.755   7.870 -0.0801  0.2685 -0.0030
  764TIP3    H123927   0.511   3.807   7.894  0.5044  0.6082  1.1520
  764TIP3    H223928   0.552   3.686   7.814 -0.9601  1.4977 -1.0225
  765TIP3   OH223929   6.601   0.727   7.895 -0.0746 -0.6116 -0.6551
  765TIP3    H123930   6.581   0.759   7.983 -2.8012 -1.2290 -0.9512
  765TIP3    H223931   6.625   0.635   7.907 -1.5168 -1.0108 -0.5801
  766TIP3   OH223932   4.177   3.691   1.641  0.4041 -0.3121 -0.2756
  766TIP3    H123933   4.156   3.784   1.633  0.5522 -0.2402  0.1344
  766TIP3    H223934   4.271   3.689   1.654  0.3070 -0.4754  0.4130
  767TIP3   OH223935   5.748   2.810   8.014 -0.0044  0.0566  0.3885
  767TIP3    H123936   5.666   2.860   8.011  0.7216  1.3987  1.4020
  767TIP3    H223937   5.803   2.859   8.076  1.8975 -0.2726 -0.9551
  768TIP3   OH223938   1.237   4.291   7.871  0.1067  0.0331  0.1434
  768TIP3    H123939   1.290   4.371   7.871  0.5007 -0.1324  2.9811
  768TIP3    H223940   1.301   4.220   7.861 -0.1607 -0.0169 -1.5116
  769TIP3   OH223941   4.994   5.836   1.119 -0.3063  0.2167 -0.1815
  769TIP3    H123942   4.947   5.774   1.174 -0.1316  0.1368 -0.1205
  769TIP3    H223943   4.990   5.798   1.031 -0.6407  0.3765 -0.2383
  770TIP3   OH223944   5.604   1.129   8.057  0.0411  0.1850 -0.0420
  770TIP3    H123945   5.618   1.053   8.113 -1.1022 -1.0827 -1.3834
  770TIP3    H223946   5.599   1.092   7.968 -2.0249  1.6244 -0.5781
  771TIP3   OH223947   3.576   4.210   0.836 -0.0840 -0.3042  0.0915
  771TIP3    H123948   3.564   4.131   0.889 -0.6435  0.5719  1.3291
  771TIP3    H223949   3.595   4.177   0.748  2.4482 -1.8506  1.0940
  772TIP3   OH223950   3.498   1.484   7.521  0.0884 -0.1618 -0.1183
  772TIP3    H123951   3.465   1.401   7.486 -2.2107 -0.2605  2.0163
  772TIP3    H223952   3.496   1.473   7.616  0.8993  1.9360  0.1982
  773TIP3   OH223953   4.525   0.765   2.059  0.0011 -0.0912  0.3234
  773TIP3    H123954   4.615   0.796   2.062 -0.6688  2.2905 -1.0022
  773TIP3    H223955   4.477   0.827   2.114 -1.0351 -0.3505 -0.2594
  774TIP3   OH223956   5.631   6.725   1.291  0.2834 -0.2694 -0.2107
  774TIP3    H123957   5.691   6.746   1.363 -1.6450  1.5049  1.0003
  774TIP3    H223958   5.555   6.685   1.334 -0.9180  0.8395 -1.2058
  775TIP3   OH223959   1.560   1.642   8.063 -0.4817 -0.2715 -0.2569
  775TIP3    H123960   1.610   1.609   8.138 -0.3547 -0.8492 -0.5873
  775TIP3    H223961   1.510   1.566   8.033  0.4000 -0.3751 -1.5165
  776TIP3   OH223962   6.257   3.001   7.886  0.5357  0.3619  0.4987
  776TIP3    H123963   6.284   2.991   7.978  1.1873  0.2967  0.3014
  776TIP3    H223964   6.162   3.011   7.891  0.3126 -1.6734  1.0197
  777TIP3   OH223965   0.287   3.911   6.560  0.1813  0.4106  0.1563
  777TIP3    H123966   0.369   3.916   6.510  0.2228  0.7227  0.2568
  777TIP3    H223967   0.285   3.821   6.594  0.3470  0.3194 -0.0751
  778TIP3   OH223968   3.545   4.783   8.003 -0.1725  0.4633  0.1363
  778TIP3    H123969   3.581   4.784   7.915 -1.7940  3.0800 -0.6215
  778TIP3    H223970   3.459   4.824   7.994 -0.4396  0.7040  2.9072
  779TIP3   OH223971   3.576   4.825   8.279 -0.0150  0.7056 -0.3723
  779TIP3    H123972   3.575   4.826   8.184  2.2485  0.8796 -0.4434
  779TIP3    H223973   3.626   4.747   8.302 -1.8400 -0.2292  0.7592
  780TIP3   OH223974   1.086   2.131   0.353 -0.3519 -0.5100  0.4017
  780TIP3    H123975   1.176   2.108   0.333  0.1171  1.8500 -0.5731
  780TIP3    H223976   1.033   2.075   0.297  0.7263  1.3021 -2.6460
  781TIP3   OH223977   3.208   3.463   0.917  0.3008  0.8579 -0.2696
  781TIP3    H123978   3.180   3.441   0.829  0.5615  1.2960 -0.4670
  781TIP3    H223979   3.148   3.532   0.945 -0.0223  0.4534  0.0442
  782TIP3   OH223980   3.316   2.673   7.071 -0.3083  0.5648  0.4421
  782TIP3    H123981   3.329   2.700   7.162 -0.6647 -0.4302  0.8023
  782TIP3    H223982   3.358   2.587   7.065 -0.0722  0.7266 -0.4068
  783TIP3   OH223983   5.871   3.973   8.025  0.0262 -0.2973 -0.6989
  783TIP3    H123984   5.822   4.051   7.997 -0.7061 -0.8065 -0.8594
  783TIP3    H223985   5.952   4.008   8.062 -1.1701  0.6629  1.1215
  784TIP3   OH223986   3.593   3.067   0.295  0.6239 -0.4105 -0.0729
  784TIP3    H123987   3.660   3.044   0.230  0.2360  1.1665 -1.0669
  784TIP3    H223988   3.640   3.121   0.359  0.7084 -0.8736  0.2623
  785TIP3   OH223989   4.793   2.665   8.109  0.5611  0.2246  0.3603
  785TIP3    H123990   4.738   2.739   8.085  0.5675  0.0176 -0.3197
  785TIP3    H223991   4.824   2.630   8.025 -1.7241 -2.2921  0.4073
  786TIP3   OH223992   1.412   1.185   7.304 -0.2618 -0.0668 -0.3605
  786TIP3    H123993   1.477   1.247   7.269 -1.3846  0.5820 -1.3498
  786TIP3    H223994   1.334   1.237   7.318 -0.3943 -0.7035  1.4929
  787TIP3   OH223995   0.223   4.644   1.434 -0.1776 -0.1479 -0.9189
  787TIP3    H123996   0.211   4.593   1.514  1.1537 -1.0116 -1.2244
  787TIP3    H223997   0.210   4.581   1.363  1.9261 -0.2399 -1.2936
  788TIP3   OH223998   6.270   3.140   8.671 -0.5933 -0.1208 -0.2014
  788TIP3    H123999   6.219   3.067   8.637 -1.5673  0.8187 -0.7978
  788TIP3    H224000   6.347   3.145   8.614 -0.1831 -1.0740  0.2479
  789TIP3   OH224001   0.169   1.125   8.730  0.4109  0.0195  0.2970
  789TIP3    H124002   0.237   1.129   8.797 -0.4073 -0.8531  1.2132
  789TIP3    H224003   0.089   1.103   8.778 -0.1347 -0.9319 -0.9835
  790TIP3   OH224004   0.105   6.607   7.207  0.1529  0.2078 -0.0378
  790TIP3    H124005   0.069   6.537   7.152  3.0376 -0.4259 -1.3345
  790TIP3    H224006   0.115   6.567   7.294 -0.2053 -0.2967 -0.2297
  791TIP3   OH224007   2.015   5.571   7.417  0.0931  0.2538 -0.1739
  791TIP3    H124008   1.940   5.555   7.474  0.9089  1.0914  1.1909
  791TIP3    H224009   2.001   5.659   7.384  0.3388  0.3174 -0.1121
  792TIP3   OH224010   6.046   2.244   6.294 -0.4054  0.1877  0.5681
  792TIP3    H124011   6.040   2.179   6.364  0.2553  0.0704  0.5217
  792TIP3    H224012   6.015   2.198   6.216  1.2879 -0.5070  0.2621
  793TIP3   OH224013   1.174   5.559   0.558 -0.4233  0.1493  0.1247
  793TIP3    H124014   1.130   5.552   0.643 -0.2710 -0.4155  0.1589
  793TIP3    H224015   1.111   5.522   0.496 -0.8310  1.2109 -0.1198
  794TIP3   OH224016   0.276   1.967   8.943 -0.2826  0.0496 -0.1720
  794TIP3    H124017   0.326   2.037   8.900  0.5688 -0.0142  0.6790
  794TIP3    H224018   0.193   2.007   8.966  0.5544  1.0877  1.1562
  795TIP3   OH224019   4.894   6.050   2.269 -0.3342 -0.3503  0.2405
  795TIP3    H124020   4.799   6.059   2.264 -0.3825 -0.9001  0.0884
  795TIP3    H224021   4.909   6.006   2.352 -0.0763  1.4056  1.1837
  796TIP3   OH224022   5.074   4.680   8.677  0.4103  0.4321 -0.1914
  796TIP3    H124023   5.025   4.761   8.668  0.5372  0.4508 -0.7816
  796TIP3    H224024   5.155   4.704   8.723 -0.2782  0.3364  1.1052
  797TIP3   OH224025   2.417   3.572   7.598  0.5395  0.3826 -0.3613
  797TIP3    H124026   2.348   3.559   7.533 -0.0491 -0.6329  0.4386
  797TIP3    H224027   2.460   3.487   7.603 -0.3791 -0.0116  1.6319
  798TIP3   OH224028   1.970   5.443   1.185 -0.5524  0.0597 -0.1800
  798TIP3    H124029   1.990   5.526   1.229 -1.3251  0.2979 -0.2746
  798TIP3    H224030   2.000   5.376   1.246  0.9670  0.3962 -0.5038
  799TIP3   OH224031   4.035   3.865   1.032  0.1286 -0.1553 -0.2516
  799TIP3    H124032   4.043   3.797   1.099  0.5867  2.0864  2.1344
  799TIP3    H224033   4.126   3.885   1.007  0.0327  0.0114 -0.4695
  800TIP3   OH224034   4.994   0.812   8.132  0.3276 -0.1250 -0.1813
  800TIP3    H124035   4.918   0.867   8.115  0.5006 -0.0988 -0.9147
  800TIP3    H224036   4.976   0.772   8.217  0.1619  0.9859  0.3234
  801TIP3   OH224037   5.781   1.107   7.626 -0.1258  0.1383 -0.6330
  801TIP3    H124038   5.752   1.047   7.695 -1.0850 -1.4203 -2.3143
  801TIP3    H224039   5.727   1.185   7.638 -0.7982 -0.3991 -0.0759
  802TIP3   OH224040   3.359   0.682   7.225 -0.1997 -0.2811  0.3959
  802TIP3    H124041   3.397   0.748   7.166  0.3223  0.4777  1.5299
  802TIP3    H224042   3.356   0.726   7.310 -0.7796 -1.4017  0.9701
  803TIP3   OH224043   1.967   3.078   0.492  0.4472 -0.1062  0.0208
  803TIP3    H124044   1.993   3.076   0.585 -0.6817 -2.3850  0.3680
  803TIP3    H224045   1.986   3.167   0.464  1.8645  0.3501  2.1399
  804TIP3   OH224046   5.222   0.279   8.810 -0.3626 -0.9406 -0.4130
  804TIP3    H124047   5.200   0.333   8.734 -0.4694 -1.5301 -0.8125
  804TIP3    H224048   5.146   0.287   8.868 -0.6428 -1.1458 -0.7494
  805TIP3   OH224049   1.165   1.877   1.023 -0.1258  0.1073  0.2183
  805TIP3    H124050   1.224   1.934   0.975 -0.2989 -1.1949 -1.6549
  805TIP3    H224051   1.223   1.818   1.072  0.1339 -0.2435 -0.4895
  806TIP3   OH224052   0.812   4.282   2.022  0.3598 -0.2360  0.0080
  806TIP3    H124053   0.812   4.293   2.117  1.5625  1.0515 -0.1034
  806TIP3    H224054   0.833   4.190   2.008 -1.7750 -0.9421  0.9699
  807TIP3   OH224055   4.781   0.599   0.355  0.7282  0.2722  0.6440
  807TIP3    H124056   4.756   0.692   0.349 -0.6969 -0.1220 -0.2499
  807TIP3    H224057   4.804   0.576   0.265  0.5436 -0.3591  0.7565
  808TIP3   OH224058   2.018   1.346   8.868  0.3908  0.5855 -0.2052
  808TIP3    H124059   1.972   1.340   8.952 -0.0150 -0.4051 -0.4769
  808TIP3    H224060   1.948   1.359   8.803  0.5356 -0.2569 -0.5475
  809TIP3   OH224061   4.373   6.510   8.329 -0.0367 -0.0722  0.4368
  809TIP3    H124062   4.329   6.536   8.410 -2.5741 -0.6570 -0.6345
  809TIP3    H224063   4.361   6.586   8.271 -2.0789 -1.1915 -0.7186
  810TIP3   OH224064   0.923   0.957   0.492  0.2503  0.6233 -0.5408
  810TIP3    H124065   0.923   1.052   0.498 -0.2710  0.5618  0.8277
  810TIP3    H224066   1.011   0.930   0.518 -0.6260  0.6130  2.9689
  811TIP3   OH224067   5.345   0.481   7.821  0.1447  0.3295  0.4237
  811TIP3    H124068   5.406   0.444   7.757 -2.0028 -1.0732 -0.9596
  811TIP3    H224069   5.316   0.407   7.873 -1.9663  0.4795 -0.4136
  812TIP3   OH224070   0.257   5.517   8.021  0.0237  0.7023  0.7201
  812TIP3    H124071   0.315   5.445   8.046  0.7737  0.9170 -0.3754
  812TIP3    H224072   0.176   5.499   8.070 -0.3833 -1.7587 -0.6470
  813TIP3   OH224073   5.589   4.437   8.029 -0.4917 -0.2583  0.3532
  813TIP3    H124074   5.516   4.447   8.089 -1.4827 -1.3023 -0.6368
  813TIP3    H224075   5.557   4.471   7.946 -0.2991 -1.8463 -0.4009
  814TIP3   OH224076   2.826   3.782   6.826  0.2618 -0.5433 -0.3826
  814TIP3    H124077   2.731   3.783   6.810  0.5770 -0.5177 -2.5087
  814TIP3    H224078   2.863   3.834   6.755  1.8639 -0.1586  0.6776
  815TIP3   OH224079   3.389   0.541   0.730 -0.1980 -0.1849  0.0147
  815TIP3    H124080   3.307   0.587   0.748  0.1719 -0.0918  1.6004
  815TIP3    H224081   3.424   0.584   0.651  0.2582  2.5141  1.5436
  816TIP3   OH224082   4.883   6.244   7.024  0.6167  0.0615  0.6260
  816TIP3    H124083   4.910   6.153   7.008 -0.8803 -0.1754 -0.8067
  816TIP3    H224084   4.810   6.258   6.964 -0.1313  1.7714  1.8613
  817TIP3   OH224085   4.683   6.740   1.128  0.6001 -0.0216 -0.1632
  817TIP3    H124086   4.728   6.715   1.047  0.8079 -3.5061  0.8598
  817TIP3    H224087   4.593   6.760   1.100  1.3484  1.7004 -1.5396
  818TIP3   OH224088   1.883   1.376   9.110 -0.2725  0.3469  0.6156
  818TIP3    H124089   1.886   1.284   9.138  1.1975 -0.1395 -0.9185
  818TIP3    H224090   1.947   1.420   9.165  0.5312 -0.0094 -0.0079
  819TIP3   OH224091   3.609   0.678   7.567 -0.3027 -0.2085  0.3917
  819TIP3    H124092   3.630   0.602   7.512  0.0009  0.8867 -1.0858
  819TIP3    H224093   3.547   0.728   7.514 -0.8554  0.3398  1.5400
  820TIP3   OH224094   4.629   2.859   0.879 -0.1086 -0.2499 -0.4730
  820TIP3    H124095   4.684   2.911   0.821  0.9449 -0.0184  0.6994
  820TIP3    H224096   4.548   2.846   0.829 -0.0550  1.7087 -1.1703
  821TIP3   OH224097   5.932   5.074   7.112 -0.6529  0.5350 -0.2088
  821TIP3    H124098   6.009   5.093   7.058 -0.1114  2.0638  1.0222
  821TIP3    H224099   5.858   5.103   7.059 -0.4263 -0.8043 -1.3440
  822TIP3   OH224100   0.330   6.394   7.259 -0.2413  0.7257 -0.2401
  822TIP3    H124101   0.419   6.430   7.261 -0.2736  0.8044 -0.1857
  822TIP3    H224102   0.274   6.470   7.279 -0.2565  0.4379  0.8839
  823TIP3   OH224103   0.023   0.580   8.639 -1.0364 -0.3324 -0.4299
  823TIP3    H124104   0.053   0.668   8.659 -0.8757 -0.5189  0.1728
  823TIP3    H224105  -0.071   0.588   8.625 -1.0228 -0.0721 -0.3650
  824TIP3   OH224106   0.552   3.230   7.583  0.2539  0.3003  0.1320
  824TIP3    H124107   0.507   3.304   7.541  1.1231 -0.1064 -1.6311
  824TIP3    H224108   0.645   3.255   7.582  0.2421  0.7236  2.8608
  825TIP3   OH224109   0.815   4.588   8.053 -0.1624  0.0650 -0.1140
  825TIP3    H124110   0.889   4.534   8.026  0.8639  0.7368  1.2591
  825TIP3    H224111   0.743   4.526   8.066  0.7440 -0.8740  0.5876
  826TIP3   OH224112   2.144   5.600   8.115  0.1046  0.5227 -0.3616
  826TIP3    H124113   2.140   5.523   8.059  2.8069  0.0633 -0.0509
  826TIP3    H224114   2.180   5.568   8.198  2.2421  2.1853 -0.5427
  827TIP3   OH224115   4.297   0.540   8.569 -0.6962  0.0801 -0.1091
  827TIP3    H124116   4.375   0.559   8.621 -0.5780  1.5449 -0.7604
  827TIP3    H224117   4.287   0.617   8.512 -1.3261 -1.0733 -1.6262
  828TIP3   OH224118   6.409   4.023   1.541  0.1838 -0.5891  0.7264
  828TIP3    H124119   6.501   4.018   1.568  0.2602  2.4920  1.4304
  828TIP3    H224120   6.370   4.084   1.604 -1.4637  0.9623 -1.6391
  829TIP3   OH224121   3.385   5.607   7.486 -0.0691  0.0764  0.4530
  829TIP3    H124122   3.474   5.579   7.507  0.1090 -1.8111 -2.3111
  829TIP3    H224123   3.341   5.528   7.455 -1.0334  1.7819 -3.1956
  830TIP3   OH224124   2.037   0.925   8.595 -0.0347 -0.6965 -0.2087
  830TIP3    H124125   2.055   0.986   8.667 -0.7981 -0.1256 -0.4889
  830TIP3    H224126   1.993   0.978   8.529 -1.1286 -1.6551 -0.2721
  831TIP3   OH224127   6.156   1.425   2.113 -0.4102 -0.2276 -0.4398
  831TIP3    H124128   6.115   1.436   2.199 -0.2635 -1.6232 -0.1752
  831TIP3    H224129   6.243   1.389   2.132 -0.3686 -0.5309 -1.1781
  832TIP3   OH224130   1.681   0.262   7.084 -0.7845 -0.6424  0.8785
  832TIP3    H124131   1.686   0.193   7.018  1.3502 -1.3390  1.6761
  832TIP3    H224132   1.717   0.340   7.041 -0.6765 -0.7471  0.7783
  833TIP3   OH224133   2.279   5.572   1.903  0.6751 -0.2041 -0.3271
  833TIP3    H124134   2.240   5.575   1.816 -1.8042 -0.9533  0.6461
  833TIP3    H224135   2.239   5.646   1.949 -0.1138 -1.3525  0.8992
  834TIP3   OH224136   1.005   2.010   8.003 -0.1247 -0.2484  0.5141
  834TIP3    H124137   0.952   1.943   7.960  0.4093 -1.0635  1.1036
  834TIP3    H224138   0.973   2.011   8.094 -3.3446  3.5338 -0.3630
  835TIP3   OH224139   4.677   3.705   8.350 -0.1116  0.0329 -0.1251
  835TIP3    H124140   4.589   3.722   8.315  0.1244  0.4033 -0.5492
  835TIP3    H224141   4.692   3.775   8.412 -1.2432 -1.5980  2.1262
  836TIP3   OH224142   1.065   2.703   6.919  0.1335 -0.1289 -0.3968
  836TIP3    H124143   1.132   2.678   6.855  0.2390 -1.7463  0.2793
  836TIP3    H224144   1.048   2.795   6.902 -0.5053 -0.6762 -3.3608
  837TIP3   OH224145   2.523   3.331   6.834  0.1721 -0.8762 -0.3863
  837TIP3    H124146   2.490   3.418   6.854  1.3917 -0.7874  1.4998
  837TIP3    H224147   2.469   3.300   6.762 -0.9581  1.0218 -0.4020
  838TIP3   OH224148   0.054   2.349   8.052  0.2836 -1.3123 -0.5472
  838TIP3    H124149   0.115   2.421   8.038 -2.2997  1.6458  1.8325
  838TIP3    H224150   0.093   2.298   8.124  0.4143  0.0621  0.4068
  839TIP3   OH224151   3.590   1.138   1.573 -0.3838  0.1784 -0.6130
  839TIP3    H124152   3.642   1.191   1.633  1.9327  0.3978 -2.6198
  839TIP3    H224153   3.542   1.201   1.521 -2.6259 -0.0204  1.0844
  840TIP3   OH224154   3.240   1.856   6.194 -0.2644 -0.4122  0.1665
  840TIP3    H124155   3.243   1.941   6.237 -0.8279  0.8603 -2.1626
  840TIP3    H224156   3.146   1.834   6.190 -0.1023 -1.3938  1.1372
  841TIP3   OH224157   1.402   0.224   8.680  0.1831  0.3815  0.0765
  841TIP3    H124158   1.485   0.187   8.710 -0.6148 -0.6627  1.0657
  841TIP3    H224159   1.335   0.175   8.726 -0.9895  1.7431 -0.0886
  842TIP3   OH224160   0.381   3.906   6.832  0.0460  0.0304  0.5145
  842TIP3    H124161   0.345   3.930   6.747  2.2713 -0.4858 -0.6466
  842TIP3    H224162   0.352   3.977   6.891  0.6099  1.8255 -1.2515
  843TIP3   OH224163   5.410   1.651   8.625 -0.5094  0.7711 -0.0320
  843TIP3    H124164   5.355   1.575   8.641 -1.2046  1.0467 -1.0126
  843TIP3    H224165   5.420   1.654   8.529 -1.3307  2.4692 -0.1113
  844TIP3   OH224166   1.585   3.302   8.571  0.2173  0.3612  0.2472
  844TIP3    H124167   1.605   3.396   8.564 -0.7820  0.6435  0.9445
  844TIP3    H224168   1.519   3.286   8.505  0.7385  0.0311 -0.2018
  845TIP3   OH224169   5.007   2.893   7.597  0.5352  0.2098  0.1242
  845TIP3    H124170   5.014   2.987   7.578  0.4127  0.5514  1.6183
  845TIP3    H224171   5.094   2.870   7.631  0.8035 -0.4104 -0.9355
  846TIP3   OH224172   2.867   0.420   6.733  0.4610 -0.0720 -0.2404
  846TIP3    H124173   2.779   0.409   6.697  0.7692 -1.1460 -0.6965
  846TIP3    H224174   2.906   0.490   6.680  0.6371 -1.0996 -1.5184
  847TIP3   OH224175   3.224   4.666   1.174 -0.1344 -0.5131  0.0373
  847TIP3    H124176   3.286   4.672   1.247  1.8268  1.7050 -1.6780
  847TIP3    H224177   3.215   4.572   1.158  0.5778 -0.9880  2.1039
  848TIP3   OH224178   1.638   1.428   7.850 -0.5572 -0.0680  0.2218
  848TIP3    H124179   1.632   1.438   7.945 -2.5900 -1.3144  0.2905
  848TIP3    H224180   1.549   1.403   7.823  0.6214 -2.6725 -1.6149
  849TIP3   OH224181   4.329   5.084   7.592 -0.1853  0.2416 -0.1720
  849TIP3    H124182   4.246   5.038   7.609  0.0377 -0.0332  0.1894
  849TIP3    H224183   4.356   5.116   7.678  1.1042 -1.3966  0.0858
  850TIP3   OH224184   5.111   5.251   0.405  0.5149  0.3990 -0.0958
  850TIP3    H124185   5.191   5.293   0.436  0.1549  1.0217  0.0278
  850TIP3    H224186   5.092   5.293   0.321  0.7654 -0.3412 -0.5308
  851TIP3   OH224187   6.684   4.108   9.129 -0.5027 -0.2186  0.2458
  851TIP3    H124188   6.620   4.052   9.084 -0.1809  0.3133 -0.8906
  851TIP3    H224189   6.631   4.175   9.171 -0.7438 -0.2221 -0.0493
  852TIP3   OH224190   5.622   0.726   1.769  0.0568  0.0919 -0.1717
  852TIP3    H124191   5.538   0.734   1.722  0.4910  2.3038 -0.6347
  852TIP3    H224192   5.656   0.815   1.773  1.7395 -0.5778  1.2633
  853TIP3   OH224193   6.614   2.259   1.884 -0.1600 -0.1851 -0.0827
  853TIP3    H124194   6.526   2.282   1.913 -0.1737 -0.2631 -0.0608
  853TIP3    H224195   6.631   2.317   1.810  0.0962  0.4022  0.4353
  854TIP3   OH224196   5.208   5.637   2.299  0.7995  0.0218  0.0293
  854TIP3    H124197   5.299   5.622   2.325  0.6100  1.3784  1.6231
  854TIP3    H224198   5.160   5.565   2.340  0.9819  0.0594  0.3124
  855TIP3   OH224199   3.324   5.882   1.637 -0.6675 -0.4004 -0.1149
  855TIP3    H124200   3.409   5.924   1.624 -2.3778  3.1062 -1.2170
  855TIP3    H224201   3.342   5.810   1.698  3.0706  0.0571 -0.4594
  856TIP3   OH224202   0.830   3.427   2.233 -0.0231  0.3497 -0.5043
  856TIP3    H124203   0.891   3.456   2.165  1.1731 -1.1100 -0.1221
  856TIP3    H224204   0.854   3.478   2.311  1.5783 -0.9974 -0.0350
  857TIP3   OH224205   3.824   2.745   7.427  0.2103  0.0664 -0.3790
  857TIP3    H124206   3.869   2.684   7.485  1.1618 -0.8204 -1.9966
  857TIP3    H224207   3.894   2.799   7.390 -0.6672  3.0247  1.8382
  858TIP3   OH224208   3.685   4.033   8.097  0.4879 -0.1561  0.0691
  858TIP3    H124209   3.705   4.096   8.027 -0.4386 -2.1974 -2.1715
  858TIP3    H224210   3.770   4.009   8.133  1.0764  0.3163 -0.9629
  859TIP3   OH224211   5.964   1.233   7.427  0.3644 -0.1017 -0.1079
  859TIP3    H124212   5.900   1.243   7.498  1.0163 -0.4219  0.5386
  859TIP3    H224213   5.984   1.322   7.400  1.1402  0.1044  1.0624
  860TIP3   OH224214   4.196   2.313   8.597 -0.3221 -0.0150 -0.3577
  860TIP3    H124215   4.124   2.323   8.659  0.2980  0.1489  0.3425
  860TIP3    H224216   4.173   2.373   8.525 -0.5196  0.5821  0.1951
  861TIP3   OH224217   3.874   5.422   0.605  0.1755 -0.2637 -0.0087
  861TIP3    H124218   3.808   5.482   0.640 -0.6646 -0.4133 -1.2977
  861TIP3    H224219   3.916   5.471   0.534  0.8656 -0.4886  0.2346
  862TIP3   OH224220   1.858   5.276   1.587  0.4960  0.1306  0.4476
  862TIP3    H124221   1.834   5.187   1.563 -1.1278  0.9468 -1.1798
  862TIP3    H224222   1.899   5.312   1.509 -0.0691  1.2160  0.6268
  863TIP3   OH224223   3.803   2.073   9.122 -0.3439  0.0115  0.1929
  863TIP3    H124224   3.735   2.094   9.186 -1.0375 -1.1378 -0.1517
  863TIP3    H224225   3.875   2.133   9.143 -0.5547 -0.3263  2.0323
  864TIP3   OH224226   0.525   6.105   7.429  0.4284 -0.0153  0.2138
  864TIP3    H124227   0.457   6.078   7.368  3.1186 -2.5102 -2.0065
  864TIP3    H224228   0.556   6.189   7.396 -1.2553  0.9945  1.0721
  865TIP3   OH224229   4.340   4.220   6.672  0.6728 -0.3476  0.1323
  865TIP3    H124230   4.247   4.221   6.697  0.5258 -2.4360 -0.1202
  865TIP3    H224231   4.339   4.199   6.579  1.3689 -2.7111  0.5776
  866TIP3   OH224232   4.083   5.986   7.491 -0.0658 -0.3775  1.0176
  866TIP3    H124233   4.101   5.897   7.461  0.3671 -0.3893  1.2914
  866TIP3    H224234   3.989   5.998   7.478  0.3512  0.2859 -2.0729
  867TIP3   OH224235   4.894   5.283   1.996  0.1754  0.1941 -0.2077
  867TIP3    H124236   4.806   5.255   1.971 -0.7728  1.8617  1.0273
  867TIP3    H224237   4.948   5.268   1.918 -1.2071 -0.7696 -1.0172
  868TIP3   OH224238   4.877   2.763   1.743 -0.1631 -0.3286  0.7663
  868TIP3    H124239   4.790   2.787   1.710 -0.2646 -0.9500  0.5688
  868TIP3    H224240   4.938   2.808   1.685 -0.3476 -0.7785  0.2100
  869TIP3   OH224241   4.967   3.853   1.110 -0.4058 -0.1581 -0.2520
  869TIP3    H124242   4.956   3.948   1.116  1.5093  0.0188  1.7087
  869TIP3    H224243   4.891   3.818   1.157 -1.4596  0.3276 -1.5237
  870TIP3   OH224244   6.451   2.565   0.755  0.3009 -0.7393  0.4885
  870TIP3    H124245   6.368   2.563   0.708  0.1995 -1.6368  0.6869
  870TIP3    H224246   6.498   2.639   0.717 -1.1014  0.6198  1.2548
  871TIP3   OH224247   1.102   4.410   8.908  0.1200 -0.2291  0.0793
  871TIP3    H124248   1.180   4.354   8.896  0.8776  0.5945  1.0155
  871TIP3    H224249   1.030   4.348   8.920  1.0230 -1.0492  1.6406
  872TIP3   OH224250   2.696   5.453   1.880  0.3252 -0.0824 -0.2662
  872TIP3    H124251   2.662   5.463   1.969  0.8324 -1.7106  0.1330
  872TIP3    H224252   2.635   5.503   1.826 -0.0598  0.8449  0.9578
  873TIP3   OH224253   2.131   0.499   1.021 -0.2668 -0.1601  0.0601
  873TIP3    H124254   2.224   0.487   1.042  0.1621  2.2605 -0.2132
  873TIP3    H224255   2.126   0.479   0.927  0.7029  2.7111 -0.7162
  874TIP3   OH224256   1.314   2.948   0.438 -0.1806 -0.4185  0.2495
  874TIP3    H124257   1.265   2.933   0.519 -0.0380  0.7820  0.5746
  874TIP3    H224258   1.313   2.863   0.393 -1.0319 -0.8650  1.0817
  875TIP3   OH224259   3.438   4.103   7.028  0.0144  0.2744  0.1964
  875TIP3    H124260   3.522   4.134   6.992 -0.5679  0.6035 -0.9034
  875TIP3    H224261   3.390   4.183   7.049 -1.3058  0.1932 -2.2089
  876TIP3   OH224262   1.878   4.289   0.574  0.2624  0.3697  0.3715
  876TIP3    H124263   1.886   4.227   0.646 -0.1709  0.5560  0.5798
  876TIP3    H224264   1.954   4.346   0.583 -0.2092  0.8781  1.1444
  877TIP3   OH224265   3.623   4.887   0.339  0.0483 -0.0829 -0.1709
  877TIP3    H124266   3.683   4.813   0.332  1.6717  1.2030 -0.2109
  877TIP3    H224267   3.638   4.922   0.427 -0.4384  0.4389 -0.2891
  878TIP3   OH224268   0.809   3.474   8.263 -0.2948  0.7053 -0.3466
  878TIP3    H124269   0.746   3.545   8.260 -0.5230  0.5640  0.6189
  878TIP3    H224270   0.774   3.408   8.204 -0.7255  0.8877 -0.2971
  879TIP3   OH224271   6.402   2.642   0.082 -0.1850 -0.4767  0.1665
  879TIP3    H124272   6.430   2.555   0.053 -1.4422 -1.4095  1.5669
  879TIP3    H224273   6.330   2.665   0.024  0.0456 -0.4277 -0.1050
  880TIP3   OH224274   2.921   6.259   6.670  0.3870 -0.3635 -0.3143
  880TIP3    H124275   3.011   6.288   6.653 -0.2173  1.6534 -0.4156
  880TIP3    H224276   2.929   6.166   6.688  2.4041 -0.4026 -1.0697
  881TIP3   OH224277   4.131   1.268   2.281 -0.2379 -0.1365 -0.2404
  881TIP3    H124278   4.052   1.315   2.306 -0.4999 -1.4814  1.6666
  881TIP3    H224279   4.112   1.176   2.301  2.0566 -0.4108  1.0487
  882TIP3   OH224280   1.180   5.347   0.882  0.8397 -0.4112  0.1910
  882TIP3    H124281   1.170   5.258   0.848  0.3294 -0.4343  0.3946
  882TIP3    H224282   1.266   5.348   0.922  0.5986 -0.9986  0.7269
  883TIP3   OH224283   0.043   6.292   1.598 -0.1020  0.4567  0.3824
  883TIP3    H124284   0.058   6.382   1.629  1.3008  0.0318  1.0039
  883TIP3    H224285   0.078   6.237   1.667  1.1614 -0.5551 -1.0122
  884TIP3   OH224286   4.559   1.339   8.307  0.0897 -0.7371 -0.0176
  884TIP3    H124287   4.565   1.347   8.212  0.6942 -2.5309 -0.1570
  884TIP3    H224288   4.583   1.426   8.340  0.3736 -0.2379 -1.4807
  885TIP3   OH224289   2.199   0.391   2.685  0.0944 -0.0365 -0.4290
  885TIP3    H124290   2.190   0.322   2.620 -1.7279  0.1254 -0.4081
  885TIP3    H224291   2.291   0.416   2.682  0.1658 -0.4022 -2.5647
  886TIP3   OH224292   0.961   2.360   7.443  0.3815 -0.1340 -0.2133
  886TIP3    H124293   0.888   2.410   7.478  0.4906 -0.0096 -0.1642
  886TIP3    H224294   0.931   2.269   7.448  1.1444 -0.3205  2.0709
  887TIP3   OH224295   3.701   0.568   8.204  0.2676  0.3491  0.5431
  887TIP3    H124296   3.779   0.541   8.156  1.7215  1.3773  2.1985
  887TIP3    H224297   3.683   0.657   8.172 -0.5998 -0.0954 -0.2468
  888TIP3   OH224298   2.992   0.225   0.053 -0.0439  0.2365 -0.6383
  888TIP3    H124299   2.916   0.246   0.107 -1.4453 -0.2202 -2.3223
  888TIP3    H224300   2.981   0.279  -0.026 -0.6992 -2.5101 -2.5697
  889TIP3   OH224301   1.527   2.647   6.361  0.1902 -0.3249  0.4494
  889TIP3    H124302   1.457   2.708   6.336  0.9601  0.0992 -0.7690
  889TIP3    H224303   1.489   2.596   6.432 -1.8877 -1.0694 -1.0865
  890TIP3   OH224304   5.280   5.725   8.274  0.0735 -0.6822 -0.2215
  890TIP3    H124305   5.291   5.701   8.182 -1.5875 -0.9428 -0.3808
  890TIP3    H224306   5.197   5.772   8.277  0.0738 -0.7314  1.1560
  891TIP3   OH224307   4.273   0.967   0.947 -0.2916  0.0987 -0.1315
  891TIP3    H124308   4.256   0.906   0.875  0.9378 -0.0676 -0.2950
  891TIP3    H224309   4.230   1.049   0.920 -0.9479 -0.3408 -0.4436
  892TIP3   OH224310   3.382   4.344   0.975 -0.4667  0.1859  0.6039
  892TIP3    H124311   3.445   4.301   0.916 -1.2596  0.1490 -0.2344
  892TIP3    H224312   3.437   4.392   1.037  0.3927  0.6608 -0.4948
  893TIP3   OH224313   1.615   2.114   7.796 -0.8584  0.3949 -0.4226
  893TIP3    H124314   1.573   2.118   7.882  0.8639  0.7775  0.4640
  893TIP3    H224315   1.677   2.041   7.803 -2.2598 -1.0305 -2.1408
  894TIP3   OH224316   3.679   5.936   0.152 -0.0876  0.6463 -0.3289
  894TIP3    H124317   3.775   5.929   0.157 -0.0194  1.7227  0.1375
  894TIP3    H224318   3.660   6.023   0.186 -1.2044  0.6263 -0.8622
  895TIP3   OH224319   4.591   4.300   7.643  0.1211  0.3432  0.1444
  895TIP3    H124320   4.559   4.273   7.729 -0.6143  0.4060 -0.1026
  895TIP3    H224321   4.614   4.392   7.654  0.0115  0.3561  0.2715
  896TIP3   OH224322   6.214   0.476   0.273  0.1991  0.1090 -0.0222
  896TIP3    H124323   6.220   0.559   0.320 -2.1279 -0.1549  0.8727
  896TIP3    H224324   6.249   0.495   0.186 -2.0659  2.6581 -0.5067
  897TIP3   OH224325   5.483   6.412   2.356  0.4810  0.2325 -0.0879
  897TIP3    H124326   5.517   6.436   2.442  0.3983  1.2500 -0.3183
  897TIP3    H224327   5.553   6.361   2.315  0.3809 -0.5643  0.7066
  898TIP3   OH224328   3.191   1.628   1.524  0.2519  0.1335  0.3859
  898TIP3    H124329   3.189   1.645   1.618 -0.5447 -0.4662  0.4882
  898TIP3    H224330   3.102   1.601   1.503  0.8111 -1.2973 -0.2472
  899TIP3   OH224331   5.619   5.577   8.898 -0.3467 -0.2103  0.2809
  899TIP3    H124332   5.658   5.643   8.841  0.2328 -0.7204  0.0760
  899TIP3    H224333   5.675   5.575   8.975  0.9037 -1.9368 -0.6099
  900TIP3   OH224334   3.321   6.501   0.868  0.1156  0.0207  0.4061
  900TIP3    H124335   3.314   6.447   0.789  3.2026  0.6993 -0.4556
  900TIP3    H224336   3.287   6.445   0.938  0.0945 -1.7582 -0.9577
  901TIP3   OH224337   0.486   1.166   8.772  0.4059  0.1409 -0.1270
  901TIP3    H124338   0.508   1.258   8.761 -1.3431  0.5263 -0.7470
  901TIP3    H224339   0.540   1.120   8.708  0.4264  0.8725 -0.6497
  902TIP3   OH224340   2.098   4.341   1.758  0.0573 -0.4542 -0.2894
  902TIP3    H124341   2.062   4.376   1.677 -0.4606 -1.2120 -0.3941
  902TIP3    H224342   2.169   4.401   1.780  0.6229 -0.5965 -1.6450
  903TIP3   OH224343   2.602   2.749   0.664  0.4305  0.3536  0.1626
  903TIP3    H124344   2.655   2.725   0.588 -1.4241 -0.0719 -1.0394
  903TIP3    H224345   2.656   2.815   0.709  2.4623 -0.8503 -0.3555
  904TIP3   OH224346   3.453   6.010   9.091  0.2084  0.1857  0.0744
  904TIP3    H124347   3.487   5.993   9.003 -0.1525  1.1595 -0.2748
  904TIP3    H224348   3.516   5.967   9.150  1.6698  1.3182 -0.5823
  905TIP3   OH224349   0.866   4.595   0.850  0.0650 -0.2264 -0.2190
  905TIP3    H124350   0.913   4.613   0.769  0.5852 -0.5022  0.0193
  905TIP3    H224351   0.778   4.571   0.821 -0.1994  1.1450 -0.6235
  906TIP3   OH224352   6.237   2.310   0.096  0.0253  0.5787 -0.2637
  906TIP3    H124353   6.236   2.343   0.185  2.2160  0.0861  0.0040
  906TIP3    H224354   6.203   2.220   0.102 -2.2361  1.3748 -0.3803
  907TIP3   OH224355   3.758   4.273   8.286 -0.4590 -0.2253  0.1621
  907TIP3    H124356   3.787   4.361   8.260 -0.8325  0.3944  1.7640
  907TIP3    H224357   3.839   4.228   8.311 -0.5183  0.6460  2.1076
  908TIP3   OH224358   6.298   5.312   8.921  0.6758 -0.2211  0.4533
  908TIP3    H124359   6.366   5.380   8.909  1.3474 -0.6840  1.4596
  908TIP3    H224360   6.234   5.353   8.980 -0.0396  0.2818 -0.6430
  909TIP3   OH224361   5.870   3.594   7.387 -0.2101 -0.2226 -0.5151
  909TIP3    H124362   5.826   3.627   7.309 -1.5037  0.2018  0.3612
  909TIP3    H224363   5.829   3.642   7.459  0.6342 -0.9361  0.4583
  910TIP3   OH224364   5.698   3.754   7.549 -0.1181 -0.6237 -0.1936
  910TIP3    H124365   5.673   3.825   7.490  0.7433 -0.1678 -0.0263
  910TIP3    H224366   5.694   3.792   7.637 -0.9785 -1.1762  0.0162
  911TIP3   OH224367   4.875   2.683   6.843  0.0372 -0.3534 -0.5453
  911TIP3    H124368   4.931   2.723   6.910  0.0388 -1.3826  0.0945
  911TIP3    H224369   4.926   2.688   6.763  0.7873 -0.7004 -0.1013
  912TIP3   OH224370   3.988   3.567   1.494  0.2563 -0.3666 -0.9580
  912TIP3    H124371   4.041   3.622   1.550 -2.3821  2.5701 -1.0754
  912TIP3    H224372   3.993   3.480   1.534  1.9782  0.6319  1.1944
  913TIP3   OH224373   3.724   2.792   1.656  0.0969 -0.0144  0.6688
  913TIP3    H124374   3.695   2.836   1.736 -0.7899 -2.2226  1.6358
  913TIP3    H224375   3.754   2.706   1.686  2.2116  0.0247 -1.0763
  914TIP3   OH224376   3.132   4.282   8.605 -0.7441 -0.2686 -0.3981
  914TIP3    H124377   3.197   4.212   8.603  0.0311  0.3330  1.4203
  914TIP3    H224378   3.106   4.293   8.514  3.8003  1.4158 -1.7410
  915TIP3   OH224379   4.308   4.198   7.792 -0.1693  0.1821  0.1217
  915TIP3    H124380   4.297   4.144   7.714  2.8287 -1.1184  0.4320
  915TIP3    H224381   4.245   4.162   7.855  0.2176 -1.5425 -0.4113
  916TIP3   OH224382   3.845   0.365   0.445  0.2862  0.5098  0.3462
  916TIP3    H124383   3.864   0.295   0.508  0.2135 -0.2287 -0.4370
  916TIP3    H224384   3.792   0.428   0.494 -1.3547 -0.9375  0.5362
  917TIP3   OH224385   2.522   4.440   0.098  0.0334  0.0871 -0.1314
  917TIP3    H124386   2.575   4.483   0.030  1.2660 -0.8552  0.1851
  917TIP3    H224387   2.551   4.349   0.096 -3.0328 -1.0021 -1.3124
  918TIP3   OH224388   0.619   2.010   8.099 -0.5223  0.1976 -0.0966
  918TIP3    H124389   0.659   1.937   8.053  0.5696 -0.2718  1.4839
  918TIP3    H224390   0.662   2.088   8.064  2.9567 -0.3525  2.4115
  919TIP3   OH224391   5.453   1.380   0.099  0.1819  0.6338 -0.3598
  919TIP3    H124392   5.478   1.466   0.133  0.8864  0.8178 -1.2860
  919TIP3    H224393   5.367   1.393   0.060 -0.0911  0.7127  0.2720
  920TIP3   OH224394   3.101   1.399   1.191 -0.0900  0.2097 -0.1600
  920TIP3    H124395   3.133   1.329   1.249 -1.7035 -0.1328  0.3753
  920TIP3    H224396   3.146   1.478   1.221  1.4633 -0.5079 -0.5121
  921TIP3   OH224397   4.731   3.294   8.678  0.6530 -0.1451  0.1068
  921TIP3    H124398   4.651   3.333   8.713 -0.3114  0.7704 -2.7952
  921TIP3    H224399   4.754   3.225   8.740 -2.8193 -0.9465  0.7144
  922TIP3   OH224400   1.236   5.863   7.838  0.1091  0.3627 -0.7320
  922TIP3    H124401   1.267   5.773   7.830 -2.0904 -0.3996 -1.2591
  922TIP3    H224402   1.245   5.883   7.931  0.6176 -0.3801 -0.6075
  923TIP3   OH224403   4.725   4.412   2.232  0.1564 -0.0711  0.0682
  923TIP3    H124404   4.692   4.500   2.215  1.0748  0.7753  2.2931
  923TIP3    H224405   4.669   4.355   2.179 -2.8062  1.5430  1.2083
  924TIP3   OH224406   4.973   4.421   1.415  0.0556 -0.3361  0.1040
  924TIP3    H124407   4.935   4.397   1.331 -1.1148  0.2319  0.4363
  924TIP3    H224408   5.067   4.418   1.401 -0.1067 -1.3943 -0.8857
  925TIP3   OH224409   6.692   5.261   0.212 -0.7801  0.1588 -0.3554
  925TIP3    H124410   6.656   5.308   0.288 -0.0671 -0.1695  0.1955
  925TIP3    H224411   6.624   5.268   0.146 -0.5706  2.2586 -0.4158
  926TIP3   OH224412   4.954   2.310   7.751  0.5157 -0.4743  0.3325
  926TIP3    H124413   4.993   2.229   7.717  2.2276  0.0872  0.8662
  926TIP3    H224414   5.026   2.373   7.752 -0.8960  1.2681 -0.6275
  927TIP3   OH224415   6.299   5.489   0.415 -0.4381  0.5510 -0.4284
  927TIP3    H124416   6.260   5.480   0.502  0.0402 -1.7498 -0.4109
  927TIP3    H224417   6.285   5.405   0.373  1.0220  0.9825 -1.8896
  928TIP3   OH224418   1.841   5.309   2.481  0.3050  0.4115  0.6023
  928TIP3    H124419   1.808   5.365   2.551  0.3313 -1.4413  2.1972
  928TIP3    H224420   1.935   5.327   2.477  0.3740  0.2609  1.3529
  929TIP3   OH224421   2.702   3.778   8.733 -0.1195  0.6722 -0.4821
  929TIP3    H124422   2.777   3.833   8.710 -0.5637  2.0081  1.0792
  929TIP3    H224423   2.670   3.744   8.649  3.1071 -1.2069 -1.1004
  930TIP3   OH224424   0.303   2.663   0.362  0.2801 -0.3728  0.1679
  930TIP3    H124425   0.331   2.737   0.416  0.6729 -0.1485 -0.3397
  930TIP3    H224426   0.229   2.697   0.311 -1.3050 -1.0923  1.8414
  931TIP3   OH224427   1.375   6.528   8.046  0.3736 -0.0639  0.2979
  931TIP3    H124428   1.323   6.601   8.013  1.9487  1.1310  0.3092
  931TIP3    H224429   1.387   6.471   7.970 -0.0174  0.2147  0.0236
  932TIP3   OH224430   5.615   0.378   0.983 -0.0607 -0.4268  0.3089
  932TIP3    H124431   5.650   0.300   0.941  3.8603 -0.4566  3.0913
  932TIP3    H224432   5.634   0.449   0.921 -0.6485 -1.2095 -0.8110
  933TIP3   OH224433   0.737   4.731   9.103 -0.0711 -0.6987  0.5147
  933TIP3    H124434   0.718   4.812   9.150  1.6355  0.1311 -0.1591
  933TIP3    H224435   0.721   4.662   9.167 -1.9430  0.1076  0.9879
  934TIP3   OH224436   0.907   2.459   0.677 -0.1674  0.8739 -0.0115
  934TIP3    H124437   0.902   2.379   0.624 -0.9753  1.0293 -0.1764
  934TIP3    H224438   0.897   2.530   0.615 -1.0641  1.0595  0.3396
  935TIP3   OH224439   5.358   5.140   1.211 -0.5351 -0.2261 -0.3964
  935TIP3    H124440   5.425   5.202   1.240 -1.3034  0.6238 -0.3863
  935TIP3    H224441   5.326   5.100   1.291 -1.0559  0.4421 -0.2659
  936TIP3   OH224442   4.417   2.108   8.836  0.0049  0.4473  0.5397
  936TIP3    H124443   4.411   2.203   8.846 -1.0984  0.2032  2.6967
  936TIP3    H224444   4.410   2.074   8.925 -1.1064 -1.7382 -0.3198
  937TIP3   OH224445   2.836   3.036   8.177  0.4729 -0.3834  0.6619
  937TIP3    H124446   2.751   3.002   8.150  1.3429 -1.6013 -0.7151
  937TIP3    H224447   2.824   3.131   8.178 -0.1639 -0.2962 -2.4741
  938TIP3   OH224448   0.565   3.074   0.435  0.0036  0.2455  0.5029
  938TIP3    H124449   0.611   3.015   0.376  1.6851  3.2189 -1.4581
  938TIP3    H224450   0.608   3.062   0.520  0.2684 -1.2887  0.1827
  939TIP3   OH224451   3.155   2.411   0.257  0.5191  0.5489  0.5621
  939TIP3    H124452   3.139   2.485   0.199 -0.6348  0.1738  0.3809
  939TIP3    H224453   3.181   2.451   0.340 -2.6123  1.3050  1.2800
  940TIP3   OH224454   1.767   3.099   6.398 -0.4817  0.0644  0.0498
  940TIP3    H124455   1.839   3.036   6.399 -1.0789 -0.6232  0.3890
  940TIP3    H224456   1.688   3.046   6.385 -1.0196  0.7067  0.6102
  941TIP3   OH224457   5.944   2.794   7.804  0.5162 -0.8231  0.7406
  941TIP3    H124458   6.013   2.858   7.790 -2.0605  1.7015 -1.9883
  941TIP3    H224459   5.888   2.833   7.872 -0.2435 -0.9235  0.1866
  942TIP3   OH224460   6.102   5.859   1.750  0.2252 -0.4591 -0.6005
  942TIP3    H124461   6.011   5.887   1.747  0.1549 -0.0863  2.5483
  942TIP3    H224462   6.153   5.938   1.730 -0.1016 -0.0377  0.2326
  943TIP3   OH224463   5.166   6.339   2.178  0.6135  0.4330 -0.1190
  943TIP3    H124464   5.246   6.384   2.150  0.3081  0.7237 -0.5211
  943TIP3    H224465   5.097   6.404   2.168  0.5956  0.8528  2.1023
  944TIP3   OH224466   2.827   5.459   0.934  0.5196 -0.2576 -0.1393
  944TIP3    H124467   2.742   5.499   0.913 -1.4716 -4.0870 -0.4078
  944TIP3    H224468   2.878   5.468   0.853 -1.5623 -2.0372 -1.8084
  945TIP3   OH224469   5.953   4.100   0.141 -0.3859  0.3347  0.0380
  945TIP3    H124470   6.001   4.169   0.188  1.1275 -1.0601  0.6036
  945TIP3    H224471   6.018   4.033   0.123 -2.2808 -2.1375  1.7617
  946TIP3   OH224472   4.891   3.980   7.684  0.2766  0.5613  0.0694
  946TIP3    H124473   4.841   4.007   7.607  0.0474  0.7451  0.2784
  946TIP3    H224474   4.910   3.887   7.669  0.8095  0.7539 -0.5157
  947TIP3   OH224475   4.175   3.208   8.958  0.1335  0.0050 -0.6760
  947TIP3    H124476   4.207   3.118   8.945  0.1543  0.2383 -2.3878
  947TIP3    H224477   4.089   3.197   8.998  0.1873 -0.7692 -0.7543
  948TIP3   OH224478   6.664   3.725   9.025  0.4054 -0.2832  0.3624
  948TIP3    H124479   6.641   3.636   8.999  2.3539 -0.4572 -0.9814
  948TIP3    H224480   6.672   3.721   9.120 -0.8007 -1.1935  0.4526
  949TIP3   OH224481   3.584   6.040   1.536  0.5610 -0.3005  0.0496
  949TIP3    H124482   3.550   5.967   1.484  0.4844 -0.1186 -0.1593
  949TIP3    H224483   3.676   6.019   1.551  0.0945 -1.3854  1.6227
  950TIP3   OH224484   5.228   3.514   7.230  0.5695  0.1469 -0.2271
  950TIP3    H124485   5.247   3.510   7.136  2.9168 -2.3633  0.2237
  950TIP3    H224486   5.294   3.573   7.266 -0.6204  1.4821 -0.1562
  951TIP3   OH224487   3.136   2.170   0.714  0.2087 -0.3337  0.1512
  951TIP3    H124488   3.098   2.223   0.785 -0.0942  0.1885 -0.3876
  951TIP3    H224489   3.105   2.081   0.731 -2.9990  0.3635 -1.3595
  952TIP3   OH224490   0.824   5.305   1.920  0.0826 -0.3006  0.7849
  952TIP3    H124491   0.763   5.374   1.948 -0.4268 -0.8556  1.0666
  952TIP3    H224492   0.786   5.224   1.954  0.2094 -0.8265 -0.2790
  953TIP3   OH224493   2.351   1.143   7.841 -0.4182  0.5826 -0.3917
  953TIP3    H124494   2.393   1.193   7.771 -1.3408  0.4716 -1.0425
  953TIP3    H224495   2.333   1.057   7.802  0.0434  0.1353  0.3347
  954TIP3   OH224496   0.803   3.480   7.899  0.0660  0.6025 -0.5168
  954TIP3    H124497   0.729   3.483   7.838 -0.3681  3.5451  0.0264
  954TIP3    H224498   0.874   3.525   7.854  0.6339  0.3057  0.0620
  955TIP3   OH224499   6.272   1.478   0.943 -0.0819 -0.2288  0.3661
  955TIP3    H124500   6.227   1.437   1.017 -0.4209 -1.0069 -0.2647
  955TIP3    H224501   6.365   1.471   0.964 -0.1497 -1.1018  0.3757
  956TIP3   OH224502   2.833   3.915   9.016 -0.4372 -0.5965  0.7463
  956TIP3    H124503   2.777   3.934   8.941  1.7089 -0.2005 -0.8674
  956TIP3    H224504   2.838   3.997   9.064 -0.3877 -0.3152  0.2699
  957TIP3   OH224505   1.188   1.356   7.358  0.1332  0.0534  0.4556
  957TIP3    H124506   1.106   1.400   7.336 -0.2609 -1.4282 -1.2769
  957TIP3    H224507   1.164   1.264   7.367  1.4336 -0.2582  0.9973
  958TIP3   OH224508   1.334   3.495   8.644  0.2472  0.3871 -0.0219
  958TIP3    H124509   1.370   3.412   8.614  1.1189  0.7186  0.0985
  958TIP3    H224510   1.327   3.486   8.739 -0.3332  0.1984 -0.0746
  959TIP3   OH224511   2.560   0.921   7.341 -0.0936  0.3865 -0.4687
  959TIP3    H124512   2.602   0.900   7.424  0.9785  1.0400 -0.8254
  959TIP3    H224513   2.523   0.838   7.311  2.8226 -0.7987 -1.1738
  960TIP3   OH224514   6.149   6.138   1.831  0.4971 -0.0475  0.0740
  960TIP3    H124515   6.191   6.069   1.882 -0.4759 -0.6005  0.1616
  960TIP3    H224516   6.055   6.123   1.844  0.2544  1.5253  0.4139
  961TIP3   OH224517   5.612   3.737   9.068 -0.0272  0.0449 -0.1332
  961TIP3    H124518   5.689   3.685   9.091  0.3109 -0.4156 -2.1368
  961TIP3    H224519   5.636   3.827   9.091  1.4510  0.0267 -1.4205
  962TIP3   OH224520   4.635   4.879   8.148  0.5775 -0.2809  0.2788
  962TIP3    H124521   4.681   4.799   8.123  1.4288  0.0193  0.8124
  962TIP3    H224522   4.630   4.930   8.068 -1.2502 -1.4489 -0.4012
  963TIP3   OH224523   5.766   4.538   0.411  0.6583  0.7605 -0.6765
  963TIP3    H124524   5.750   4.445   0.397  0.8158  0.7754 -0.9800
  963TIP3    H224525   5.754   4.577   0.324  0.1721  1.0861 -0.4731
  964TIP3   OH224526   0.539   0.378   1.245  0.0108 -0.0457  0.1485
  964TIP3    H124527   0.537   0.299   1.299 -1.6835 -1.7716 -2.2278
  964TIP3    H224528   0.458   0.375   1.195 -0.6893  3.8746  0.7130
  965TIP3   OH224529   1.500   6.621   1.285  0.4240 -0.2448  0.0597
  965TIP3    H124530   1.479   6.646   1.194 -3.2576 -0.8328  0.5846
  965TIP3    H224531   1.470   6.695   1.337  0.9547 -0.6219  0.9132
  966TIP3   OH224532   3.031   4.014   7.221 -0.5380  0.0304 -0.0168
  966TIP3    H124533   2.975   3.955   7.272 -0.3083 -0.0193  0.1787
  966TIP3    H224534   3.113   4.017   7.269  0.1056 -0.9531 -0.9788
  967TIP3   OH224535   5.440   3.322   7.755 -0.2884 -0.5673 -0.1997
  967TIP3    H124536   5.510   3.376   7.717 -1.2407  0.5361 -0.4648
  967TIP3    H224537   5.450   3.237   7.713  2.5343 -1.3189  1.7254
  968TIP3   OH224538   0.428   3.395   7.373 -0.2010  0.7223 -0.1142
  968TIP3    H124539   0.435   3.354   7.286 -2.2757  2.1824 -1.0617
  968TIP3    H224540   0.485   3.471   7.368  3.3886 -1.5861  1.5345
  969TIP3   OH224541   5.052   2.016   1.390 -0.0392  0.1429 -0.3284
  969TIP3    H124542   5.141   1.999   1.420 -0.5975  0.5040  1.6124
  969TIP3    H224543   5.063   2.081   1.320  1.2688 -0.4375 -0.6886
  970TIP3   OH224544   3.390   4.858   0.205  0.0031 -0.2771 -0.0785
  970TIP3    H124545   3.484   4.868   0.218  0.0511 -1.0941  0.2091
  970TIP3    H224546   3.352   4.866   0.293 -0.4009  1.9923 -0.3892
  971TIP3   OH224547   2.043   1.600   1.342 -0.2402  0.3004  0.1029
  971TIP3    H124548   1.962   1.581   1.295 -0.8788  0.3256  1.1543
  971TIP3    H224549   2.081   1.514   1.359 -1.5943  0.0517  2.2134
  972TIP3   OH224550   1.766   5.965   8.977 -0.0940 -0.3351  0.9200
  972TIP3    H124551   1.676   5.947   8.950  0.6208 -2.2713 -0.3532
  972TIP3    H224552   1.800   5.881   9.008  0.9463  0.6023  2.4420
  973TIP3   OH224553   2.913   3.169   8.994 -0.0946  0.7533 -0.8087
  973TIP3    H124554   2.834   3.139   8.949  1.1203 -0.7476 -2.0442
  973TIP3    H224555   2.942   3.092   9.044  1.6389  0.6376 -1.9283
  974TIP3   OH224556   1.572   5.905   0.754  0.4830  0.0327  0.3800
  974TIP3    H124557   1.512   5.833   0.738 -0.1584  0.8490 -1.1114
  974TIP3    H224558   1.548   5.939   0.840  0.1635 -0.9179  0.6725
  975TIP3   OH224559   5.912   2.600   2.169 -0.6038 -0.1891 -0.7426
  975TIP3    H124560   5.928   2.585   2.076  1.0854 -0.9988 -0.3568
  975TIP3    H224561   5.947   2.523   2.213 -2.2858 -0.2978  0.5380
  976TIP3   OH224562   2.185   3.218   8.048  0.0433  0.7163 -0.1458
  976TIP3    H124563   2.167   3.282   7.980 -1.0110 -0.0106 -0.5805
  976TIP3    H224564   2.187   3.134   8.001 -0.5539  0.2246  0.6891
  977TIP3   OH224565   4.613   5.839   1.251  0.0175 -0.3101 -0.2802
  977TIP3    H124566   4.541   5.864   1.308 -0.6510  0.6030 -1.4750
  977TIP3    H224567   4.622   5.912   1.190  1.9734 -0.4003 -0.1724
  978TIP3   OH224568   4.892   3.520   1.241 -0.0679  0.1744 -0.2696
  978TIP3    H124569   4.905   3.521   1.147  0.4744  1.5787 -0.1966
  978TIP3    H224570   4.807   3.478   1.253  0.1648 -0.6405 -1.3273
  979TIP3   OH224571   2.902   2.507   7.460 -0.1496  0.1959  0.2254
  979TIP3    H124572   2.929   2.469   7.543 -2.1557  0.6589  1.1572
  979TIP3    H224573   2.946   2.454   7.393 -0.6245 -1.9501  1.5163
  980TIP3   OH224574   1.818   6.495   7.875 -0.0417 -0.0737  0.2969
  980TIP3    H124575   1.811   6.403   7.850 -0.1115 -0.1367  0.5487
  980TIP3    H224576   1.736   6.535   7.846  0.7961  0.3552 -1.6576
  981TIP3   OH224577   4.379   1.169   8.601  0.0704 -0.4495  0.2232
  981TIP3    H124578   4.355   1.097   8.660 -1.0707  0.2534  0.6405
  981TIP3    H224579   4.300   1.221   8.593  0.8575  0.7221 -0.1529
  982TIP3   OH224580   5.658   5.265   8.908 -0.0539  0.0922  0.2809
  982TIP3    H124581   5.669   5.233   8.818  0.8861  0.1476  0.3705
  982TIP3    H224582   5.669   5.359   8.902  2.4523 -0.1047  0.7839
  983TIP3   OH224583   4.580   0.644   0.077 -0.3660  0.2610 -0.0707
  983TIP3    H124584   4.650   0.600   0.028 -0.6657  0.3329 -0.5738
  983TIP3    H224585   4.576   0.732   0.039 -0.9800  0.1386 -0.2997
  984TIP3   OH224586   2.341   0.785   2.465  0.5181  0.3282 -0.1498
  984TIP3    H124587   2.272   0.801   2.529 -1.7388  1.3050 -2.6637
  984TIP3    H224588   2.359   0.871   2.427  0.9816 -0.3807 -1.6155
  985TIP3   OH224589   0.150   4.498   8.514 -0.0916 -0.6789  0.1980
  985TIP3    H124590   0.130   4.409   8.485  0.9068 -0.7825 -0.2256
  985TIP3    H224591   0.065   4.541   8.521 -0.8563 -2.3931  2.9203
  986TIP3   OH224592   2.748   6.110   8.631  0.1402  0.0574  0.2793
  986TIP3    H124593   2.703   6.070   8.556 -1.4072  0.1326  1.1190
  986TIP3    H224594   2.839   6.118   8.603 -0.2008 -0.8467 -1.2060
  987TIP3   OH224595   4.097   1.644   6.706  0.2011  0.1366  0.0651
  987TIP3    H124596   4.085   1.565   6.653 -1.1519 -1.2368  2.2511
  987TIP3    H224597   4.192   1.651   6.718  0.3453 -3.4817  2.8740
  988TIP3   OH224598   0.758   1.375   7.579 -0.1386 -0.4094  0.2814
  988TIP3    H124599   0.766   1.319   7.655  0.0910  1.6831  1.8932
  988TIP3    H224600   0.770   1.316   7.504 -0.3549 -2.5227  1.8253
  989TIP3   OH224601   6.675   1.923   7.814  0.1259  0.4239  0.7501
  989TIP3    H124602   6.754   1.978   7.817  0.2833  0.1501  2.4849
  989TIP3    H224603   6.612   1.968   7.870 -1.1255  0.8264 -0.8967
  990TIP3   OH224604   2.104   4.380   6.858  0.4578  0.6067 -0.0566
  990TIP3    H124605   2.052   4.400   6.780  0.5932  1.7337  0.1200
  990TIP3    H224606   2.162   4.309   6.831  0.1429  0.6334 -0.8237
  991TIP3   OH224607   0.489   5.405   7.262  0.8957 -0.5887 -0.1951
  991TIP3    H124608   0.459   5.314   7.269  0.4238 -0.4557 -0.3837
  991TIP3    H224609   0.547   5.406   7.187  2.1602 -1.0497  0.7523
  992TIP3   OH224610   4.695   3.609   7.319  0.1151 -0.1552  0.6115
  992TIP3    H124611   4.788   3.628   7.308  0.4159 -1.7521  0.2012
  992TIP3    H224612   4.667   3.668   7.390  0.9700  1.6558 -0.4914
  993TIP3   OH224613   4.878   0.273   1.179  0.3909 -0.5272 -0.1102
  993TIP3    H124614   4.839   0.290   1.093  0.4429  0.5831  0.0709
  993TIP3    H224615   4.960   0.227   1.160  0.5478 -0.0297 -0.6738
  994TIP3   OH224616   3.581   4.678   7.722  0.3273  0.3854  0.0464
  994TIP3    H124617   3.501   4.699   7.674  0.1764 -0.3078 -0.0060
  994TIP3    H224618   3.650   4.687   7.656  0.2291  0.4018 -0.0559
  995TIP3   OH224619   6.735   6.458   0.728  0.4448 -0.2752 -0.0328
  995TIP3    H124620   6.759   6.544   0.762  1.4968 -0.4549 -0.2932
  995TIP3    H224621   6.785   6.396   0.781 -0.6367 -0.7706  0.4530
  996TIP3   OH224622   0.349   4.144   0.747  0.1795 -0.1640  0.2726
  996TIP3    H124623   0.326   4.127   0.838  1.2682 -3.6535  0.0716
  996TIP3    H224624   0.285   4.094   0.696  0.0356  1.1327 -0.8769
  997TIP3   OH224625   2.981   5.856   8.495 -0.2513 -0.3697  0.6506
  997TIP3    H124626   2.979   5.830   8.403  0.7371  0.0468  0.5046
  997TIP3    H224627   3.013   5.778   8.541  0.3487 -0.2146  0.5021
  998TIP3   OH224628   3.447   0.865   8.734  0.2160 -0.2295 -0.3849
  998TIP3    H124629   3.423   0.864   8.826  1.9289  0.6213  0.1076
  998TIP3    H224630   3.414   0.948   8.701  0.1282 -0.2650 -0.3859
  999TIP3   OH224631   0.220   4.940   7.025 -0.8896  0.0566  0.7875
  999TIP3    H124632   0.261   4.989   6.954 -0.6141  0.2581  1.0766
  999TIP3    H224633   0.191   4.858   6.986 -0.5794  0.0902  0.4860
 1000TIP3   OH224634   2.527   3.515   8.884  0.1270 -0.0499 -0.6046
 1000TIP3    H124635   2.587   3.441   8.873 -0.3378 -0.6042  0.3846
 1000TIP3    H224636   2.570   3.571   8.949 -0.8436 -0.9726  0.9091
 1001TIP3   OH224637   3.869   0.177   9.070 -0.3610 -0.0741 -0.3739
 1001TIP3    H124638   3.839   0.246   9.010  1.4374  1.8591  0.8070
 1001TIP3    H224639   3.913   0.224   9.141  0.4974 -2.4453  0.7842
 1002TIP3   OH224640   3.768   1.745   0.813  0.3405  0.4825  0.0982
 1002TIP3    H124641   3.772   1.719   0.721 -1.1484 -0.2688  0.2138
 1002TIP3    H224642   3.859   1.748   0.842  0.8081  0.4392 -1.3124
 1003TIP3   OH224643   3.999   5.805   7.115 -0.9435  0.7586 -0.2252
 1003TIP3    H124644   4.036   5.774   7.032  0.0544  0.9504  0.1380
 1003TIP3    H224645   4.021   5.898   7.118 -2.3688  1.1225 -0.4768
 1004TIP3   OH224646   3.246   0.268   8.158  0.0798  0.8842 -0.3333
 1004TIP3    H124647   3.167   0.267   8.104 -0.3616 -0.1115  0.3014
 1004TIP3    H224648   3.316   0.296   8.099 -0.4462  0.1095 -1.3415
 1005TIP3   OH224649   2.155   0.072   8.853  0.4811 -0.1876 -0.9240
 1005TIP3    H124650   2.158  -0.012   8.898 -0.9551 -0.0929 -0.5792
 1005TIP3    H224651   2.179   0.136   8.921 -1.1312 -0.0977 -0.3875
 1006TIP3   OH224652   3.313   6.498   8.779  0.0433 -0.2092 -0.1170
 1006TIP3    H124653   3.269   6.567   8.730  1.6297 -0.4393 -1.9801
 1006TIP3    H224654   3.342   6.540   8.860  0.9041  1.3091 -1.1791
 1007TIP3   OH224655   0.190   5.135   0.176  0.0271 -0.6525  0.2213
 1007TIP3    H124656   0.128   5.076   0.133  0.0689 -0.0567 -0.6946
 1007TIP3    H224657   0.141   5.215   0.192  0.6198 -0.0649 -0.7974
 1008TIP3   OH224658   0.487   0.226   7.651  0.0892  0.4945  0.3490
 1008TIP3    H124659   0.482   0.276   7.569  0.0409  1.1866  0.7638
 1008TIP3    H224660   0.415   0.261   7.704  1.4409  1.6185  1.5278
 1009TIP3   OH224661   1.869   4.608   8.747  0.2809  0.0022 -0.6721
 1009TIP3    H124662   1.897   4.674   8.683  0.4594  0.4520 -0.1382
 1009TIP3    H224663   1.833   4.659   8.819  0.2476 -0.4962 -0.3340
 1010TIP3   OH224664   5.667   2.463   7.787 -0.3797  0.3370 -0.7381
 1010TIP3    H124665   5.614   2.543   7.791 -1.6234 -0.5107  1.2560
 1010TIP3    H224666   5.658   2.424   7.874  3.2256 -0.0960 -0.4219
 1011TIP3   OH224667   3.650   2.129   8.891  0.3415 -0.0829 -0.1904
 1011TIP3    H124668   3.683   2.130   8.981  0.3942 -2.2237 -0.1520
 1011TIP3    H224669   3.556   2.116   8.901  0.1205  1.1477 -0.4453
 1012TIP3   OH224670   1.884   0.031   8.741  0.2368 -0.0512 -0.2170
 1012TIP3    H124671   1.963   0.040   8.793  1.4697 -0.3358 -1.9401
 1012TIP3    H224672   1.871  -0.063   8.732  0.8741 -0.0494 -1.5280
 1013TIP3   OH224673   4.459   2.575   0.822 -0.3469 -0.2783 -0.6728
 1013TIP3    H124674   4.403   2.607   0.752  0.5939 -0.1215 -1.3801
 1013TIP3    H224675   4.548   2.579   0.785  0.1247 -0.5425  0.3968
 1014TIP3   OH224676   5.356   4.489   8.943 -0.1100 -0.5080 -0.0166
 1014TIP3    H124677   5.284   4.478   9.005 -1.8552  0.0523 -1.8549
 1014TIP3    H224678   5.400   4.569   8.973 -2.0714  0.8370 -0.5111
 1015TIP3   OH224679   6.558   4.656   8.860  0.5018 -0.0847 -0.0025
 1015TIP3    H124680   6.635   4.601   8.847  0.2331 -0.3991 -0.3012
 1015TIP3    H224681   6.506   4.609   8.926  0.2197 -0.2555 -0.3400
 1016TIP3   OH224682   2.159   4.095   8.435 -0.6538 -0.1756  0.0796
 1016TIP3    H124683   2.128   4.005   8.445  0.2608 -0.4335  0.6325
 1016TIP3    H224684   2.197   4.097   8.347  0.9295 -0.8318  0.7224
 1017TIP3   OH224685   2.250   0.187   8.628 -0.0874 -0.2812  0.0608
 1017TIP3    H124686   2.284   0.272   8.654  0.7689 -0.6766  0.3037
 1017TIP3    H224687   2.215   0.149   8.709 -0.7966 -0.0207 -0.1185
 1018TIP3   OH224688   1.056   3.407   8.345 -0.0014  0.1882 -0.5615
 1018TIP3    H124689   1.038   3.334   8.404 -1.9154  0.1559 -1.0942
 1018TIP3    H224690   0.976   3.415   8.293  1.5563  0.2791 -3.1125
 1019TIP3   OH224691   4.019   1.225   7.934 -0.4110 -0.7029  0.2073
 1019TIP3    H124692   3.942   1.274   7.904 -1.0773 -0.2979  2.4010
 1019TIP3    H224693   3.995   1.192   8.020  1.9667 -0.3070  1.1151
 1020TIP3   OH224694   0.171   4.564   2.397 -0.1371 -0.1196  0.1578
 1020TIP3    H124695   0.134   4.652   2.389 -3.9706 -1.7307 -2.5581
 1020TIP3    H224696   0.162   4.543   2.490  0.7664  2.2070  0.8462
 1021TIP3   OH224697   6.593   2.929   9.116 -0.3054  0.4309 -0.3461
 1021TIP3    H124698   6.633   2.848   9.148  1.5137  0.0918 -3.1269
 1021TIP3    H224699   6.664   2.974   9.070 -1.7573  2.7078 -0.4999
 1022TIP3   OH224700   5.870   4.042   2.467  0.2215  0.1036  0.3569
 1022TIP3    H124701   5.780   4.056   2.494  0.6016  0.1940  1.6106
 1022TIP3    H224702   5.923   4.085   2.534  1.2053 -0.2244 -0.1877
 1023TIP3   OH224703   4.588   1.772   8.999  0.4125 -0.9781 -0.1729
 1023TIP3    H124704   4.575   1.680   9.020 -0.4103 -0.4538  1.7797
 1023TIP3    H224705   4.677   1.791   9.028 -0.3181 -0.5516  1.9790
 1024TIP3   OH224706   3.059   6.366   8.863 -0.1983 -0.4670  0.1108
 1024TIP3    H124707   3.151   6.390   8.854 -0.7330  1.5095 -0.3543
 1024TIP3    H224708   3.024   6.369   8.774 -0.3571 -3.0340 -0.0040
 1025TIP3   OH224709   1.557   4.428   8.428  0.7807 -0.2020  0.3794
 1025TIP3    H124710   1.494   4.499   8.418 -0.7119 -1.3344  1.4159
 1025TIP3    H224711   1.521   4.356   8.376  2.6834 -0.0310 -1.3355
 1026TIP3   OH224712   0.012   3.450   7.283  0.3487  0.0168  0.8620
 1026TIP3    H124713   0.018   3.382   7.216 -0.7127  0.0609  0.6981
 1026TIP3    H224714   0.045   3.529   7.241 -1.8673  0.4469 -0.2419
 1027TIP3   OH224715   0.926   6.474   0.394 -0.2820 -0.7403  0.3698
 1027TIP3    H124716   0.881   6.461   0.311  2.1860 -0.3369 -1.1334
 1027TIP3    H224717   0.945   6.567   0.397  1.0527 -0.9924  0.5640
 1028TIP3   OH224718   4.835   6.302   1.161 -0.1522  0.3453 -0.3503
 1028TIP3    H124719   4.927   6.315   1.140 -0.1527  0.0320 -0.5414
 1028TIP3    H224720   4.809   6.384   1.204  1.0935 -0.7654  2.8551
 1029TIP3   OH224721   0.901   3.937   8.930  0.9907  0.3428 -0.0394
 1029TIP3    H124722   0.926   3.877   8.859 -1.8221  0.8443 -1.6081
 1029TIP3    H224723   0.864   3.880   8.997 -0.6999  0.1386 -1.0759
 1030TIP3   OH224724   2.840   4.810   0.416 -0.2601 -0.6106  0.6881
 1030TIP3    H124725   2.858   4.885   0.358 -0.3622  0.0650  1.5094
 1030TIP3    H224726   2.809   4.741   0.357 -0.4685  0.0953 -0.0483
 1031TIP3   OH224727   2.300   5.185   8.386  0.1953  0.6630  0.1925
 1031TIP3    H124728   2.378   5.181   8.332 -0.5438  1.0603 -0.9273
 1031TIP3    H224729   2.256   5.266   8.361 -1.4929 -0.4042 -0.5178
 1032TIP3   OH224730   3.125   5.294   0.907  0.6491  0.1152  0.2534
 1032TIP3    H124731   3.073   5.354   0.962 -1.0775 -0.1788 -0.9768
 1032TIP3    H224732   3.185   5.352   0.860 -0.1030  0.7404  0.0440
 1033TIP3   OH224733   0.643   6.271   6.934 -0.5150  0.0322  0.1708
 1033TIP3    H124734   0.642   6.196   6.875  0.2529  1.0506 -1.1777
 1033TIP3    H224735   0.564   6.260   6.988 -0.1827 -1.9677  0.3410
 1034TIP3   OH224736   1.433   4.784   0.901 -0.5050 -0.1411 -0.6196
 1034TIP3    H124737   1.501   4.727   0.936 -1.5855 -0.9940  0.1799
 1034TIP3    H224738   1.418   4.849   0.970 -0.4095  0.1378 -0.8564
 1035TIP3   OH224739   0.415   0.573   0.124  0.6281 -0.0420  0.2562
 1035TIP3    H124740   0.487   0.581   0.062  0.9699  1.3292  0.7695
 1035TIP3    H224741   0.445   0.508   0.188  1.1640  0.0844  0.1351
 1036TIP3   OH224742   4.873   2.454   8.997 -0.1778  0.0577  0.5187
 1036TIP3    H124743   4.960   2.487   8.972 -0.0185  0.3521  1.4354
 1036TIP3    H224744   4.825   2.449   8.914  0.5181  0.4622  0.0769
 1037TIP3   OH224745   1.058   1.052   0.040 -0.2709 -0.2025 -0.0530
 1037TIP3    H124746   1.126   1.029   0.103  0.9893  0.1843 -1.1947
 1037TIP3    H224747   1.102   1.046  -0.045 -1.7344 -0.1149 -0.8518
 1038TIP3   OH224748   4.705   6.418   1.956 -0.3747  0.1150  0.3038
 1038TIP3    H124749   4.739   6.432   1.868 -2.5792 -1.8718 -0.9989
 1038TIP3    H224750   4.742   6.334   1.983 -0.6796  0.1151  0.7296
 1039TIP3   OH224751   5.115   2.412   8.034  0.0197 -0.5293  0.1511
 1039TIP3    H124752   5.145   2.341   7.977  0.0878 -0.4408  0.0768
 1039TIP3    H224753   5.185   2.476   8.031 -0.9319  0.5366 -1.5044
 1040TIP3   OH224754   6.241   2.182   0.718 -0.0444 -0.1357  0.3000
 1040TIP3    H124755   6.247   2.161   0.811  3.3973  3.5868  1.2168
 1040TIP3    H224756   6.324   2.152   0.681 -0.6159  0.0068 -1.1657
 1041TIP3   OH224757   3.002   1.104   1.023  0.5223 -0.1488  0.1870
 1041TIP3    H124758   3.053   1.026   1.042  2.2179  1.2937  1.8510
 1041TIP3    H224759   3.060   1.160   0.973 -0.5887  0.1898 -0.7787
 1042TIP3   OH224760   2.960   3.955   8.210  0.2257 -0.0205  0.2681
 1042TIP3    H124761   2.974   3.885   8.146 -0.4612  0.8762 -0.9069
 1042TIP3    H224762   2.871   3.940   8.242  0.4503 -0.2756  0.7806
 1043TIP3   OH224763   5.953   2.277   0.631  0.2096  0.5014  0.5725
 1043TIP3    H124764   6.044   2.263   0.659  0.9923  0.9421 -1.5313
 1043TIP3    H224765   5.925   2.191   0.599 -0.3584  0.2162  1.7942
 1044TIP3   OH224766   3.517   4.385   1.408 -0.4697  0.1178  0.3004
 1044TIP3    H124767   3.523   4.433   1.325  1.0449  3.6289  2.2212
 1044TIP3    H224768   3.440   4.422   1.451 -0.3960 -0.6094  1.0854
 1045TIP3   OH224769   3.441   3.033   6.877  0.1541  0.4956 -0.7716
 1045TIP3    H124770   3.439   3.062   6.968  1.3392 -0.0146 -0.5660
 1045TIP3    H224771   3.364   3.074   6.837  1.0652  2.8779 -0.2101
 1046TIP3   OH224772   2.570   1.552   7.601  0.1167  0.0340  0.3700
 1046TIP3    H124773   2.572   1.634   7.650  0.5109  0.1819  0.1097
 1046TIP3    H224774   2.512   1.568   7.527 -0.1858 -0.0735  0.5829
 1047TIP3   OH224775   1.659   0.107   0.484  0.1961 -0.6909  0.5880
 1047TIP3    H124776   1.699   0.193   0.468  0.2676 -0.6351  1.0416
 1047TIP3    H224777   1.601   0.121   0.559 -0.7398 -0.7591 -0.1071
 1048TIP3   OH224778   4.070   3.798   7.797 -0.1591  0.0690 -0.6216
 1048TIP3    H124779   4.019   3.801   7.716 -0.7679  0.1201 -0.2376
 1048TIP3    H224780   4.007   3.772   7.865 -0.0277  1.5855  0.1230
 1049TIP3   OH224781   4.601   2.878   2.193 -0.6632 -0.1504  0.4942
 1049TIP3    H124782   4.552   2.945   2.146 -0.2495 -0.3883 -0.3006
 1049TIP3    H224783   4.689   2.915   2.203 -0.4952 -0.4849  0.2539
 1050TIP3   OH224784   6.558   4.361   0.005 -0.0737 -0.3210  0.2854
 1050TIP3    H124785   6.569   4.393   0.094  1.0434  0.4306 -0.1021
 1050TIP3    H224786   6.499   4.424  -0.036  1.6082  0.9736 -0.2842
 1051TIP3   OH224787   3.802   5.887   7.274  0.5859  0.1290  0.2681
 1051TIP3    H124788   3.882   5.873   7.224  0.3305 -1.1271  0.1870
 1051TIP3    H224789   3.734   5.841   7.226  0.1366 -0.2304  1.2153
 1052TIP3   OH224790   2.264   1.998   0.821  0.3718 -0.2359  0.4939
 1052TIP3    H124791   2.226   2.010   0.734 -0.2032  0.1623  0.7918
 1052TIP3    H224792   2.262   1.904   0.836  0.5296 -0.3118  0.0526
 1053TIP3   OH224793   5.579   3.966   0.989 -0.8892 -0.2123 -0.2332
 1053TIP3    H124794   5.568   3.895   0.925  1.8558 -0.7736 -0.2159
 1053TIP3    H224795   5.591   3.922   1.073  0.8177  0.2101 -0.2155
 1054TIP3   OH224796   2.851   6.039   7.753  0.1944 -0.2525 -0.0057
 1054TIP3    H124797   2.860   5.948   7.725 -1.2366 -0.2600 -0.5044
 1054TIP3    H224798   2.772   6.070   7.710 -0.4612  0.6312  1.7255
 1055TIP3   OH224799   5.669   0.783   8.438 -0.1064 -0.2611  0.1169
 1055TIP3    H124800   5.661   0.703   8.490  0.9364 -1.4314 -1.4425
 1055TIP3    H224801   5.762   0.806   8.443 -0.1445  0.0714 -0.5564
 1056TIP3   OH224802   2.137   1.342   7.858  0.2213 -0.1086 -0.6176
 1056TIP3    H124803   2.185   1.308   7.782 -1.7968 -1.6181 -1.3035
 1056TIP3    H224804   2.079   1.409   7.822 -0.8068 -0.8889 -0.4563
 1057TIP3   OH224805   5.825   3.423   1.552  0.0485 -0.5874 -0.5342
 1057TIP3    H124806   5.735   3.448   1.573 -0.6485 -3.0920 -0.0730
 1057TIP3    H224807   5.818   3.331   1.524  2.5519 -1.1900  0.5152
 1058TIP3   OH224808   5.327   2.533   8.347  0.2681 -0.1602  0.3189
 1058TIP3    H124809   5.287   2.576   8.423 -0.0228 -1.1220  0.7205
 1058TIP3    H224810   5.408   2.581   8.332 -1.1402  2.1075 -0.7453
 1059TIP3   OH224811   3.318   0.439   2.464 -0.3486  0.0449 -0.1735
 1059TIP3    H124812   3.321   0.529   2.496  0.4082  0.1547 -0.5554
 1059TIP3    H224813   3.379   0.437   2.390 -1.4471 -0.4119 -1.1030
 1060TIP3   OH224814   4.449   3.076   1.040 -0.1497  0.1960 -0.0515
 1060TIP3    H124815   4.450   3.169   1.016  0.4976 -0.4687 -3.0978
 1060TIP3    H224816   4.356   3.053   1.042 -0.2802  0.6096 -0.8345
 1061TIP3   OH224817   3.604   5.938   8.872 -0.2371 -0.0221 -0.0193
 1061TIP3    H124818   3.623   6.022   8.831  0.8603 -1.0583 -1.7343
 1061TIP3    H224819   3.590   5.878   8.799 -0.8773 -1.3677  1.1659
 1062TIP3   OH224820   3.263   4.908   1.942  0.4740  0.4180 -0.2694
 1062TIP3    H124821   3.276   4.820   1.907 -0.9835  0.3412 -0.6869
 1062TIP3    H224822   3.259   4.896   2.037  0.2350  0.0267 -0.3281
 1063TIP3   OH224823   4.081   2.317   6.810 -0.3687 -0.7066 -0.3799
 1063TIP3    H124824   4.118   2.366   6.737 -0.7080 -0.7765 -0.6060
 1063TIP3    H224825   4.150   2.314   6.876 -0.1047 -0.5315 -0.6486
 1064TIP3   OH224826   0.643   4.718   7.613 -0.0584 -0.0113 -0.1135
 1064TIP3    H124827   0.589   4.639   7.616 -0.4528  0.2638  0.3217
 1064TIP3    H224828   0.590   4.784   7.658  1.0668  0.0127  1.2762
 1065TIP3   OH224829   3.721   0.655   7.154 -0.3132  0.0163 -0.7164
 1065TIP3    H124830   3.691   0.745   7.169 -0.9607 -0.1400 -1.0528
 1065TIP3    H224831   3.715   0.643   7.059  1.1057  0.0740 -0.8328
 1066TIP3   OH224832   3.221   2.224   8.264 -0.1933 -0.5584  0.4694
 1066TIP3    H124833   3.199   2.278   8.340 -0.0401  0.0494  0.0921
 1066TIP3    H224834   3.213   2.134   8.295 -0.8500 -0.3222  1.0016
 1067TIP3   OH224835   2.543   1.956   0.336 -0.6033 -0.3506  0.4413
 1067TIP3    H124836   2.631   1.918   0.343  0.5094  1.7911 -0.9211
 1067TIP3    H224837   2.543   2.026   0.401 -0.3705  1.2440 -1.2144
 1068TIP3   OH224838   1.967   0.459   2.568 -0.5488 -0.2423  0.2440
 1068TIP3    H124839   2.004   0.529   2.514 -1.5898 -0.1788 -0.4024
 1068TIP3    H224840   2.043   0.424   2.616  0.2878  0.1048 -0.7900
 1069TIP3   OH224841   2.040   1.271   6.737 -0.1384 -0.1794  0.1934
 1069TIP3    H124842   2.132   1.245   6.727 -0.4117 -1.1054 -0.0176
 1069TIP3    H224843   1.992   1.212   6.679 -1.0204 -0.7392  1.4512
 1070TIP3   OH224844   2.158   0.176   1.641  0.0326 -0.0081  0.1298
 1070TIP3    H124845   2.208   0.130   1.574  0.1650 -1.4403  1.1708
 1070TIP3    H224846   2.220   0.187   1.713 -0.5945 -0.0189  0.6766
 1071TIP3   OH224847   2.539   6.135   7.620  0.1137  0.2313 -0.5247
 1071TIP3    H124848   2.546   6.173   7.533  0.9166  1.4810  0.0507
 1071TIP3    H224849   2.465   6.179   7.660 -0.5265 -0.6538 -0.7076
 1072TIP3   OH224850   1.441   4.767   1.226 -0.3747 -0.3283 -0.1130
 1072TIP3    H124851   1.365   4.729   1.183 -0.4473  1.4000 -1.6503
 1072TIP3    H224852   1.514   4.710   1.202 -1.0387 -1.6333  0.8392
 1073TIP3   OH224853   1.325   4.335   1.917 -0.2954 -0.5102  0.3605
 1073TIP3    H124854   1.367   4.332   2.002  0.8647  0.1341 -0.1633
 1073TIP3    H224855   1.279   4.419   1.915 -2.1991 -1.4512  1.1535
 1074TIP3   OH224856   2.039   0.736   1.474  0.3575  0.5885  0.2673
 1074TIP3    H124857   1.986   0.703   1.402 -0.3656  0.7845  0.7008
 1074TIP3    H224858   1.984   0.726   1.552  0.1413  2.6718  0.4407
 1075TIP3   OH224859   3.041   2.055   8.999  0.0818 -0.0674 -0.1130
 1075TIP3    H124860   2.958   2.011   9.019  0.5382 -0.9227 -0.0426
 1075TIP3    H224861   3.085   2.063   9.084  0.1859  0.1398 -0.1874
 1076TIP3   OH224862   0.887   1.683   1.510 -0.3029 -0.7202 -0.6042
 1076TIP3    H124863   0.980   1.687   1.489 -0.1744 -0.3677 -0.0027
 1076TIP3    H224864   0.863   1.591   1.495  0.3317 -0.9948 -0.0278
 1077TIP3   OH224865   1.729   0.277   7.356 -0.1378 -0.2114 -0.2619
 1077TIP3    H124866   1.716   0.249   7.266  0.8980 -1.7543  0.0333
 1077TIP3    H224867   1.762   0.367   7.348 -1.9041  0.4017 -1.2992
 1078TIP3   OH224868   2.183   2.987   8.222 -0.0121  0.2705  0.2485
 1078TIP3    H124869   2.159   3.076   8.245  0.2717  0.4773 -0.2575
 1078TIP3    H224870   2.099   2.940   8.218 -0.2513  0.7632 -0.5496
 1079TIP3   OH224871   4.024   6.616   8.890  0.0738  0.0559  0.3048
 1079TIP3    H124872   4.062   6.704   8.886 -1.4689  0.7740  0.6920
 1079TIP3    H224873   3.993   6.599   8.801 -0.9456  0.5323  0.5593
 1080TIP3   OH224874   0.354   1.970   0.943  0.2672 -0.3649 -0.3344
 1080TIP3    H124875   0.294   2.013   0.883  0.0822  0.7067  0.5709
 1080TIP3    H224876   0.408   2.041   0.978  1.1493 -1.1182 -0.1087
 1081TIP3   OH224877   0.000   3.523   7.932  0.4436  0.0045  0.1827
 1081TIP3    H124878  -0.051   3.601   7.954  1.4916  1.1086 -1.1687
 1081TIP3    H224879  -0.035   3.494   7.848  2.1071  0.9051 -0.8726
 1082TIP3   OH224880   5.901   5.802   2.048  0.2270 -0.6333 -0.2255
 1082TIP3    H124881   5.973   5.819   2.109 -0.7758  0.5336  0.6956
 1082TIP3    H224882   5.909   5.872   1.983  0.4996 -1.0938 -0.6977
 1083TIP3   OH224883   2.393   0.890   8.723  0.5158 -0.2327 -0.6065
 1083TIP3    H124884   2.312   0.852   8.689  0.3876 -1.6116  1.0493
 1083TIP3    H224885   2.388   0.983   8.701 -0.5181 -0.6508 -2.3464
 1084TIP3   OH224886   2.925   6.450   6.880 -0.0839  0.2021  0.1390
 1084TIP3    H124887   2.920   6.390   6.806  0.0956  0.3810 -0.0199
 1084TIP3    H224888   2.836   6.451   6.917  0.1438 -0.9333  0.7587
 1085TIP3   OH224889   2.759   0.794   8.276  0.5764  0.0715 -0.3095
 1085TIP3    H124890   2.826   0.841   8.227  0.5236  1.1301  0.5850
 1085TIP3    H224891   2.679   0.845   8.262  0.4437  0.0664  0.3937
 1086TIP3   OH224892   2.917   1.835   0.073  0.2546 -0.5719  0.0437
 1086TIP3    H124893   2.855   1.907   0.087  0.0891 -0.4406 -1.2761
 1086TIP3    H224894   2.984   1.847   0.140 -0.7047 -0.2266  0.9669
 1087TIP3   OH224895   3.573   4.359   0.077  0.0975 -0.2913  0.0308
 1087TIP3    H124896   3.522   4.416   0.136 -2.1889 -1.5899 -0.5629
 1087TIP3    H224897   3.512   4.337   0.007  2.0084 -0.7476 -1.5705
 1088TIP3   OH224898   6.411   4.509   0.484 -0.0706 -0.5743 -0.1533
 1088TIP3    H124899   6.467   4.577   0.522 -0.0431 -0.2222 -0.8021
 1088TIP3    H224900   6.382   4.456   0.558 -0.2996  0.3042  0.3919
 1089TIP3   OH224901   2.840   5.844   6.639 -0.3025  0.2010  0.4437
 1089TIP3    H124902   2.849   5.898   6.717 -2.3931 -0.1955  1.0262
 1089TIP3    H224903   2.925   5.800   6.630 -0.4910 -1.0045  3.4707
 1090TIP3   OH224904   0.327   5.700   1.168  0.0171 -0.4043 -0.0192
 1090TIP3    H124905   0.288   5.646   1.099 -0.2709 -0.9342  0.5448
 1090TIP3    H224906   0.409   5.731   1.131  1.2924 -3.0057  0.3530
 1091TIP3   OH224907   5.846   0.237   8.294  0.2277 -0.0080 -0.2683
 1091TIP3    H124908   5.912   0.262   8.229  0.6337 -0.9828 -0.2440
 1091TIP3    H224909   5.801   0.162   8.256 -0.3871  0.1922  0.0375
 1092TIP3   OH224910   6.736   4.778   6.907 -0.0448 -0.1824  0.1670
 1092TIP3    H124911   6.661   4.837   6.917  0.9128  1.2692 -0.7832
 1092TIP3    H224912   6.755   4.780   6.813  0.2538 -1.7479  0.1671
 1093TIP3   OH224913   3.833   1.477   8.384  0.1267  0.0993  0.3118
 1093TIP3    H124914   3.878   1.394   8.401  0.1526  0.6445  3.5076
 1093TIP3    H224915   3.755   1.452   8.334  1.5731 -1.4113 -1.3401
 1094TIP3   OH224916   4.995   0.550   1.200  0.1548  0.1686 -0.1748
 1094TIP3    H124917   4.922   0.579   1.146 -0.4193  0.0452  0.5192
 1094TIP3    H224918   5.063   0.526   1.137 -0.1365  0.9605 -0.8115
 1095TIP3   OH224919   6.672   1.860   8.157 -0.3852  0.4421  0.1439
 1095TIP3    H124920   6.621   1.939   8.135  0.5861  0.9826 -0.2354
 1095TIP3    H224921   6.750   1.866   8.102  0.0713 -0.3965  0.6798
 1096TIP3   OH224922   2.779   1.872   1.422 -0.2928 -0.4535  0.3251
 1096TIP3    H124923   2.788   1.910   1.509 -0.1635  0.5751 -0.1211
 1096TIP3    H224924   2.868   1.871   1.386 -0.5107  0.3922 -0.2889
 1097TIP3   OH224925   3.529   0.914   1.897 -0.0967 -0.2667  0.4221
 1097TIP3    H124926   3.546   0.900   1.990 -0.6379  2.1734  0.9486
 1097TIP3    H224927   3.592   0.981   1.870 -1.8885  1.2893 -0.1518
 1098TIP3   OH224928   0.252   2.005   7.694  0.0026  0.1429  0.1895
 1098TIP3    H124929   0.296   2.040   7.772  0.5924  1.0832 -0.5377
 1098TIP3    H224930   0.183   2.069   7.674  1.9997  1.8154 -1.9885
 1099TIP3   OH224931   1.009   1.755   0.794  0.2759  0.3807 -0.1379
 1099TIP3    H124932   1.014   1.674   0.744  0.3411 -1.4136  2.5812
 1099TIP3    H224933   1.068   1.815   0.749  2.1212 -1.8535 -0.8849
 1100TIP3   OH224934   6.343   6.107   8.832  0.1628 -0.3617  0.4689
 1100TIP3    H124935   6.270   6.136   8.886  0.8886  0.8045  0.8700
 1100TIP3    H224936   6.362   6.018   8.861 -1.7892 -1.1291 -0.4147
 1101TIP3   OH224937   4.672   3.347   7.383  0.0365  0.5072  0.5533
 1101TIP3    H124938   4.696   3.376   7.471  2.5258 -0.1931  0.1863
 1101TIP3    H224939   4.708   3.415   7.325  0.4438 -0.1792 -0.0077
 1102TIP3   OH224940   4.032   6.710   8.216 -0.9244  0.4465 -0.2738
 1102TIP3    H124941   4.022   6.679   8.126 -1.3930 -0.0135 -0.0649
 1102TIP3    H224942   4.097   6.780   8.210 -1.7546  1.1595 -1.1394
 1103TIP3   OH224943   1.646   0.958   0.184 -0.2091  0.2668 -0.6559
 1103TIP3    H124944   1.595   0.907   0.247 -0.5703  0.2370 -0.9646
 1103TIP3    H224945   1.680   0.893   0.122 -1.8476  0.5116 -1.8741
 1104TIP3   OH224946   6.552   2.783   0.606  0.2958 -0.1181  0.0679
 1104TIP3    H124947   6.544   2.738   0.521  1.4962 -0.5526  0.1732
 1104TIP3    H224948   6.627   2.841   0.596 -0.9590  1.5799  0.0959
 1105TIP3   OH224949   2.269   4.564   7.179 -0.0753 -0.5081 -0.0196
 1105TIP3    H124950   2.215   4.515   7.241  1.9106 -2.0744  0.5876
 1105TIP3    H224951   2.345   4.591   7.231  0.4278  0.3407 -1.1770
 1106TIP3   OH224952   0.546   0.311   7.183  0.1149 -0.5124  0.2601
 1106TIP3    H124953   0.540   0.313   7.087 -2.0493 -0.0704  0.3592
 1106TIP3    H224954   0.573   0.222   7.204 -2.6959 -1.6671 -0.6776
 1107TIP3   OH224955   6.390   4.068   0.015 -0.5800  0.3622 -0.0819
 1107TIP3    H124956   6.334   4.135  -0.024  0.9035 -0.0725 -3.2953
 1107TIP3    H224957   6.429   4.023  -0.060  1.7168 -1.3388  1.9740
 1108TIP3   OH224958   1.601   6.161   6.723  0.5068 -0.3798 -0.4349
 1108TIP3    H124959   1.661   6.200   6.787  1.3163 -1.8758 -0.2417
 1108TIP3    H224960   1.657   6.140   6.648  0.1083 -1.2161 -0.5035
 1109TIP3   OH224961   5.339   5.980   7.323  0.6571 -0.8350 -0.1222
 1109TIP3    H124962   5.321   5.904   7.378 -0.3195  0.6212  1.6804
 1109TIP3    H224963   5.253   6.015   7.303  1.0055 -1.1183 -2.3901
 1110TIP3   OH224964   1.193   1.628   7.828  0.3194 -0.1262  0.1137
 1110TIP3    H124965   1.199   1.579   7.746  1.9692 -0.8065  0.5970
 1110TIP3    H224966   1.177   1.718   7.801  2.6548 -0.0009 -1.1038
 1111TIP3   OH224967   0.381   3.725   8.834 -0.1912  0.3254 -0.5138
 1111TIP3    H124968   0.425   3.678   8.905 -1.5201 -1.7015 -0.9724
 1111TIP3    H224969   0.318   3.782   8.878 -0.2958 -0.1625 -0.0182
 1112TIP3   OH224970   1.365   0.893   8.997  0.0627  0.0361 -0.3942
 1112TIP3    H124971   1.408   0.935   9.072  0.2357  1.2859 -1.1633
 1112TIP3    H224972   1.297   0.838   9.036  0.7504 -0.0534  0.7232
 1113TIP3   OH224973   2.147   6.274   8.526  0.0793  0.0595 -0.2725
 1113TIP3    H124974   2.078   6.340   8.528 -0.0176 -0.0489  0.0473
 1113TIP3    H224975   2.219   6.312   8.576 -0.3551 -0.4796  0.8198
 1114TIP3   OH224976   0.194   5.637   2.231  0.2868 -0.1874 -0.0444
 1114TIP3    H124977   0.136   5.598   2.165  0.6313  1.8882 -1.6527
 1114TIP3    H224978   0.147   5.714   2.261  0.6696 -0.4638  1.3311
 1115TIP3   OH224979   0.022   1.891   1.124  0.4575  0.2548  0.3332
 1115TIP3    H124980  -0.004   1.899   1.032  1.1128 -0.3719  0.0864
 1115TIP3    H224981   0.053   1.979   1.148 -0.8101  0.7326  0.3165
 1116TIP3   OH224982   5.822   5.476   1.471  0.1634  0.4412 -0.4117
 1116TIP3    H124983   5.777   5.414   1.413  0.8449 -0.0384 -0.4396
 1116TIP3    H224984   5.809   5.440   1.559  0.2846  0.4379 -0.3956
 1117TIP3   OH224985   3.437   3.887   1.243  0.2982 -0.1189  0.0038
 1117TIP3    H124986   3.434   3.821   1.312 -0.0857 -0.7798 -0.6239
 1117TIP3    H224987   3.485   3.846   1.172  1.1499  0.7503  0.0625
 1118TIP3   OH224988   4.886   0.686   8.543 -0.0359  0.1832 -0.4134
 1118TIP3    H124989   4.926   0.768   8.515  1.6551 -0.9484 -1.5143
 1118TIP3    H224990   4.931   0.665   8.625  2.6216 -1.6049 -2.1545
 1119TIP3   OH224991   6.400   5.089   1.765  0.4110  0.5833 -0.1499
 1119TIP3    H124992   6.479   5.046   1.799 -0.2039 -0.0868  0.4551
 1119TIP3    H224993   6.413   5.182   1.784  0.1606  0.2597  1.8331
 1120TIP3   OH224994   1.527   3.441   7.900  0.0613  0.4194  0.3382
 1120TIP3    H124995   1.608   3.466   7.944  1.0285 -1.3934 -0.2685
 1120TIP3    H224996   1.556   3.394   7.821 -1.6021  1.8399 -1.2073
 1121TIP3   OH224997   5.028   3.541   0.218  0.4716  0.2386 -0.4590
 1121TIP3    H124998   5.123   3.546   0.228  0.4864 -1.3547  0.5962
 1121TIP3    H224999   4.994   3.565   0.304  0.1701 -3.3282  0.6156
 1122TIP3   OH225000   4.216   0.743   6.519 -0.3884  0.1625 -0.1243
 1122TIP3    H125001   4.146   0.679   6.524 -1.1485  0.9017 -0.9978
 1122TIP3    H225002   4.173   0.824   6.493  0.8171  0.5861 -0.8855
 1123TIP3   OH225003   5.283   3.516   8.538 -0.4665 -0.7078  0.1908
 1123TIP3    H125004   5.371   3.488   8.564 -0.3800 -1.4271 -0.8295
 1123TIP3    H225005   5.284   3.513   8.443 -1.2800  0.3243  0.1293
 1124TIP3   OH225006   3.071   6.053   0.933  0.4176 -0.0687  0.1768
 1124TIP3    H125007   3.147   6.026   0.985  1.0340  2.3798  0.6798
 1124TIP3    H225008   3.108   6.098   0.857 -0.4577  1.9995  0.9070
 1125TIP3   OH225009   5.647   5.296   7.963 -0.5500  0.2479 -0.2035
 1125TIP3    H125010   5.716   5.359   7.944 -0.6624  0.2914 -0.4733
 1125TIP3    H225011   5.673   5.256   8.046 -0.2958  0.3945 -0.2119
 1126TIP3   OH225012   6.638   5.133   8.101 -0.1322  0.7638 -0.8073
 1126TIP3    H125013   6.679   5.092   8.025 -0.7518 -1.6529  0.0717
 1126TIP3    H225014   6.703   5.196   8.132  1.0514  0.1924 -2.0206
 1127TIP3   OH225015   1.807   3.247   7.416 -0.3969  0.2951 -0.4782
 1127TIP3    H125016   1.847   3.218   7.334 -1.1451 -0.0476 -0.7379
 1127TIP3    H225017   1.824   3.341   7.420 -0.4821  0.3432 -1.1078
 1128TIP3   OH225018   0.117   5.105   0.550 -0.0658 -0.1998  0.2761
 1128TIP3    H125019   0.110   5.149   0.466 -1.1657 -0.4975  0.1960
 1128TIP3    H225020   0.191   5.148   0.594  2.1711 -1.6778 -1.7902
 1129TIP3   OH225021   3.427   4.314   1.833 -0.4219  0.4769 -0.1962
 1129TIP3    H125022   3.425   4.387   1.895  2.9670  1.8247 -1.4381
 1129TIP3    H225023   3.393   4.239   1.883  0.5559  1.8326  2.7506
 1130TIP3   OH225024   1.229   2.034   1.590 -0.9912 -0.1329  0.1682
 1130TIP3    H125025   1.209   1.961   1.531 -1.2379 -0.5980  0.8145
 1130TIP3    H225026   1.322   2.052   1.576 -0.5836 -1.4694  0.9614
 1131TIP3   OH225027   4.767   6.205   0.512 -0.0654  0.0324  0.0042
 1131TIP3    H125028   4.761   6.172   0.422  3.0403  0.6780 -0.5679
 1131TIP3    H225029   4.690   6.260   0.522 -1.1299 -0.9870 -1.8190
 1132TIP3   OH225030   0.750   4.327   7.730  0.1946 -0.1666  0.0869
 1132TIP3    H125031   0.835   4.304   7.767  0.8578  1.0979 -0.5916
 1132TIP3    H225032   0.770   4.362   7.644 -1.0855 -0.4674 -0.3560
 1133TIP3   OH225033   5.492   2.199   8.770  0.2467  0.3372  0.0139
 1133TIP3    H125034   5.499   2.214   8.865  1.7003 -2.0691  0.3840
 1133TIP3    H225035   5.570   2.242   8.734  0.7246 -0.3758  0.1787
 1134TIP3   OH225036   3.363   1.147   1.084 -0.3252 -1.0281 -0.1786
 1134TIP3    H125037   3.388   1.234   1.055  1.5200 -0.8556  1.6512
 1134TIP3    H225038   3.333   1.102   1.005 -2.7028  1.6369 -0.9346
 1135TIP3   OH225039   2.426   3.446   0.474 -0.3253  0.3121 -0.0690
 1135TIP3    H125040   2.455   3.399   0.396 -1.1777  2.0609 -1.5358
 1135TIP3    H225041   2.435   3.539   0.451  2.3685  1.0174  3.0707
 1136TIP3   OH225042   3.809   0.983   0.892  0.4581 -0.0183  0.3770
 1136TIP3    H125043   3.836   1.067   0.855  0.8472 -0.8979 -1.4462
 1136TIP3    H225044   3.733   1.004   0.946 -2.7533  1.0020 -3.9702
 1137TIP3   OH225045   1.887   0.241   1.319  0.4177  0.1918  0.1997
 1137TIP3    H125046   1.916   0.165   1.268 -0.0182 -0.3764  0.7893
 1137TIP3    H225047   1.848   0.299   1.253  1.2750  0.1763 -0.3384
 1138TIP3   OH225048   4.961   2.303   0.077 -0.3809 -0.3329  0.4156
 1138TIP3    H125049   5.002   2.376   0.122 -0.0401 -0.5998  0.5375
 1138TIP3    H225050   4.926   2.341  -0.004  0.6065 -0.2230  0.0351
 1139TIP3   OH225051   4.591   2.806   8.957 -0.5994  0.2137 -0.0397
 1139TIP3    H125052   4.644   2.765   8.889 -0.0466  0.8231  0.0078
 1139TIP3    H225053   4.631   2.776   9.039  0.9198  2.1469  0.0111
 1140TIP3   OH225054   3.451   3.417   7.558  0.2385 -0.6552  0.3671
 1140TIP3    H125055   3.360   3.436   7.581  0.5624 -1.6941  2.9173
 1140TIP3    H225056   3.447   3.332   7.513  0.0439 -1.8392  2.4614
 1141TIP3   OH225057   2.167   3.771   7.600 -0.1335  0.6427 -0.0106
 1141TIP3    H125058   2.206   3.854   7.574 -0.6198  0.4868 -1.3022
 1141TIP3    H225059   2.164   3.719   7.519  0.1398 -0.6218  0.7581
 1142TIP3   OH225060   0.265   1.523   1.418 -0.2357 -0.1504  0.4461
 1142TIP3    H125061   0.225   1.447   1.461 -3.6751  0.8208 -0.7140
 1142TIP3    H225062   0.274   1.497   1.326  1.4186 -0.1318  0.5746
 1143TIP3   OH225063   2.236   4.121   0.270  0.2403 -0.2511 -0.8050
 1143TIP3    H125064   2.251   4.048   0.330  1.8711 -0.4658 -1.4252
 1143TIP3    H225065   2.273   4.092   0.187  0.2627  0.9987 -1.2573
 1144TIP3   OH225066   1.880   0.436   7.571 -0.5317  0.3376 -0.3341
 1144TIP3    H125067   1.876   0.346   7.602 -0.6142  0.2754 -0.5179
 1144TIP3    H225068   1.954   0.438   7.511  0.3322  0.7328  0.7117
 1145TIP3   OH225069   3.801   2.736   0.347  0.0016  0.4561  0.3252
 1145TIP3    H125070   3.753   2.776   0.274  0.8219 -1.0362 -1.1252
 1145TIP3    H225071   3.734   2.688   0.396 -0.5684  1.4902  0.5840
 1146TIP3   OH225072   2.047   5.962   0.920 -0.2056  0.4175 -0.2518
 1146TIP3    H125073   2.066   6.052   0.947  0.0731 -0.1642  1.6539
 1146TIP3    H225074   1.965   5.969   0.869  0.3639  1.8439 -1.0357
 1147TIP3   OH225075   1.466   0.401   8.221 -0.2039 -0.0863  0.6104
 1147TIP3    H125076   1.531   0.391   8.151  0.1439 -0.5482  0.9834
 1147TIP3    H225077   1.465   0.315   8.264 -0.3086  0.2283  1.2526
 1148TIP3   OH225078   1.882   3.204   7.156  0.2157 -0.5740  0.9069
 1148TIP3    H125079   1.817   3.194   7.087  0.9822  0.9957 -0.0911
 1148TIP3    H225080   1.940   3.128   7.145  0.1030 -0.5505  0.0700
 1149TIP3   OH225081   0.095   5.201   8.902 -0.2767 -0.2810  0.3838
 1149TIP3    H125082   0.099   5.117   8.949 -1.7557 -1.7432 -1.8660
 1149TIP3    H225083   0.008   5.235   8.922  0.2775  0.7185  1.1962
 1150TIP3   OH225084   3.319   1.460   0.422  0.4621 -1.1381  0.2993
 1150TIP3    H125085   3.404   1.445   0.382  0.7191 -0.2078  0.4855
 1150TIP3    H225086   3.268   1.503   0.354  0.8452  0.2949  0.8949
 1151TIP3   OH225087   4.718   4.035   7.905 -0.4156  0.0808 -0.8163
 1151TIP3    H125088   4.737   4.000   7.818 -0.1333 -0.0666 -0.6959
 1151TIP3    H225089   4.801   4.029   7.952 -1.1768 -2.4976  0.3953
 1152TIP3   OH225090   6.447   2.412   8.674 -0.7837 -0.2089 -0.5535
 1152TIP3    H125091   6.359   2.442   8.700 -1.2050 -1.2913 -0.6979
 1152TIP3    H225092   6.447   2.319   8.694  1.0370  0.1117  1.3728
 1153TIP3   OH225093   3.282   0.336   1.161 -0.4290 -0.6565 -0.0144
 1153TIP3    H125094   3.322   0.289   1.234  2.1920 -0.0128 -0.9054
 1153TIP3    H225095   3.294   0.429   1.183  1.5286 -0.4343 -1.7330
 1154TIP3   OH225096   1.406   6.382   7.801  0.1071  0.3172  0.4289
 1154TIP3    H125097   1.353   6.341   7.732 -0.7540 -1.7224  2.1862
 1154TIP3    H225098   1.493   6.345   7.788  0.2963  1.0126 -0.3747
 1155TIP3   OH225099   0.307   0.748   0.891  0.2440 -0.3708 -0.3373
 1155TIP3    H125100   0.212   0.761   0.882  0.4662  0.7561 -1.2419
 1155TIP3    H225101   0.326   0.674   0.834  0.0835  0.2255 -1.1890
 1156TIP3   OH225102   1.842   0.472   6.959 -0.3088  0.7034 -0.3584
 1156TIP3    H125103   1.897   0.449   7.034 -1.4642 -0.4030  0.1805
 1156TIP3    H225104   1.904   0.482   6.887  0.7500  0.9920  0.5470
 1157TIP3   OH225105   3.948   6.729   1.159  0.2267 -0.0166  0.3493
 1157TIP3    H125106   3.887   6.668   1.200  0.7704 -1.0756 -0.3643
 1157TIP3    H225107   4.032   6.712   1.204  0.5865 -0.4533 -0.4637
 1158TIP3   OH225108   1.924   3.620   1.193 -0.0163  0.3706  0.2507
 1158TIP3    H125109   1.940   3.700   1.242 -1.8281  0.3862  0.8661
 1158TIP3    H225110   1.861   3.645   1.125  0.4379 -0.2433 -0.4132
 1159TIP3   OH225111   6.528   6.556   1.232 -0.0460  0.3208  0.0939
 1159TIP3    H125112   6.623   6.569   1.239  0.1415 -0.9844  0.2165
 1159TIP3    H225113   6.514   6.466   1.263 -0.7777 -1.1594 -4.0006
 1160TIP3   OH225114   6.238   5.701   8.397  0.2398  0.1450 -0.1520
 1160TIP3    H125115   6.293   5.768   8.437  0.8607  0.3126 -1.2356
 1160TIP3    H225116   6.298   5.627   8.383 -0.4135 -0.6221  0.9421
 1161TIP3   OH225117   2.310   2.474   1.117 -0.0487  0.4706  0.6132
 1161TIP3    H125118   2.402   2.450   1.127  0.3539  1.9572  0.6891
 1161TIP3    H225119   2.265   2.391   1.102  0.8451 -0.6981  3.6058
 1162TIP3   OH225120   2.408   4.953   8.854  0.3128  0.3037  0.0634
 1162TIP3    H125121   2.443   5.015   8.789  2.2237 -0.2838  0.4501
 1162TIP3    H225122   2.333   4.997   8.892  0.3234  1.4662 -1.1948
 1163TIP3   OH225123   1.271   6.246   2.007 -0.3319 -0.0413  0.3587
 1163TIP3    H125124   1.282   6.216   2.098 -1.7279  2.2858  1.3713
 1163TIP3    H225125   1.288   6.340   2.011 -0.5434  0.1280 -1.7950
 1164TIP3   OH225126   6.109   4.737   0.806  0.4490  0.0741  0.4512
 1164TIP3    H125127   6.145   4.659   0.848  2.5442 -0.8166 -2.6199
 1164TIP3    H225128   6.023   4.710   0.775 -0.0883 -0.0161  1.9756
 1165TIP3   OH225129   3.731   5.002   2.269 -0.0064 -0.2406 -0.0721
 1165TIP3    H125130   3.656   5.061   2.266  0.1955  0.1080  1.1369
 1165TIP3    H225131   3.802   5.052   2.226 -0.3142 -0.3670 -0.7446
 1166TIP3   OH225132   4.997   5.309   7.354 -0.1234 -0.1822 -0.6190
 1166TIP3    H125133   5.063   5.245   7.326 -0.1487  0.3375 -1.9792
 1166TIP3    H225134   4.960   5.342   7.271 -0.2397  1.4455  0.0449
 1167TIP3   OH225135   3.596   4.567   0.884 -0.0142 -0.2618 -0.4527
 1167TIP3    H125136   3.591   4.487   0.831 -0.0497  0.1573 -1.0829
 1167TIP3    H225137   3.594   4.638   0.821 -0.9718  0.2720  0.1600
 1168TIP3   OH225138   3.238   5.614   1.002  0.3879 -0.4616 -0.1191
 1168TIP3    H125139   3.153   5.574   1.019  0.3203 -1.0133 -1.6377
 1168TIP3    H225140   3.219   5.689   0.945  0.6812  0.9134  1.4966
 1169TIP3   OH225141   2.967   1.975   8.040 -0.5189  0.1214 -0.2067
 1169TIP3    H125142   2.979   2.001   8.132 -0.7673 -1.1068  0.1917
 1169TIP3    H225143   2.907   2.041   8.005 -1.6650 -0.2533  0.9556
 1170TIP3   OH225144   2.847   4.669   7.215 -0.0752  0.2211  0.1761
 1170TIP3    H125145   2.872   4.578   7.231  2.0805  0.2634 -2.3233
 1170TIP3    H225146   2.766   4.664   7.165 -0.3724 -0.2587  0.6931
 1171TIP3   OH225147   1.145   4.131   7.562  0.5669  0.6091  0.1055
 1171TIP3    H125148   1.177   4.043   7.545 -0.1915  0.7072 -2.1066
 1171TIP3    H225149   1.224   4.184   7.575  1.0571 -0.1724  0.3587
 1172TIP3   OH225150   6.549   4.508   7.997 -0.2194  0.1263  0.3592
 1172TIP3    H125151   6.508   4.423   7.981  0.6969 -0.2026 -0.3553
 1172TIP3    H225152   6.625   4.488   8.051  2.0660 -0.0817 -2.6548
 1173TIP3   OH225153   2.826   1.471   1.746  0.1024  0.2282  0.2813
 1173TIP3    H125154   2.911   1.431   1.759 -0.3119 -1.0004 -0.5818
 1173TIP3    H225155   2.816   1.532   1.819  4.4169  5.3849 -2.7193
 1174TIP3   OH225156   2.106   3.797   0.955 -0.2598  0.6485  0.1518
 1174TIP3    H125157   2.014   3.772   0.966 -0.5605  1.8772  0.6173
 1174TIP3    H225158   2.108   3.890   0.979  1.2144  0.4918  0.7233
 1175TIP3   OH225159   5.854   0.840   6.921  0.1540 -0.6399  0.3059
 1175TIP3    H125160   5.841   0.888   6.840 -0.5615 -1.3493 -0.0155
 1175TIP3    H225161   5.942   0.865   6.950  0.2734 -0.0993 -0.4894
 1176TIP3   OH225162   5.329   2.945   7.597 -0.1385  0.2178  0.0439
 1176TIP3    H125163   5.291   3.003   7.663 -2.1909 -1.3355  0.3091
 1176TIP3    H225164   5.423   2.947   7.616 -0.3362  2.0528  1.1248
 1177TIP3   OH225165   1.211   3.235   8.757 -0.3873 -0.6770 -0.5192
 1177TIP3    H125166   1.147   3.165   8.739 -0.3086 -0.4921 -1.6251
 1177TIP3    H225167   1.158   3.310   8.784 -0.4402 -1.2898  1.2111
 1178TIP3   OH225168   1.955   4.460   7.075  0.4457  0.0890 -0.3943
 1178TIP3    H125169   2.026   4.425   7.022  0.1462 -1.5970  0.2503
 1178TIP3    H225170   1.986   4.454   7.165 -0.6266 -1.0228 -0.0733
 1179TIP3   OH225171   2.700   1.761   8.245  0.7356  0.0346  0.5879
 1179TIP3    H125172   2.655   1.713   8.315 -0.3792  0.6190  0.2984
 1179TIP3    H225173   2.740   1.835   8.289 -1.7373  1.6111  0.4034
 1180TIP3   OH225174   6.359   1.219   0.873  0.0865 -0.4418  0.1951
 1180TIP3    H125175   6.326   1.298   0.830  0.5687 -2.1195 -3.7335
 1180TIP3    H225176   6.286   1.189   0.927 -2.8130 -0.7893 -3.5106
 1181TIP3   OH225177   1.394   2.576   7.445  0.1911 -0.3583 -0.1386
 1181TIP3    H125178   1.320   2.526   7.410  1.1221  0.0478 -2.9489
 1181TIP3    H225179   1.443   2.513   7.497 -1.4202 -0.9413  0.7765
 1182TIP3   OH225180   4.582   0.464   2.128 -0.1975  0.2039  0.2086
 1182TIP3    H125181   4.569   0.557   2.148 -0.4417  0.1625  0.2469
 1182TIP3    H225182   4.563   0.457   2.034 -0.9997  0.0498  0.3695
 1183TIP3   OH225183   3.305   5.683   1.817 -0.3891 -0.2885 -0.8456
 1183TIP3    H125184   3.399   5.676   1.833 -0.0309  2.6095 -1.0397
 1183TIP3    H225185   3.270   5.597   1.837  2.4163 -1.7200 -1.5902
 1184TIP3   OH225186   4.044   2.872   7.326 -0.6164 -0.2584  0.3119
 1184TIP3    H125187   4.056   2.931   7.400  0.8033  0.9228 -0.8042
 1184TIP3    H225188   4.126   2.823   7.321 -0.2357  0.4667 -1.1139
 1185TIP3   OH225189   0.066   0.202   1.032 -0.4409  0.3836  0.1387
 1185TIP3    H125190   0.119   0.137   0.986 -1.8642 -1.5967  1.1366
 1185TIP3    H225191  -0.015   0.207   0.982 -0.7299  0.6422  0.6253
 1186TIP3   OH225192   0.254   4.199   0.997  0.1215 -0.2457  0.0590
 1186TIP3    H125193   0.180   4.141   1.011  0.3983 -0.2762  1.6593
 1186TIP3    H225194   0.301   4.198   1.080  0.9569  1.1167 -0.3536
 1187TIP3   OH225195   1.644   3.072   7.721  0.0527 -0.3063  0.2351
 1187TIP3    H125196   1.646   3.030   7.807  2.8583 -0.3209  0.2520
 1187TIP3    H225197   1.736   3.076   7.694 -0.7525 -0.5407 -2.9109
 1188TIP3   OH225198   1.447   4.191   0.233 -0.2534 -0.3158  0.7662
 1188TIP3    H125199   1.443   4.254   0.161  1.0066 -1.7196 -0.5766
 1188TIP3    H225200   1.504   4.232   0.298  0.4338 -0.0099 -0.0252
 1189TIP3   OH225201   2.974   6.173   1.687 -0.0196  0.2798 -0.0695
 1189TIP3    H125202   2.888   6.160   1.726 -0.7205  1.3921 -1.1701
 1189TIP3    H225203   3.036   6.159   1.758 -1.2117  1.6365  1.2896
 1190TIP3   OH225204   3.817   5.337   0.080 -0.2094  0.1240 -0.4419
 1190TIP3    H125205   3.845   5.246   0.088 -1.2561 -0.1713 -0.0021
 1190TIP3    H225206   3.890   5.387   0.116  1.5330 -0.3405 -3.0378
 1191TIP3   OH225207   3.167   4.041   7.897 -0.3986  0.4982  0.4770
 1191TIP3    H125208   3.186   4.084   7.814  1.7234  0.4666  0.8941
 1191TIP3    H225209   3.170   4.112   7.961  0.2810  0.1803  0.8050
 1192TIP3   OH225210   0.521   2.689   1.644  0.6853 -0.6772 -0.0811
 1192TIP3    H125211   0.492   2.696   1.553 -1.1203 -0.1938  0.4864
 1192TIP3    H225212   0.575   2.609   1.646 -0.2225 -1.3595 -1.3198
 1193TIP3   OH225213   1.630   5.003   0.966  0.0536 -0.5198 -0.5839
 1193TIP3    H125214   1.585   4.971   0.887 -0.9943  0.2030 -0.2954
 1193TIP3    H225215   1.690   5.071   0.933  0.5214 -1.0701 -0.8945
 1194TIP3   OH225216   5.197   2.910   1.336 -0.2124 -0.0791  0.2547
 1194TIP3    H125217   5.211   3.005   1.338 -1.7742  0.2031 -0.5540
 1194TIP3    H225218   5.279   2.874   1.303  0.6611  0.9209  1.2747
 1195TIP3   OH225219   3.768   2.384   7.800 -0.5086  0.5868 -0.2401
 1195TIP3    H125220   3.708   2.348   7.734 -0.6111  0.1959  0.0635
 1195TIP3    H225221   3.712   2.398   7.877 -0.7880  2.6821 -0.7563
 1196TIP3   OH225222   0.432   6.479   1.780 -0.2395  0.1646  0.1988
 1196TIP3    H125223   0.359   6.484   1.842  1.1670  2.4650  1.8646
 1196TIP3    H225224   0.503   6.527   1.823  1.3267  0.6030 -2.6091
 1197TIP3   OH225225   4.157   6.062   7.744 -0.2079  0.7311  0.2423
 1197TIP3    H125226   4.087   6.016   7.791  0.7464  1.1844  2.1665
 1197TIP3    H225227   4.152   6.026   7.655 -1.2919 -1.0369  0.9525
 1198TIP3   OH225228   5.078   0.006   7.674 -0.0621  0.3787 -0.3116
 1198TIP3    H125229   5.065   0.076   7.610 -2.1149  2.1831  1.8711
 1198TIP3    H225230   5.026  -0.067   7.641 -1.0888  1.2740 -0.7489
 1199TIP3   OH225231   0.910   6.739   8.069 -0.0193  0.5244  0.1303
 1199TIP3    H125232   0.840   6.775   8.015 -0.5011  2.0886  1.7163
 1199TIP3    H225233   0.866   6.675   8.125 -0.3693  2.0491  1.6497
 1200TIP3   OH225234   2.402   0.453   0.100 -0.0820 -0.1766 -0.1402
 1200TIP3    H125235   2.488   0.486   0.073  1.1555 -2.6470  0.5028
 1200TIP3    H225236   2.343   0.480   0.030  0.6034  3.7445  0.5597
 1201TIP3   OH225237   3.069   4.393   7.574 -0.0189 -0.4777  0.1092
 1201TIP3    H125238   3.114   4.312   7.598 -1.8551 -1.2192  1.3195
 1201TIP3    H225239   2.980   4.381   7.608 -1.1794  0.8641 -2.2128
 1202TIP3   OH225240   4.514   3.463   0.246 -0.0361  0.3020 -0.2073
 1202TIP3    H125241   4.515   3.525   0.173 -0.6280  0.1975 -0.3063
 1202TIP3    H225242   4.494   3.516   0.323  1.1490  0.5090 -0.0151
 1203TIP3   OH225243   5.607   5.818   9.069 -0.2101 -0.1419 -0.6585
 1203TIP3    H125244   5.569   5.875   9.002  1.3869  1.2906 -0.4107
 1203TIP3    H225245   5.697   5.848   9.079  0.7694 -2.7997 -0.5618
 1204TIP3   OH225246   1.036   1.567   1.180 -0.1023  0.5990  0.0100
 1204TIP3    H125247   1.106   1.502   1.175 -1.2599 -0.6429 -1.0351
 1204TIP3    H225248   0.997   1.553   1.267 -1.6481 -1.6279 -0.9393
 1205TIP3   OH225249   5.731   1.872   0.164  0.7238  0.5573 -0.1820
 1205TIP3    H125250   5.781   1.792   0.148 -0.1117 -0.2771  1.1745
 1205TIP3    H225251   5.798   1.939   0.181  1.4168 -0.1014 -0.2414
 1206TIP3   OH225252   0.741   5.745   7.498  0.4347 -0.2668  0.0250
 1206TIP3    H125253   0.833   5.732   7.476  0.8304  0.0368  1.4143
 1206TIP3    H225254   0.718   5.668   7.550  0.5965  0.7523  1.6792
 1207TIP3   OH225255   5.282   3.884   0.748 -0.3791  0.2257  0.0469
 1207TIP3    H125256   5.342   3.831   0.695 -0.0944 -1.4710  1.9144
 1207TIP3    H225257   5.333   3.961   0.771  0.5315 -0.4084  0.2465
 1208TIP3   OH225258   2.796   3.559   0.884 -0.1288  0.4460  0.5053
 1208TIP3    H125259   2.863   3.588   0.822  0.2025 -0.0425  0.6368
 1208TIP3    H225260   2.761   3.479   0.845  0.3561 -0.0836  1.1416
 1209TIP3   OH225261   5.331   4.501   8.133  0.3694  0.2503  0.0985
 1209TIP3    H125262   5.252   4.527   8.085  1.0323  0.9272 -0.6622
 1209TIP3    H225263   5.339   4.564   8.204  0.4380  0.4421 -0.0755
 1210TIP3   OH225264   3.057   5.696   2.205  0.5478 -0.3534  0.4335
 1210TIP3    H125265   2.999   5.689   2.281  1.5886 -2.5082  1.1149
 1210TIP3    H225266   3.009   5.652   2.135 -0.8527  2.5055 -0.5499
 1211TIP3   OH225267   0.068   2.210   7.803 -0.1688 -0.7882  0.2583
 1211TIP3    H125268   0.130   2.282   7.792  0.3373 -1.2731 -0.1123
 1211TIP3    H225269   0.062   2.198   7.898 -0.9628  0.3354  0.3743
 1212TIP3   OH225270   0.905   2.931   0.381 -0.1237 -0.0355 -0.2603
 1212TIP3    H125271   0.827   2.877   0.380 -2.6314  3.2547  0.2736
 1212TIP3    H225272   0.942   2.921   0.293 -0.0306 -2.9668  0.0122
 1213TIP3   OH225273   3.742   5.561   7.300  0.4453  0.1786  0.6835
 1213TIP3    H125274   3.683   5.614   7.247  0.5891  0.1433  0.4861
 1213TIP3    H225275   3.750   5.609   7.382 -1.0926 -0.5926  1.3220
 1214TIP3   OH225276   3.071   6.686   0.624 -0.6046 -0.1277 -0.2445
 1214TIP3    H125277   3.102   6.739   0.697 -0.6625 -0.2609 -0.1239
 1214TIP3    H225278   3.117   6.721   0.548  1.0208 -1.2867  0.1398
 1215TIP3   OH225279   3.257   0.104   2.476  0.1026  0.6262  0.5566
 1215TIP3    H125280   3.263   0.013   2.508  0.0051  0.1166 -0.8330
 1215TIP3    H225281   3.167   0.113   2.446 -0.4770  1.8359  2.4787
 1216TIP3   OH225282   2.572   2.964   0.018 -0.5476 -0.4647  0.0299
 1216TIP3    H125283   2.613   3.046   0.044 -0.7927 -0.1787 -0.4767
 1216TIP3    H225284   2.558   2.917   0.101 -1.0172  0.2862  0.3813
 1217TIP3   OH225285   4.561   2.139   0.781 -0.0732 -0.3262 -0.7848
 1217TIP3    H125286   4.498   2.108   0.715  0.1726  1.3004 -1.8602
 1217TIP3    H225287   4.646   2.109   0.750 -0.0181 -0.0444 -0.9121
 1218TIP3   OH225288   1.559   1.002   1.343  0.2855  0.0223  0.0486
 1218TIP3    H125289   1.518   1.084   1.317  1.0292  0.1176 -0.8908
 1218TIP3    H225290   1.617   1.026   1.415 -0.3174  0.1183  0.5070
 1219TIP3   OH225291   6.722   5.430   8.392  0.5959 -0.3776  0.4864
 1219TIP3    H125292   6.757   5.504   8.343  0.9507 -0.7861  0.1151
 1219TIP3    H225293   6.793   5.367   8.394  0.8270 -0.1123  2.1126
 1220TIP3   OH225294   3.436   1.942   7.467  0.5193 -0.6350  0.1878
 1220TIP3    H125295   3.513   1.903   7.510  0.1053 -1.4416  0.2184
 1220TIP3    H225296   3.397   1.870   7.418  0.3374  0.0079 -0.6316
 1221TIP3   OH225297   1.047   1.301   8.746 -0.3969 -0.9868  0.1410
 1221TIP3    H125298   1.102   1.325   8.820  1.4262 -0.8868 -1.1713
 1221TIP3    H225299   0.993   1.378   8.730  1.7566  0.4142 -0.8238
 1222TIP3   OH225300   6.314   2.408   0.352 -0.0227  0.0796  0.2176
 1222TIP3    H125301   6.260   2.487   0.359  1.8294  1.3925  0.3617
 1222TIP3    H225302   6.386   2.422   0.413  2.0780 -0.2442 -2.0101
 1223TIP3   OH225303   3.266   3.075   1.094  0.5121  0.2461  0.5871
 1223TIP3    H125304   3.245   3.062   1.186  1.7933 -0.1806  0.8507
 1223TIP3    H225305   3.187   3.049   1.047  0.1134 -0.3139  1.5265
 1224TIP3   OH225306   6.338   5.585   1.164 -0.0967 -0.1553 -0.3756
 1224TIP3    H125307   6.382   5.505   1.191 -1.5553 -1.0644 -0.5922
 1224TIP3    H225308   6.373   5.653   1.223  1.7556 -0.7640 -0.7359
 1225TIP3   OH225309   5.088   5.534   7.548  0.2474 -0.7581 -1.0372
 1225TIP3    H125310   5.068   5.451   7.505 -1.5649 -0.6334 -0.4875
 1225TIP3    H225311   5.117   5.510   7.636  0.4791 -0.8383 -1.1343
 1226TIP3   OH225312   5.631   2.596   2.140 -0.4093  0.0355 -0.1320
 1226TIP3    H125313   5.591   2.636   2.217 -0.9486  0.1796 -0.4818
 1226TIP3    H225314   5.724   2.589   2.162  0.7365  5.6802 -1.7132
 1227TIP3   OH225315   2.593   2.399   0.440  0.0654 -0.0626  0.3764
 1227TIP3    H125316   2.540   2.478   0.433 -0.1088 -0.1571  0.6394
 1227TIP3    H225317   2.615   2.377   0.349 -2.5797 -1.5555 -0.0017
 1228TIP3   OH225318   5.760   2.511   1.311 -0.3335  0.1384 -0.1006
 1228TIP3    H125319   5.716   2.510   1.226  1.2214 -0.1242 -0.9450
 1228TIP3    H225320   5.786   2.602   1.324  1.3305 -0.1687 -0.9813
 1229TIP3   OH225321   5.161   3.811   0.225 -0.3582 -0.5192  0.4114
 1229TIP3    H125322   5.207   3.876   0.278  1.2129 -0.7350 -0.6295
 1229TIP3    H225323   5.227   3.745   0.205 -0.5028  0.1300 -2.7654
 1230TIP3   OH225324   4.019   2.552   1.578  0.2662 -0.2728 -0.4051
 1230TIP3    H125325   3.932   2.527   1.548 -0.7140  2.6698 -0.2899
 1230TIP3    H225326   4.073   2.474   1.563 -2.4313 -2.3498 -0.0505
 1231TIP3   OH225327   3.897   3.683   7.992 -0.0396  0.0677 -0.2228
 1231TIP3    H125328   3.845   3.636   8.057 -0.5716 -0.6884 -1.1522
 1231TIP3    H225329   3.973   3.716   8.040 -0.4542 -0.3989  0.7811
 1232TIP3   OH225330   5.046   0.363   0.754  0.0159  0.5861 -0.2187
 1232TIP3    H125331   5.135   0.355   0.721  0.3124  0.2623  0.6235
 1232TIP3    H225332   4.998   0.408   0.685  0.5326 -0.3337 -1.2063
 1233TIP3   OH225333   1.978   3.989   0.111 -0.7376  0.0269 -1.1103
 1233TIP3    H125334   1.911   3.984   0.043 -1.6998 -1.5707 -0.1092
 1233TIP3    H225335   1.969   3.907   0.160  2.4137 -0.6023 -1.3454
 1234TIP3   OH225336   0.917   1.895   6.832  0.0302  0.0887  0.4145
 1234TIP3    H125337   0.887   1.925   6.747  0.3954  1.3408  0.6942
 1234TIP3    H225338   0.837   1.878   6.882 -0.2022  0.4701  0.1796
 1235TIP3   OH225339   2.392   0.433   8.454  0.2268  0.9751  0.5907
 1235TIP3    H125340   2.372   0.491   8.528  1.7609  0.5929  1.3562
 1235TIP3    H225341   2.462   0.478   8.407 -0.4823  1.0366 -0.4423
 1236TIP3   OH225342   2.065   5.811   8.453 -0.1521 -0.5562  0.2613
 1236TIP3    H125343   2.077   5.775   8.541  2.2988  0.4821  0.4248
 1236TIP3    H225344   2.141   5.866   8.439 -0.8746 -0.0703 -2.2445
 1237TIP3   OH225345   5.891   0.128   1.365 -0.0629 -0.2707  0.0207
 1237TIP3    H125346   5.847   0.212   1.369  0.0851 -0.1521 -0.7236
 1237TIP3    H225347   5.983   0.147   1.383 -0.1594 -0.3967  0.6864
 1238TIP3   OH225348   1.378   1.082   6.954  0.4730  0.0155  0.5019
 1238TIP3    H125349   1.427   1.022   6.897 -2.2852 -2.6679  0.7102
 1238TIP3    H225350   1.294   1.094   6.910 -0.3289  0.9195  2.1794
 1239TIP3   OH225351   1.033   0.465   9.119 -0.5185  0.2784 -0.4196
 1239TIP3    H125352   0.966   0.490   9.055 -0.7388 -0.0347 -0.3116
 1239TIP3    H225353   1.096   0.413   9.069  0.4581  1.8050 -0.8738
 1240TIP3   OH225354   1.146   5.938   0.859 -0.2656  0.0698  0.1169
 1240TIP3    H125355   1.186   5.891   0.931  0.4878  1.1500  0.4306
 1240TIP3    H225356   1.189   5.904   0.781 -0.8869 -0.9018  0.1799
 1241TIP3   OH225357   5.324   0.786   8.625 -0.1678  0.2679  0.0621
 1241TIP3    H125358   5.255   0.834   8.579 -0.0101  0.2788 -0.1623
 1241TIP3    H225359   5.342   0.710   8.570 -0.8207 -0.3614  0.7012
 1242TIP3   OH225360   3.405   0.282   0.261 -0.4069 -0.0166 -0.0965
 1242TIP3    H125361   3.337   0.309   0.199 -0.3505  0.6741  0.1270
 1242TIP3    H225362   3.444   0.365   0.291 -1.4150 -0.2196  1.9608
 1243TIP3   OH225363   1.164   0.960   7.882  0.7243 -0.1259 -0.5266
 1243TIP3    H125364   1.123   0.891   7.934  0.6710 -0.3867 -0.9148
 1243TIP3    H225365   1.126   0.951   7.795 -0.0533  1.0386 -0.3342
 1244TIP3   OH225366   6.489   6.398   1.472 -0.6798 -0.5458  0.6302
 1244TIP3    H125367   6.497   6.476   1.526 -2.6626 -0.5847  1.0481
 1244TIP3    H225368   6.449   6.333   1.529  0.8307 -1.8636  0.2495
 1245TIP3   OH225369   1.216   4.862   0.673 -0.0386  0.2575  0.4007
 1245TIP3    H125370   1.220   4.772   0.705 -2.6794  0.4624  1.5519
 1245TIP3    H225371   1.230   4.916   0.751  0.0376  0.8231  0.0002
 1246TIP3   OH225372   4.465   2.891   7.135  0.5051  0.1558 -0.2378
 1246TIP3    H125373   4.450   2.969   7.082  3.9234 -0.2782 -2.1208
 1246TIP3    H225374   4.457   2.818   7.074 -0.0258 -0.7710  0.8978
 1247TIP3   OH225375   3.292   2.130   1.834  0.4263 -0.2391  0.2658
 1247TIP3    H125376   3.309   2.104   1.744 -2.1863 -1.2734 -0.0102
 1247TIP3    H225377   3.286   2.225   1.831  1.5587 -0.1654 -0.3758
 1248TIP3   OH225378   2.772   2.093   0.063  0.1575  0.0374  0.2440
 1248TIP3    H125379   2.819   2.155   0.119 -0.7451 -0.1412  1.2429
 1248TIP3    H225380   2.680   2.116   0.073 -0.0594 -0.2806 -0.8505
 1249TIP3   OH225381   0.658   4.698   1.168 -0.1908  0.3093  0.3553
 1249TIP3    H125382   0.739   4.748   1.159  1.0297 -1.8747 -2.3323
 1249TIP3    H225383   0.686   4.612   1.199 -1.5793 -0.2467  0.1472
 1250TIP3   OH225384   3.071   4.897   0.593  0.0298 -0.7580 -0.6881
 1250TIP3    H125385   2.994   4.866   0.544 -0.7311 -1.8142  1.0622
 1250TIP3    H225386   3.063   4.854   0.678  1.8906  0.1456 -0.0158
 1251TIP3   OH225387   1.602   1.174   6.399 -0.6420 -0.5782 -0.3834
 1251TIP3    H125388   1.599   1.105   6.332 -0.7554 -0.8308 -0.1194
 1251TIP3    H225389   1.593   1.127   6.482 -2.1089 -0.1356 -0.2690
 1252TIP3   OH225390   4.185   3.720   0.483 -0.2137  0.0052 -0.1666
 1252TIP3    H125391   4.190   3.768   0.566  0.6061 -0.5790  0.1428
 1252TIP3    H225392   4.110   3.662   0.492 -0.0083 -0.2001  0.2597
 1253TIP3   OH225393   0.588   3.806   0.663 -0.2116  0.1827 -0.0899
 1253TIP3    H125394   0.583   3.822   0.758 -1.9004  0.5547 -0.1974
 1253TIP3    H225395   0.614   3.890   0.626  2.0730 -0.3648  0.1075
 1254TIP3   OH225396   5.234   2.650   8.586 -0.5847  0.1340  0.0423
 1254TIP3    H125397   5.199   2.592   8.653 -1.7356  1.5389  0.6976
 1254TIP3    H225398   5.226   2.738   8.623  3.6484  0.6498  0.2669
 1255TIP3   OH225399   1.898   4.777   8.529  0.2615 -0.7531 -0.5022
 1255TIP3    H125400   1.972   4.832   8.504  0.4448 -0.4697  0.5935
 1255TIP3    H225401   1.820   4.826   8.503  0.3507  0.9120  1.9740
 1256TIP3   OH225402   0.864   2.344   8.926  0.4745  0.1670  0.3716
 1256TIP3    H125403   0.842   2.253   8.942  0.3863  0.3624  1.4475
 1256TIP3    H225404   0.892   2.347   8.835 -1.1372 -0.6326 -0.1884
 1257TIP3   OH225405   5.130   3.523   0.588 -0.1815 -0.0768  0.1076
 1257TIP3    H125406   5.153   3.593   0.650 -0.0874 -0.9765  1.1271
 1257TIP3    H225407   5.075   3.464   0.640 -0.3577 -0.6992 -0.7739
 1258TIP3   OH225408   1.303   0.639   8.333 -0.3576 -0.5125  0.4770
 1258TIP3    H125409   1.348   0.605   8.256 -1.2349 -0.8840  0.1095
 1258TIP3    H225410   1.246   0.567   8.361 -1.5506  0.2945  0.2372
 1259TIP3   OH225411   3.517   2.471   1.435 -0.1185 -0.4264  0.1520
 1259TIP3    H125412   3.495   2.423   1.514  0.7810 -1.1842 -0.0406
 1259TIP3    H225413   3.482   2.417   1.364  1.2365 -1.0254 -0.0858
 1260TIP3   OH225414   5.549   3.904   8.103  0.2491 -0.2075 -0.0265
 1260TIP3    H125415   5.539   3.826   8.047  1.0359  1.5289 -2.7397
 1260TIP3    H225416   5.505   3.974   8.055  0.9174  1.3943  1.5772
 1261TIP3   OH225417   5.065   5.859   7.340  0.1759 -0.0291 -0.2447
 1261TIP3    H125418   5.113   5.796   7.394  1.6983  1.1063 -0.1873
 1261TIP3    H225419   5.090   5.836   7.250 -2.3007 -1.8742 -0.5743
 1262TIP3   OH225420   6.427   6.670   0.596 -0.4449 -0.5315 -0.6538
 1262TIP3    H125421   6.368   6.666   0.521  0.6858 -0.9661 -1.5454
 1262TIP3    H225422   6.369   6.667   0.672 -1.6852  0.9905 -1.4730
 1263TIP3   OH225423   0.746   3.375   7.095  0.3739  0.1898  0.3448
 1263TIP3    H125424   0.757   3.449   7.036 -0.0735  0.4978  0.6430
 1263TIP3    H225425   0.776   3.407   7.180 -0.3295  0.2109  0.5930
 1264TIP3   OH225426   6.106   6.041   0.897  0.1690 -0.3463  0.1788
 1264TIP3    H125427   6.184   5.987   0.909  0.7427  0.4196 -0.0203
 1264TIP3    H225428   6.140   6.130   0.884 -0.7018 -0.1034 -0.5410
 1265TIP3   OH225429   2.591   0.849   8.986 -0.2361  0.5763 -0.3921
 1265TIP3    H125430   2.655   0.906   8.942 -0.4117  0.3376 -0.9567
 1265TIP3    H225431   2.549   0.800   8.915 -1.4699  1.1546 -0.0867
 1266TIP3   OH225432   5.048   2.424   8.312 -0.0762 -0.2763 -0.0815
 1266TIP3    H125433   5.017   2.462   8.230  1.1241  1.2175  0.1065
 1266TIP3    H225434   5.141   2.407   8.297 -0.2062 -1.5469  0.4414
 1267TIP3   OH225435   0.966   3.019   0.658 -0.1121 -0.4115 -0.0342
 1267TIP3    H125436   0.965   2.998   0.565  2.2740 -2.2676  0.2513
 1267TIP3    H225437   1.038   2.966   0.694  0.4532  1.8142  2.4787
 1268TIP3   OH225438   6.153   3.748   2.112 -0.5295 -0.0456 -0.2300
 1268TIP3    H125439   6.065   3.726   2.083  0.1059  0.4210 -2.6713
 1268TIP3    H225440   6.144   3.759   2.207 -3.0832  0.0172 -0.4017
 1269TIP3   OH225441   4.626   1.087   8.321  0.0581 -0.1676  0.0039
 1269TIP3    H125442   4.628   1.182   8.331 -1.2369 -0.1953  0.6743
 1269TIP3    H225443   4.533   1.065   8.319  0.2101 -1.1202 -3.4063
 1270TIP3   OH225444   2.637   2.008   7.340 -0.6991  0.2561  0.3552
 1270TIP3    H125445   2.668   2.015   7.250 -1.5324 -0.8257 -0.0309
 1270TIP3    H225446   2.717   1.994   7.391 -0.2456  0.6392 -0.2281
 1271TIP3   OH225447   1.147   1.082   7.462  0.1142 -0.1145  0.2730
 1271TIP3    H125448   1.053   1.063   7.462 -0.3830  2.1407  0.0709
 1271TIP3    H225449   1.183   1.022   7.397 -1.1821 -0.9463  0.2753
 1272TIP3   OH225450   3.615   2.677   0.135 -0.7018 -0.0907 -0.3373
 1272TIP3    H125451   3.570   2.593   0.134  1.4830 -1.5135  2.9833
 1272TIP3    H225452   3.546   2.741   0.120 -2.3414 -2.3475 -3.9366
 1273TIP3   OH225453   2.009   6.571   7.285 -0.5061  0.7650 -0.3936
 1273TIP3    H125454   2.001   6.579   7.380 -1.2124 -0.3492 -0.3405
 1273TIP3    H225455   1.943   6.507   7.261  0.6362 -0.0684 -1.4547
 1274TIP3   OH225456   4.210   1.746   0.617 -0.5108 -0.0310  0.5099
 1274TIP3    H125457   4.207   1.716   0.526  0.3503 -0.1266  0.5043
 1274TIP3    H225458   4.208   1.842   0.611 -0.0070 -0.0295  0.3673
 1275TIP3   OH225459   6.397   2.616   1.717  0.2948  0.3254 -0.3389
 1275TIP3    H125460   6.347   2.634   1.797  0.6079 -0.5232  0.0528
 1275TIP3    H225461   6.335   2.570   1.660  0.4745 -0.3000 -0.0391
 1276TIP3   OH225462   6.650   1.203   9.075 -0.5342  0.6863  0.0035
 1276TIP3    H125463   6.595   1.207   9.153 -1.6427  0.1396 -0.7221
 1276TIP3    H225464   6.732   1.245   9.101  0.3474 -2.2006  2.4363
 1277TIP3   OH225465   3.211   0.885   0.555 -0.2486 -0.0093  0.3821
 1277TIP3    H125466   3.172   0.941   0.487 -0.6948  0.2499  0.8432
 1277TIP3    H225467   3.146   0.884   0.625 -0.1435 -0.9191  0.4803
 1278TIP3   OH225468   4.395   4.501   1.554  0.0210  0.3688 -0.0391
 1278TIP3    H125469   4.488   4.479   1.554 -0.1947 -0.6249 -0.4494
 1278TIP3    H225470   4.391   4.589   1.517  0.8053  0.4789  0.1163
 1279TIP3   OH225471   0.774   0.984   0.111  0.1955 -0.8452  0.5958
 1279TIP3    H125472   0.865   1.014   0.106 -0.3102  0.5639 -1.0803
 1279TIP3    H225473   0.730   1.050   0.164  0.0695 -1.3402  1.1124
 1280TIP3   OH225474   4.594   1.775   0.991  0.4237 -0.2437 -0.0414
 1280TIP3    H125475   4.642   1.734   0.919  0.4690 -1.1703  0.5008
 1280TIP3    H225476   4.541   1.705   1.028 -0.5419  0.5196  0.0575
 1281TIP3   OH225477   5.112   1.836   0.965  0.0023 -0.2697 -0.1874
 1281TIP3    H125478   5.079   1.846   0.875 -0.5933  0.9456  0.1448
 1281TIP3    H225479   5.149   1.922   0.986  0.8537 -0.7877  0.4552
 1282TIP3   OH225480   5.980   0.161   0.122 -0.0808  0.4881 -0.5968
 1282TIP3    H125481   5.920   0.212   0.067  0.1950 -0.1607 -1.5225
 1282TIP3    H225482   5.958   0.186   0.212 -0.8258  1.2555 -0.9835
 1283TIP3   OH225483   4.644   5.612   7.973 -0.6296  0.4619 -0.1474
 1283TIP3    H125484   4.692   5.642   7.895 -0.3591  2.5072  0.7534
 1283TIP3    H225485   4.573   5.674   7.983 -0.0424  0.8875  1.8185
 1284TIP3   OH225486   2.967   5.336   1.659 -0.3439  0.5648 -0.1810
 1284TIP3    H125487   2.896   5.275   1.640  1.3241 -0.9213 -1.9480
 1284TIP3    H225488   2.971   5.393   1.583  1.1816 -0.2240 -0.7234
 1285TIP3   OH225489   5.924   5.760   7.925 -0.3095 -0.2060  0.0289
 1285TIP3    H125490   5.876   5.834   7.964  0.9219  0.1748  0.8991
 1285TIP3    H225491   5.965   5.797   7.847 -2.7605 -0.9633 -1.7611
 1286TIP3   OH225492   5.285   2.698   0.299  0.1520  0.0264 -0.4628
 1286TIP3    H125493   5.343   2.771   0.319 -0.9097  0.5328  0.8887
 1286TIP3    H225494   5.325   2.623   0.342  0.1050  0.2694  0.0140
 1287TIP3   OH225495   1.213   1.371   1.171 -0.0421 -0.0056  0.8458
 1287TIP3    H125496   1.303   1.345   1.191 -0.5495 -0.8443  2.2019
 1287TIP3    H225497   1.166   1.288   1.159 -0.5400  0.4296 -0.4050
 1288TIP3   OH225498   2.966   2.310   0.921  0.1008  0.2581 -0.0498
 1288TIP3    H125499   2.878   2.310   0.882  0.4289 -1.1493 -0.8305
 1288TIP3    H225500   2.965   2.237   0.982  0.9242 -0.1803 -0.5497
 1289TIP3   OH225501   4.438   3.581   0.482 -0.2066 -0.2398  0.3390
 1289TIP3    H125502   4.371   3.650   0.486 -0.8255 -0.5686 -2.3943
 1289TIP3    H225503   4.501   3.605   0.550 -2.2778  0.9492  1.9528
 1290TIP3   OH225504   6.670   4.169   0.618 -0.5043  0.0313 -0.2433
 1290TIP3    H125505   6.712   4.249   0.588  1.6355 -1.0928 -0.4002
 1290TIP3    H225506   6.603   4.199   0.679 -1.2158  2.0348 -1.8804
 1291TIP3   OH225507   2.140   6.401   8.859  0.0012  0.0116 -0.0754
 1291TIP3    H125508   2.057   6.360   8.835 -0.2588 -0.2101  1.1285
 1291TIP3    H225509   2.145   6.390   8.954  1.6258 -0.3799 -0.1818
 1292TIP3   OH225510   3.272   6.025   1.125  0.2711  0.2838 -0.2674
 1292TIP3    H125511   3.228   5.963   1.183  0.4050 -0.4146 -0.9012
 1292TIP3    H225512   3.327   6.077   1.184 -0.7910  0.6424  0.4260
 1293TIP3   OH225513   1.879   0.053   7.212  0.2346 -0.1674  0.8468
 1293TIP3    H125514   1.950  -0.010   7.206 -0.5024 -1.1342  1.9052
 1293TIP3    H225515   1.806   0.012   7.165  0.3544  0.8429 -0.2912
 1294TIP3   OH225516   0.793   0.344   7.846  0.1849  0.0448 -0.0527
 1294TIP3    H125517   0.860   0.404   7.812  0.5582 -0.5215 -0.3348
 1294TIP3    H225518   0.826   0.319   7.932 -0.4817  1.0411  0.4995
 1295TIP3   OH225519   3.739   3.632   8.653  0.6541 -0.2697  0.4207
 1295TIP3    H125520   3.750   3.627   8.748 -2.7614 -2.1768  0.8569
 1295TIP3    H225521   3.828   3.631   8.619  1.9726 -1.6626  3.5174
 1296TIP3   OH225522   2.296   2.025   7.079 -0.5586  0.3898  0.0995
 1296TIP3    H125523   2.303   1.971   7.158  0.2981 -0.6605 -0.6702
 1296TIP3    H225524   2.315   2.114   7.110  0.3426 -0.0860  0.9856
 1297TIP3   OH225525   6.072   2.987   9.124 -0.1764 -0.7092 -0.0122
 1297TIP3    H125526   6.158   3.004   9.161 -0.6548  1.0165  0.4077
 1297TIP3    H225527   6.083   3.000   9.030  0.3069 -1.8621 -0.1304
 1298TIP3   OH225528   5.570   4.844   0.232 -0.0940  0.2083 -0.2016
 1298TIP3    H125529   5.635   4.810   0.293 -0.6644  0.2935  0.4766
 1298TIP3    H225530   5.570   4.783   0.159  0.3883 -0.0718  0.0298
 1299TIP3   OH225531   1.184   0.766   7.685 -0.2147  0.2550  0.6030
 1299TIP3    H125532   1.234   0.760   7.603  1.2762  2.8164  1.1744
 1299TIP3    H225533   1.248   0.745   7.753 -0.9319 -0.0629  1.1858
 1300TIP3   OH225534   4.246   0.928   6.264 -0.3750  0.4102  0.2092
 1300TIP3    H125535   4.299   0.865   6.216  0.6903  0.9853  0.5856
 1300TIP3    H225536   4.156   0.895   6.258  0.2332 -1.4695  0.9112
 1301TIP3   OH225537   1.723   6.410   0.249 -0.0714 -0.3093  0.1692
 1301TIP3    H125538   1.680   6.327   0.272  1.6415 -1.3195 -0.1451
 1301TIP3    H225539   1.743   6.403   0.156  0.8780  0.0850  0.3318
 1302TIP3   OH225540   4.605   0.892   9.091 -0.2206  0.2706  0.4151
 1302TIP3    H125541   4.597   0.861   9.001 -1.4581  0.3273  0.4781
 1302TIP3    H225542   4.665   0.966   9.086  0.0251  0.0316 -0.3028
 1303TIP3   OH225543   4.903   3.026   7.328  0.1344 -0.4962  0.6705
 1303TIP3    H125544   4.873   3.070   7.408  1.1451 -1.7328  1.7890
 1303TIP3    H225545   4.995   3.050   7.322  0.0162 -0.2581 -0.2552
 1304TIP3   OH225546   3.170   0.459   1.440 -0.0333 -0.2267  0.1312
 1304TIP3    H125547   3.074   0.461   1.443 -0.1413  3.9938  0.9732
 1304TIP3    H225548   3.192   0.512   1.363  1.6941 -1.7624 -0.4971
 1305TIP3   OH225549   2.388   3.387   9.095  0.3066  0.1745 -0.2552
 1305TIP3    H125550   2.425   3.439   9.024 -1.6873  1.4047 -0.4576
 1305TIP3    H225551   2.304   3.356   9.062 -0.5382  0.5285  1.4331
 1306TIP3   OH225552   2.811   4.940   7.159  0.0041 -0.4516  0.6102
 1306TIP3    H125553   2.767   4.944   7.074  1.2621  0.9942 -0.0081
 1306TIP3    H225554   2.816   4.846   7.179  1.7257 -1.0117 -2.0036
 1307TIP3   OH225555   5.260   6.547   7.066  0.3940  0.0286 -0.2000
 1307TIP3    H125556   5.267   6.503   7.151  1.2709 -0.0638 -0.3112
 1307TIP3    H225557   5.205   6.488   7.013 -1.9480  1.0698  0.9133
 1308TIP3   OH225558   2.561   4.689   0.364  0.1953 -0.4604 -0.2323
 1308TIP3    H125559   2.471   4.685   0.332 -0.2467  1.7156  0.5832
 1308TIP3    H225560   2.600   4.763   0.318  1.5680 -1.3124 -0.5032
 1309TIP3   OH225561   3.845   4.342   1.402  0.2922 -0.0448 -0.0148
 1309TIP3    H125562   3.872   4.411   1.342 -1.9015  0.9777  0.0830
 1309TIP3    H225563   3.927   4.309   1.439  1.5023  1.2972 -1.3633
 1310TIP3   OH225564   3.170   6.316   0.141  0.0008 -0.1816 -0.2998
 1310TIP3    H125565   3.133   6.355   0.061  2.0009  1.8600 -0.3454
 1310TIP3    H225566   3.170   6.222   0.124 -0.8381  0.1093 -2.1566
 1311TIP3   OH225567   3.371   6.566   0.155 -0.0349 -0.3526  0.5837
 1311TIP3    H125568   3.279   6.578   0.179 -0.3772 -1.9723  0.2073
 1311TIP3    H225569   3.368   6.526   0.068  1.1076  1.9411 -0.6037
 1312TIP3   OH225570   6.223   6.056   7.905 -0.4590 -0.4842  0.7295
 1312TIP3    H125571   6.254   6.146   7.896 -1.5216 -0.0935  0.8251
 1312TIP3    H225572   6.302   6.003   7.901  0.3971  0.5512  2.3836
 1313TIP3   OH225573   1.735   5.305   1.229  0.3798  0.1802 -0.6818
 1313TIP3    H125574   1.816   5.357   1.233  0.3887  0.2483 -1.4813
 1313TIP3    H225575   1.672   5.355   1.279 -0.0060  1.7384 -2.5947
 1314TIP3   OH225576   1.983   2.740   7.561  0.1558 -0.1354  0.2694
 1314TIP3    H125577   2.059   2.690   7.592  0.5742  0.4665  0.2375
 1314TIP3    H225578   1.909   2.704   7.609  0.9420  1.6750  3.1296
 1315TIP3   OH225579   4.505   5.937   8.544 -0.0564  0.2994 -0.1065
 1315TIP3    H125580   4.488   6.006   8.609  0.8600 -0.0657  0.5366
 1315TIP3    H225581   4.487   5.855   8.591 -0.6706  0.0654 -0.7253
 1316TIP3   OH225582   4.519   1.154   0.211  0.0933  0.2405 -0.2909
 1316TIP3    H125583   4.524   1.184   0.301  1.6870  1.4680 -0.7461
 1316TIP3    H225584   4.426   1.153   0.191 -0.2083  1.2833  0.9397
 1317TIP3   OH225585   2.327   2.639   0.408 -0.5856  0.3718 -0.2388
 1317TIP3    H125586   2.283   2.646   0.493 -0.9631 -2.1869 -0.1308
 1317TIP3    H225587   2.269   2.583   0.356  0.0005  1.2861 -1.9529
 1318TIP3   OH225588   3.652   3.361   6.971  0.1444 -0.0365  0.2922
 1318TIP3    H125589   3.571   3.367   7.022  0.5047 -0.9038  1.0023
 1318TIP3    H225590   3.722   3.358   7.036  1.0336  3.4002 -0.3228
 1319TIP3   OH225591   5.330   6.350   8.569  0.1350 -0.4860 -0.8044
 1319TIP3    H125592   5.426   6.355   8.566  0.3026 -2.5928 -0.9711
 1319TIP3    H225593   5.310   6.262   8.536 -1.7547 -0.7459  0.8273
 1320TIP3   OH225594   6.308   4.940   0.837 -0.2611 -0.2050  0.6989
 1320TIP3    H125595   6.252   4.862   0.831 -1.5513  0.8000 -2.4190
 1320TIP3    H225596   6.247   5.012   0.855  0.4203  0.4889  0.3180
 1321TIP3   OH225597   4.240   3.085   8.300  0.3233  0.2455  0.7765
 1321TIP3    H125598   4.220   3.163   8.352 -0.1464  1.4070 -1.0513
 1321TIP3    H225599   4.160   3.032   8.303  0.2132  0.4272  1.0388
 1322TIP3   OH225600   4.497   6.177   8.665  0.1219 -0.0155  0.2587
 1322TIP3    H125601   4.548   6.255   8.642  0.8938 -0.6230 -0.1708
 1322TIP3    H225602   4.407   6.208   8.671  0.2990  0.7607 -0.7170
 1323TIP3   OH225603   2.740   2.017   7.039  0.1801 -0.2439  0.3117
 1323TIP3    H125604   2.726   2.056   6.953 -1.4327 -0.4239  0.4482
 1323TIP3    H225605   2.669   1.953   7.048  1.1682 -1.2505  1.2015
 1324TIP3   OH225606   4.206   4.462   7.710  0.4373 -0.1788 -0.2734
 1324TIP3    H125607   4.214   4.368   7.727  0.3557  0.1669  1.9827
 1324TIP3    H225608   4.123   4.487   7.751  1.3040  1.1838  0.7239
 1325TIP3   OH225609   5.700   0.561   0.784 -0.2327 -0.4207 -0.5005
 1325TIP3    H125610   5.793   0.562   0.761 -0.2632  0.1301 -0.6066
 1325TIP3    H225611   5.685   0.646   0.825 -0.4356 -0.9441  0.5332
 1326TIP3   OH225612   4.187   3.954   8.745 -0.2876  0.4145  0.4114
 1326TIP3    H125613   4.174   3.859   8.738 -0.7453  0.4973  0.0452
 1326TIP3    H225614   4.205   3.969   8.837 -0.4601 -0.0016  0.5158
 1327TIP3   OH225615   5.741   0.659   7.851 -0.2488  0.0336  0.0378
 1327TIP3    H125616   5.712   0.569   7.867  1.6052 -0.2802  1.9612
 1327TIP3    H225617   5.808   0.675   7.916  0.0162  2.5904 -0.7570
 1328TIP3   OH225618   0.981   5.780   2.710  0.1886 -0.0039 -0.5469
 1328TIP3    H125619   0.956   5.690   2.730 -3.1844  0.9268  0.1873
 1328TIP3    H225620   1.049   5.801   2.774 -1.0970 -1.1362  1.3036
 1329TIP3   OH225621   5.557   2.720   6.540 -0.6697 -0.7084 -0.4074
 1329TIP3    H125622   5.486   2.674   6.494 -0.2448  0.5722 -2.4509
 1329TIP3    H225623   5.618   2.745   6.471  0.4471  0.5775  0.9875
 1330TIP3   OH225624   4.040   6.252   0.261  0.0992  0.1368 -0.5245
 1330TIP3    H125625   3.977   6.279   0.195 -1.9067 -0.8396  0.8961
 1330TIP3    H225626   4.078   6.171   0.227  1.9730  1.6131 -2.1816
 1331TIP3   OH225627   0.761   3.631   2.035  0.2042  0.1026 -0.7998
 1331TIP3    H125628   0.853   3.607   2.047 -0.2855 -1.2233  0.6569
 1331TIP3    H225629   0.733   3.665   2.119 -0.5484  0.8575 -1.3409
 1332TIP3   OH225630   6.060   2.906   8.842  0.2581 -0.3251  0.2836
 1332TIP3    H125631   6.028   2.830   8.794 -1.5028  1.1955 -1.1078
 1332TIP3    H225632   6.124   2.946   8.783  1.9680 -1.2038  1.4399
 1333TIP3   OH225633   6.308   6.138   8.564 -0.3908  0.5970 -0.6627
 1333TIP3    H125634   6.323   6.137   8.658  0.2168 -1.1326 -0.7214
 1333TIP3    H225635   6.241   6.071   8.549  1.1169 -0.8028 -1.6131
 1334TIP3   OH225636   4.962   2.165   8.111  0.1826 -0.2896 -0.3619
 1334TIP3    H125637   4.897   2.119   8.057  0.5307 -0.1110 -0.9395
 1334TIP3    H225638   4.938   2.257   8.104 -1.6588 -0.4710  2.3022
 1335TIP3   OH225639   3.078   6.659   2.282  0.1135  0.1483  0.8916
 1335TIP3    H125640   3.084   6.636   2.375  0.2814  0.7291  1.0301
 1335TIP3    H225641   3.045   6.749   2.282  4.1080  1.8248  0.5713
 1336TIP3   OH225642   1.200   1.344   0.091  0.0539  0.0573  0.1779
 1336TIP3    H125643   1.148   1.319   0.167 -2.0889  1.7159 -0.6422
 1336TIP3    H225644   1.266   1.275   0.083  0.1765 -0.3262  3.3147
 1337TIP3   OH225645   5.338   5.714   0.009 -0.5019 -0.2489 -0.1797
 1337TIP3    H125646   5.372   5.635  -0.033  2.4444  0.7581  0.0766
 1337TIP3    H225647   5.414   5.771   0.017 -2.5834  2.8533 -0.8237
 1338TIP3   OH225648   3.725   3.067   1.054 -0.3423  0.0859  0.5283
 1338TIP3    H125649   3.650   3.009   1.066 -1.7901  1.6235 -0.5524
 1338TIP3    H225650   3.749   3.056   0.962  0.1416  0.3115  0.6251
 1339TIP3   OH225651   5.481   4.358   6.892 -0.1535 -0.8900 -0.2904
 1339TIP3    H125652   5.556   4.386   6.840  0.7627  0.2595  1.5449
 1339TIP3    H225653   5.508   4.275   6.932  1.1638  0.6114  2.1863
 1340TIP3   OH225654   1.334   3.762   8.753  0.2433 -0.5106 -0.0572
 1340TIP3    H125655   1.384   3.710   8.816 -1.1983 -0.3217  1.2935
 1340TIP3    H225656   1.310   3.700   8.684  0.5661 -1.0736  0.3310
 1341TIP3   OH225657   6.458   5.377   0.823 -0.2415  0.3937 -0.0016
 1341TIP3    H125658   6.508   5.312   0.772  1.9245  1.6461  0.3947
 1341TIP3    H225659   6.442   5.333   0.906  1.0208  0.2598  0.1918
 1342TIP3   OH225660   6.669   6.170   1.997  0.3898 -0.1608 -0.2191
 1342TIP3    H125661   6.654   6.264   2.007  1.6569 -0.0808  1.4406
 1342TIP3    H225662   6.666   6.154   1.903  1.9916  1.8994 -0.6824
 1343TIP3   OH225663   4.743   2.228   0.266 -0.4387  0.1127  0.5778
 1343TIP3    H125664   4.811   2.272   0.215  0.8919 -0.7371  1.5831
 1343TIP3    H225665   4.721   2.150   0.215  1.6289 -1.2941  1.7032
 1344TIP3   OH225666   5.871   0.718   7.252  0.2560 -0.0090 -0.2604
 1344TIP3    H125667   5.800   0.682   7.198 -0.4272 -1.2131  1.3462
 1344TIP3    H225668   5.852   0.685   7.340  3.6567 -1.6517 -0.0018
 1345TIP3   OH225669   6.491   6.291   2.720  0.4298  0.3616  0.0966
 1345TIP3    H125670   6.508   6.385   2.708  0.5439  0.4808  1.1212
 1345TIP3    H225671   6.576   6.254   2.744  0.0338  0.3181  1.5184
 1346TIP3   OH225672   4.510   4.581   0.924 -0.3004 -0.3485 -0.0726
 1346TIP3    H125673   4.568   4.649   0.959 -1.7945  1.6462 -1.1860
 1346TIP3    H225674   4.461   4.549   1.000 -0.0746  0.3803  0.3917
 1347TIP3   OH225675   3.824   2.771   0.921 -0.1501  0.2755 -0.6315
 1347TIP3    H125676   3.751   2.738   0.973  0.3288  0.4235  0.1416
 1347TIP3    H225677   3.792   2.852   0.882 -0.8699 -0.3765 -1.4442
 1348TIP3   OH225678   3.922   5.502   2.146  0.0240  0.1388  0.5362
 1348TIP3    H125679   3.896   5.459   2.228  1.4637  0.3337  1.1114
 1348TIP3    H225680   3.844   5.551   2.119 -0.3082  0.4889  2.0570
 1349TIP3   OH225681   0.497   0.143   2.104  0.4012  0.3266  0.4606
 1349TIP3    H125682   0.452   0.093   2.172 -0.2634 -1.5288 -1.2379
 1349TIP3    H225683   0.590   0.139   2.128  0.1956 -0.4960  1.1537
 1350TIP3   OH225684   6.075   6.642   0.000 -0.0482 -0.5968  0.2599
 1350TIP3    H125685   6.072   6.722   0.053 -1.1161 -0.8906  0.6742
 1350TIP3    H225686   6.138   6.586   0.046  0.1646 -0.2728  0.3699
 1351TIP3   OH225687   0.629   0.108   6.833  0.2921  0.0569 -0.2084
 1351TIP3    H125688   0.584   0.031   6.866  0.5134 -0.3260 -0.7752
 1351TIP3    H225689   0.674   0.077   6.754  2.8723  0.0143  1.1677
 1352TIP3   OH225690   5.378   3.892   1.864 -0.0152 -0.3655 -0.3309
 1352TIP3    H125691   5.434   3.816   1.845  1.9346  0.8225  0.3002
 1352TIP3    H225692   5.374   3.940   1.781  0.0798 -0.3615 -0.3335
 1353TIP3   OH225693   0.990   4.783   7.095 -0.1732  0.4705  0.3019
 1353TIP3    H125694   0.982   4.877   7.112  0.2214  0.7259 -0.8375
 1353TIP3    H225695   0.916   4.744   7.142 -1.6402  1.6028 -0.9257
 1354TIP3   OH225696   2.102   2.218   7.325  0.3586 -0.3433 -0.3474
 1354TIP3    H125697   2.045   2.234   7.250  0.4295 -0.2513 -0.3819
 1354TIP3    H225698   2.111   2.122   7.329  0.1676 -0.3603 -0.3154
 1355TIP3   OH225699   5.217   6.612   1.644 -0.2519 -0.3844 -0.0320
 1355TIP3    H125700   5.137   6.568   1.616  0.0828 -0.0454 -1.6121
 1355TIP3    H225701   5.244   6.564   1.722 -0.9419 -1.7503 -0.5903
 1356TIP3   OH225702   6.605   1.590   0.996  0.4300 -0.2075 -0.0236
 1356TIP3    H125703   6.687   1.635   0.978 -0.3657  0.6390 -1.8320
 1356TIP3    H225704   6.583   1.546   0.913 -1.2546  0.1576  0.1978
 1357TIP3   OH225705   4.056   5.715   7.386  0.4469 -0.1703 -0.4670
 1357TIP3    H125706   4.006   5.639   7.415 -0.7739  1.0436  0.8325
 1357TIP3    H225707   4.009   5.745   7.308 -0.9785  0.9582  0.7408
 1358TIP3   OH225708   5.940   3.216   6.485 -0.5497 -0.6048 -0.5834
 1358TIP3    H125709   5.907   3.129   6.510 -2.3861 -0.1963 -1.3852
 1358TIP3    H225710   5.996   3.200   6.409  1.3607 -1.3426  0.9022
 1359TIP3   OH225711   3.426   0.056   8.798 -0.0331  0.2787  0.3377
 1359TIP3    H125712   3.502  -0.003   8.806 -1.0953 -1.4258 -1.3641
 1359TIP3    H225713   3.446   0.128   8.858  2.9837 -0.0174 -0.1296
 1360TIP3   OH225714   2.919   1.572   8.251  0.0966  1.1490 -0.4152
 1360TIP3    H125715   2.909   1.518   8.173  0.0509 -1.9837  1.5908
 1360TIP3    H225716   2.852   1.640   8.242 -2.0223 -0.9874 -1.6829
 1361TIP3   OH225717   6.079   3.439   1.424 -0.1856  0.2913 -0.3502
 1361TIP3    H125718   6.115   3.358   1.462 -1.3098 -0.2213 -0.3374
 1361TIP3    H225719   5.993   3.448   1.464 -0.7362  0.6223 -1.5680
 1362TIP3   OH225720   0.926   5.399   7.401 -0.4477 -0.3386 -0.0728
 1362TIP3    H125721   0.968   5.337   7.342 -1.6752 -0.7685 -0.5279
 1362TIP3    H225722   0.842   5.359   7.423 -1.2003  1.0672 -0.2328
 1363TIP3   OH225723   0.742   5.254   9.122 -0.3580 -0.5405 -0.4014
 1363TIP3    H125724   0.699   5.338   9.138  0.4584 -0.4289  1.4785
 1363TIP3    H225725   0.761   5.255   9.028 -1.3014  0.9126 -0.6131
 1364TIP3   OH225726   6.359   1.872   1.492 -0.2759 -0.3305 -0.2300
 1364TIP3    H125727   6.327   1.953   1.451 -0.1804 -0.2917 -0.2288
 1364TIP3    H225728   6.442   1.854   1.448 -0.1697 -0.2858 -0.0488
 1365TIP3   OH225729   2.761   3.129   0.744 -0.0114  0.4892  0.0576
 1365TIP3    H125730   2.683   3.183   0.753  0.3336  1.0122 -0.0843
 1365TIP3    H225731   2.757   3.069   0.819  0.3370  1.6449  1.0231
 1366TIP3   OH225732   4.967   0.903   6.802 -0.6999  0.3596  0.3060
 1366TIP3    H125733   4.986   0.820   6.759 -0.0016  0.2892  0.7362
 1366TIP3    H225734   4.989   0.970   6.738 -0.7728  0.2288  0.1443
 1367TIP3   OH225735   6.560   3.345   1.550  0.1017  0.2829  0.1450
 1367TIP3    H125736   6.612   3.266   1.560 -1.2057 -0.5525  0.5784
 1367TIP3    H225737   6.617   3.406   1.503  1.0430 -0.9929 -0.4068
 1368TIP3   OH225738   3.484   4.880   7.491  0.3617  0.1801 -0.2402
 1368TIP3    H125739   3.477   4.974   7.505  0.6105  0.4654 -1.8585
 1368TIP3    H225740   3.410   4.858   7.434 -0.0902 -0.7415  0.6560
 1369TIP3   OH225741   5.024   5.988   2.539  0.2086  0.0298  0.4232
 1369TIP3    H125742   4.950   5.936   2.571 -1.2728  1.0836 -1.0860
 1369TIP3    H225743   5.042   6.050   2.609 -0.3041 -0.2641  0.8263
 1370TIP3   OH225744   1.081   4.908   7.698  0.7363  0.1795 -0.2343
 1370TIP3    H125745   1.001   4.863   7.724  0.7390  0.8158  1.0107
 1370TIP3    H225746   1.057   4.957   7.620  0.1527 -0.3119 -0.3691
 1371TIP3   OH225747   4.169   2.978   1.289 -0.1650  0.3312 -0.2673
 1371TIP3    H125748   4.232   2.914   1.255 -1.0669 -0.2338 -0.9204
 1371TIP3    H225749   4.103   2.926   1.334 -0.9004  0.7836 -0.7863
 1372TIP3   OH225750   5.358   1.775   9.096  0.1499 -0.0181 -0.0375
 1372TIP3    H125751   5.397   1.746   9.013  1.8927 -0.6385  0.9430
 1372TIP3    H225752   5.379   1.705   9.158 -0.5905  0.7141  1.0708
 1373TIP3   OH225753   1.279   4.624   8.917 -0.2098  0.2723 -0.9203
 1373TIP3    H125754   1.295   4.675   8.996 -1.0614  1.2889 -1.3908
 1373TIP3    H225755   1.191   4.587   8.929  0.4593 -1.2968 -0.4962
 1374TIP3   OH225756   2.376   0.902   7.692  0.2741 -0.4831 -0.3371
 1374TIP3    H125757   2.444   0.848   7.732 -0.8184 -1.8067 -0.1904
 1374TIP3    H225758   2.337   0.846   7.625  0.9011  1.0985 -2.0794
 1375TIP3   OH225759   4.244   2.284   7.043 -0.3723 -0.1558 -0.1572
 1375TIP3    H125760   4.282   2.356   7.093  1.2540 -0.3410 -1.0449
 1375TIP3    H225761   4.182   2.243   7.103 -2.4783  2.8120 -0.0656
 1376TIP3   OH225762   2.764   1.000   2.543 -0.3838  0.0742  0.2599
 1376TIP3    H125763   2.687   1.056   2.549 -0.9465  0.1662 -4.2060
 1376TIP3    H225764   2.737   0.917   2.580 -2.3320  0.4178 -0.2814
 1377TIP3   OH225765   0.516   0.642   1.334  0.1260  0.0413 -0.2372
 1377TIP3    H125766   0.480   0.631   1.423  0.3306 -0.7717 -0.2504
 1377TIP3    H225767   0.511   0.555   1.295  0.7059  0.2421 -0.7766
 1378TIP3   OH225768   5.149   0.608   7.202  0.4440 -0.5081  0.5908
 1378TIP3    H125769   5.122   0.682   7.147  0.3768 -1.4874 -0.7591
 1378TIP3    H225770   5.240   0.594   7.179  0.8441 -0.0315  1.8303
 1379TIP3   OH225771   0.359   1.127   7.581  0.2630 -0.8417  0.0832
 1379TIP3    H125772   0.332   1.036   7.590 -3.8754 -0.0283 -1.6498
 1379TIP3    H225773   0.323   1.170   7.658  1.7500 -0.5148  0.6305
 1380TIP3   OH225774   6.332   5.933   0.603 -0.3138  0.0198 -1.0253
 1380TIP3    H125775   6.319   6.017   0.647  3.5156  0.2937 -0.0667
 1380TIP3    H225776   6.425   5.914   0.613 -1.0171 -4.5849 -0.8737
 1381TIP3   OH225777   0.083   0.848   1.304 -0.4250  0.2353 -0.3563
 1381TIP3    H125778   0.043   0.761   1.295 -0.3894  0.0411  1.1661
 1381TIP3    H225779   0.167   0.840   1.260 -0.5773 -0.3940 -0.5476
 1382TIP3   OH225780   4.078   2.359   0.874  0.0379  0.3679 -0.2640
 1382TIP3    H125781   4.135   2.427   0.910  0.1348  0.7853 -1.1706
 1382TIP3    H225782   4.069   2.294   0.944  1.0442  0.6506  0.1322
 1383TIP3   OH225783   3.886   4.722   0.701  0.2752  0.0908 -0.2054
 1383TIP3    H125784   3.892   4.671   0.620  0.0802  1.3708 -1.0555
 1383TIP3    H225785   3.976   4.737   0.727  0.3584  0.2400 -0.5702
 1384TIP3   OH225786   4.627   0.323   8.466  0.2176  0.2788 -0.9126
 1384TIP3    H125787   4.613   0.390   8.533 -2.1326  0.9943 -2.0172
 1384TIP3    H225788   4.696   0.267   8.502 -0.2456  1.2185  1.6421
 1385TIP3   OH225789   1.641   4.754   6.748  0.1856 -0.4071  0.5591
 1385TIP3    H125790   1.553   4.718   6.737  0.8555 -2.9774  2.4822
 1385TIP3    H225791   1.694   4.678   6.774  2.6891  1.3011  0.7339
 1386TIP3   OH225792   2.363   3.898   7.936  0.1216  0.3454  0.4579
 1386TIP3    H125793   2.308   3.832   7.894  0.6151 -0.0200  0.3674
 1386TIP3    H225794   2.450   3.856   7.941  0.5238  1.1216  0.0647
 1387TIP3   OH225795   1.539   2.127   1.337  0.1591  0.4084  0.2921
 1387TIP3    H125796   1.472   2.148   1.274  0.0566 -0.8919 -0.0742
 1387TIP3    H225797   1.513   2.172   1.417  0.1617  1.8650 -0.5067
 1388TIP3   OH225798   1.384   0.508   0.871 -0.8923  0.5262  0.1601
 1388TIP3    H125799   1.464   0.547   0.905  0.4280 -1.3533 -0.5824
 1388TIP3    H225800   1.400   0.498   0.777 -1.6559 -0.6167  0.1239
 1389TIP3   OH225801   0.167   1.489   8.171  0.1013  0.2130 -0.2258
 1389TIP3    H125802   0.226   1.414   8.167  0.2576  0.2187  1.3120
 1389TIP3    H225803   0.180   1.534   8.087  0.2082 -1.2981 -1.0615
 1390TIP3   OH225804   0.894   5.221   1.181  0.4473 -0.5078  0.4562
 1390TIP3    H125805   0.855   5.302   1.148 -0.7775 -1.3539 -0.2501
 1390TIP3    H225806   0.947   5.249   1.256 -0.8301  0.8119  0.9213
 1391TIP3   OH225807   4.786   1.460   7.951 -0.1084 -0.1861  0.2297
 1391TIP3    H125808   4.845   1.385   7.950 -0.2110 -0.2647  0.0819
 1391TIP3    H225809   4.703   1.426   7.918  0.0311  0.1478 -0.4864
 1392TIP3   OH225810   0.096   3.285   7.727 -0.0962 -0.1347 -0.2526
 1392TIP3    H125811   0.077   3.312   7.817  1.8205  1.0109 -0.1375
 1392TIP3    H225812   0.034   3.214   7.710 -1.3266  0.4336  1.5344
 1393TIP3   OH225813   6.452   3.616   6.711  0.2299  0.6613 -0.7008
 1393TIP3    H125814   6.480   3.677   6.642 -0.6481  0.1805 -1.4962
 1393TIP3    H225815   6.371   3.654   6.746  1.2184  1.4755  0.8515
 1394TIP3   OH225816   3.290   6.137   0.763  0.3796 -0.3104  0.3281
 1394TIP3    H125817   3.374   6.100   0.736  1.3249  1.5717  0.5530
 1394TIP3    H225818   3.279   6.216   0.710 -1.3680 -0.6213  0.1472
 1395TIP3   OH225819   5.569   3.535   0.937  0.8986  0.5174 -0.3032
 1395TIP3    H125820   5.495   3.480   0.962 -0.6249  2.8238  0.5519
 1395TIP3    H225821   5.568   3.533   0.841 -1.0851  1.4340 -0.3534
 1396TIP3   OH225822   0.759   2.285   7.680 -0.4127  0.1136 -0.7595
 1396TIP3    H125823   0.700   2.212   7.701 -1.1730  0.5375 -1.3642
 1396TIP3    H225824   0.845   2.255   7.708 -0.5539 -1.3892 -1.8013
 1397TIP3   OH225825   1.388   5.066   8.603  0.2800  0.2862  0.1408
 1397TIP3    H125826   1.301   5.049   8.568  0.3313  0.4903 -0.0852
 1397TIP3    H225827   1.403   5.160   8.588 -0.6904  0.9656  2.8907
 1398TIP3   OH225828   1.529   5.366   0.760 -0.3897 -0.2609  0.1848
 1398TIP3    H125829   1.571   5.293   0.807  0.4911  0.1896  0.1295
 1398TIP3    H225830   1.508   5.429   0.829 -2.3370 -1.0768  0.4094
 1399TIP3   OH225831   1.438   3.103   7.538 -0.2095  0.1547  0.1167
 1399TIP3    H125832   1.505   3.074   7.600 -0.7106 -0.2515  0.4777
 1399TIP3    H225833   1.376   3.152   7.591 -1.2035 -1.0880  0.1451
 1400TIP3   OH225834   3.308   2.070   8.675  0.0788  0.1235 -0.0410
 1400TIP3    H125835   3.361   2.143   8.707  1.5919 -0.8273 -0.2738
 1400TIP3    H225836   3.369   2.018   8.622 -0.1665 -2.7737  2.3022
 1401TIP3   OH225837   4.668   5.497   2.510  0.0599  0.2172 -0.2125
 1401TIP3    H125838   4.709   5.423   2.467  0.1967  0.1457  0.0391
 1401TIP3    H225839   4.575   5.491   2.487 -0.1963 -0.8688  0.9852
 1402TIP3   OH225840   5.864   5.576   0.612 -0.3792 -0.8549 -0.0789
 1402TIP3    H125841   5.880   5.485   0.585 -0.8860 -0.6418 -1.1768
 1402TIP3    H225842   5.949   5.618   0.607 -0.1744 -1.2238  0.2464
 1403TIP3   OH225843   4.296   2.059   8.584 -0.1891 -0.7567  0.3241
 1403TIP3    H125844   4.369   2.053   8.646  0.8846 -0.2671 -0.8561
 1403TIP3    H225845   4.263   2.148   8.596 -0.2164 -0.7840  0.4545
 1404TIP3   OH225846   3.566   1.242   0.208 -0.0046 -0.6212 -0.0223
 1404TIP3    H125847   3.547   1.202   0.292  1.7652 -1.0953  0.2019
 1404TIP3    H225848   3.481   1.252   0.166 -1.4347  2.9362  3.2107
 1405TIP3   OH225849   1.437   5.579   7.024  0.0964 -0.2350 -0.2512
 1405TIP3    H125850   1.411   5.562   6.934  2.1566 -2.1593 -0.5445
 1405TIP3    H225851   1.528   5.609   7.019 -0.2971  1.4100  1.1027
 1406TIP3   OH225852   3.089   3.462   1.983 -0.1781  0.4840  0.5384
 1406TIP3    H125853   3.102   3.542   2.034 -0.0749  0.4641  0.5443
 1406TIP3    H225854   3.177   3.437   1.955 -0.2679  0.7015  0.0405
 1407TIP3   OH225855   3.398   0.932   7.987  0.3337  0.2554 -0.8254
 1407TIP3    H125856   3.361   0.966   7.905  1.6600  1.6784 -0.8825
 1407TIP3    H225857   3.386   1.003   8.049  0.6171 -0.2746 -0.1583
 1408TIP3   OH225858   2.288   1.017   0.293 -0.0928 -0.2389  0.2264
 1408TIP3    H125859   2.338   1.082   0.342 -1.5580  1.3828 -0.3205
 1408TIP3    H225860   2.334   1.010   0.209  1.2734 -1.5472  1.0224
 1409TIP3   OH225861   6.479   4.454   2.437  0.3870  0.8566  0.0528
 1409TIP3    H125862   6.387   4.439   2.461  0.8384  1.2742  2.2951
 1409TIP3    H225863   6.487   4.549   2.431  1.1841  1.0058  2.4682
 1410TIP3   OH225864   6.668   6.262   7.511 -0.0396  0.6646 -0.3736
 1410TIP3    H125865   6.578   6.293   7.515  0.3810  1.8323  0.2432
 1410TIP3    H225866   6.660   6.169   7.486 -1.4346  0.5480  0.4190
 1411TIP3   OH225867   3.256   1.929   7.156  0.7983 -0.0116 -0.0876
 1411TIP3    H125868   3.163   1.913   7.141  1.1129 -0.9730 -1.1530
 1411TIP3    H225869   3.263   1.947   7.250 -0.3861 -0.4471  0.0935
 1412TIP3   OH225870   2.041   5.643   6.350  0.3991 -0.0759  0.1261
 1412TIP3    H125871   2.123   5.618   6.308  0.6213  0.1567  0.4209
 1412TIP3    H225872   2.039   5.592   6.431  0.8541  0.8452  0.7311
 1413TIP3   OH225873   0.205   6.202   1.798 -0.0145 -0.1152 -0.0823
 1413TIP3    H125874   0.286   6.180   1.752  1.9246 -1.9084  3.7330
 1413TIP3    H225875   0.234   6.251   1.874 -3.1861  4.1727 -1.2739
 1414TIP3   OH225876   4.822   4.854   8.443 -0.0376 -0.3458  0.4941
 1414TIP3    H125877   4.865   4.917   8.386  2.4331 -1.3457  1.1360
 1414TIP3    H225878   4.844   4.883   8.532 -0.0153 -1.3351  0.8255
 1415TIP3   OH225879   5.191   5.888   0.302 -0.4718  0.7693  0.1723
 1415TIP3    H125880   5.134   5.912   0.375 -0.0283 -0.3922  0.9366
 1415TIP3    H225881   5.192   5.792   0.302  1.7295  0.7269  0.4166
 1416TIP3   OH225882   4.476   4.462   8.303  0.3186  0.4054 -0.1604
 1416TIP3    H125883   4.436   4.481   8.388 -1.3360  2.4073 -1.3149
 1416TIP3    H225884   4.455   4.370   8.287  0.9883 -0.1282  1.7076
 1417TIP3   OH225885   1.771   1.564   8.879 -0.0055  0.2567  0.7210
 1417TIP3    H125886   1.854   1.564   8.926  0.9833  1.4364 -0.9230
 1417TIP3    H225887   1.795   1.549   8.787 -1.6085  0.5444  0.2216
 1418TIP3   OH225888   3.928   5.072   0.049  0.1544  0.3408 -0.5505
 1418TIP3    H125889   4.014   5.082   0.009  0.7872  0.3325  0.7652
 1418TIP3    H225890   3.943   5.016   0.124 -0.5064  2.2686  1.1238
 1419TIP3   OH225891   6.433   1.432   1.201  0.5582  0.4546 -0.6276
 1419TIP3    H125892   6.417   1.504   1.261 -0.5764  0.2550 -0.6632
 1419TIP3    H225893   6.522   1.447   1.168  1.1121  0.6951  0.9039
 1420TIP3   OH225894   2.810   5.294   0.617  0.1168  0.1546 -0.5788
 1420TIP3    H125895   2.870   5.244   0.562  2.0643 -0.2287  1.7195
 1420TIP3    H225896   2.862   5.368   0.648 -0.5528 -0.1668  1.4681
 1421TIP3   OH225897   5.256   5.121   7.893 -0.5316  0.2435  0.0911
 1421TIP3    H125898   5.181   5.159   7.938 -0.6387 -2.6147  2.6394
 1421TIP3    H225899   5.217   5.066   7.825 -0.6053  0.6793 -0.2245
 1422TIP3   OH225900   4.940   1.543   1.675 -0.0211  0.2015 -0.3805
 1422TIP3    H125901   4.917   1.514   1.587  1.4364 -2.1401 -0.0695
 1422TIP3    H225902   5.019   1.596   1.663 -0.0771  0.2569 -0.5079
 1423TIP3   OH225903   5.569   3.002   8.003  0.1784 -0.0613  0.2648
 1423TIP3    H125904   5.526   3.079   8.040 -2.4647 -0.0530 -2.3552
 1423TIP3    H225905   5.642   3.037   7.952  2.5877  0.0738  3.5168
 1424TIP3   OH225906   0.350   1.052   0.907  0.3407 -0.5506 -0.6122
 1424TIP3    H125907   0.317   0.964   0.887  1.0968 -0.5942 -1.8265
 1424TIP3    H225908   0.297   1.110   0.852 -1.6553  0.0438  1.7997
 1425TIP3   OH225909   1.007   0.986   8.296 -0.0209  0.0240 -0.1546
 1425TIP3    H125910   1.080   1.041   8.326  0.6240 -0.8178 -0.1388
 1425TIP3    H225911   0.929   1.038   8.312  0.7219  2.3050 -3.0329
 1426TIP3   OH225912   6.175   1.033   1.446  0.6575  0.2805 -0.8528
 1426TIP3    H125913   6.226   1.076   1.514  1.0617 -0.5835 -0.5876
 1426TIP3    H225914   6.193   0.939   1.459 -0.1560  0.0354 -1.4322
 1427TIP3   OH225915   6.671   2.113   7.327  0.1057  0.3607 -0.5782
 1427TIP3    H125916   6.754   2.068   7.341  0.7372  0.8918 -2.4129
 1427TIP3    H225917   6.638   2.130   7.416  0.9860 -1.5604  0.1730
 1428TIP3   OH225918   1.005   1.482   7.631 -0.0971 -0.4890 -0.2007
 1428TIP3    H125919   1.047   1.402   7.662 -0.2271 -0.1445  0.9173
 1428TIP3    H225920   0.915   1.455   7.611 -1.0638 -0.1160  3.0037
 1429TIP3   OH225921   1.822   4.361   0.316 -0.0691 -0.1317 -0.5256
 1429TIP3    H125922   1.835   4.325   0.403 -0.7559 -0.0739 -0.3928
 1429TIP3    H225923   1.903   4.409   0.297 -0.4861  1.1529  0.7066
 1430TIP3   OH225924   3.852   5.972   1.560 -0.4194  0.0413  0.2741
 1430TIP3    H125925   3.927   5.950   1.616 -0.0720  1.4996  0.4244
 1430TIP3    H225926   3.826   5.889   1.521 -0.0016 -0.8416  1.7838
 1431TIP3   OH225927   5.132   2.275   0.392  0.0911 -0.1210 -0.6778
 1431TIP3    H125928   5.037   2.277   0.405  0.1098  0.7276 -0.6413
 1431TIP3    H225929   5.155   2.364   0.367  0.9854 -0.1102  0.1043
 1432TIP3   OH225930   3.112   2.178   7.809  0.0493 -0.0893  0.9853
 1432TIP3    H125931   3.194   2.149   7.769 -0.1199 -0.2643  0.7669
 1432TIP3    H225932   3.131   2.180   7.903  0.4352  0.2907  0.9029
 1433TIP3   OH225933   2.135   0.728   0.578  0.0572  0.6599  0.0025
 1433TIP3    H125934   2.205   0.688   0.629  0.0761 -0.8316 -1.1065
 1433TIP3    H225935   2.169   0.813   0.552  0.8125  0.6203  0.8275
 1434TIP3   OH225936   1.597   3.646   0.531 -0.3117  0.0111 -0.0642
 1434TIP3    H125937   1.547   3.717   0.491  0.0785 -0.6673 -1.8958
 1434TIP3    H225938   1.538   3.571   0.529 -0.1963 -0.0917  0.4207
 1435TIP3   OH225939   2.806   4.330   1.192 -0.2586  0.4201  0.4161
 1435TIP3    H125940   2.842   4.346   1.105  2.1424  2.3454  1.6418
 1435TIP3    H225941   2.744   4.401   1.206  0.2712  0.8355  0.7051
 1436TIP3   OH225942   4.485   2.481   6.730  0.3023 -0.0236  0.8513
 1436TIP3    H125943   4.518   2.464   6.641  0.3001 -2.3988  1.2238
 1436TIP3    H225944   4.391   2.494   6.718  0.5524  1.4970  0.3441
 1437TIP3   OH225945   1.426   4.517   7.128  0.5454 -0.0836  0.5096
 1437TIP3    H125946   1.451   4.606   7.103 -1.4349  0.7648  1.2897
 1437TIP3    H225947   1.392   4.478   7.047 -0.1429  0.4877  0.5123
 1438TIP3   OH225948   1.732   3.481   6.850  0.4237 -0.1411 -0.2195
 1438TIP3    H125949   1.802   3.424   6.882 -1.4175 -1.5992  1.4549
 1438TIP3    H225950   1.741   3.561   6.902  0.5507 -0.5023  0.3198
 1439TIP3   OH225951   0.203   4.748   1.966  0.2871  0.4319  0.8287
 1439TIP3    H125952   0.220   4.785   2.053 -1.4460 -0.0305  1.4114
 1439TIP3    H225953   0.290   4.728   1.931  1.0065 -1.4687  3.4005
 1440TIP3   OH225954   4.156   5.078   8.244  0.1069  0.6556  0.2741
 1440TIP3    H125955   4.159   5.045   8.154  1.0872  1.3655  0.0353
 1440TIP3    H225956   4.065   5.065   8.271  0.2929 -1.7197  0.0128
 1441TIP3   OH225957   2.753   6.149   1.830 -0.1229 -0.8863 -0.4791
 1441TIP3    H125958   2.737   6.170   1.922 -0.4734  1.8545 -1.0789
 1441TIP3    H225959   2.666   6.141   1.791  0.0251 -1.8937 -0.6566
 1442TIP3   OH225960   5.579   6.385   1.074  0.2269 -0.4426  0.2131
 1442TIP3    H125961   5.621   6.389   1.159  1.1347 -0.7272 -0.2119
 1442TIP3    H225962   5.623   6.451   1.021  0.1761 -0.7689 -0.2526
 1443TIP3   OH225963   5.710   6.711   6.880 -0.0379  0.9247  0.4918
 1443TIP3    H125964   5.800   6.740   6.865  0.3120 -0.7707 -1.0164
 1443TIP3    H225965   5.714   6.616   6.872 -2.3108  0.9281 -1.8831
 1444TIP3   OH225966   0.685   1.376   6.942 -0.3419 -0.2096 -0.2819
 1444TIP3    H125967   0.771   1.368   6.900  0.0876 -0.3178  0.5853
 1444TIP3    H225968   0.628   1.317   6.892  0.2819 -0.7358 -0.3854
 1445TIP3   OH225969   4.437   2.963   0.090  0.1695  0.0736  0.1829
 1445TIP3    H125970   4.343   2.981   0.092  0.1346  0.8902 -2.9566
 1445TIP3    H225971   4.443   2.869   0.106 -1.2323 -0.0693  0.0446
 1446TIP3   OH225972   4.956   2.078   6.916  0.1176  0.4024 -0.4940
 1446TIP3    H125973   4.960   2.100   6.823  1.2359  0.3447 -0.4816
 1446TIP3    H225974   4.880   2.021   6.925 -0.8720  1.6027 -1.1084
 1447TIP3   OH225975   2.774   0.927   2.033 -0.0608 -0.1023  0.5952
 1447TIP3    H125976   2.841   0.978   1.989 -2.0353  1.5267 -0.6901
 1447TIP3    H225977   2.761   0.971   2.117  1.1154 -1.0104  1.2803
 1448TIP3   OH225978   6.155   6.051   8.175 -0.1686  0.0886  0.3977
 1448TIP3    H125979   6.243   6.028   8.204 -0.6272 -2.3394  0.1391
 1448TIP3    H225980   6.162   6.062   8.080 -0.2899 -1.0982  0.2371
 1449TIP3   OH225981   0.092   3.728   7.481  0.1206 -0.0255  0.0473
 1449TIP3    H125982   0.137   3.648   7.455  0.1094  0.5727 -1.9458
 1449TIP3    H225983   0.046   3.757   7.402 -0.2121  1.7211  0.8326
 1450TIP3   OH225984   6.447   4.162   7.491 -0.3452  0.1921 -0.2205
 1450TIP3    H125985   6.469   4.077   7.453 -0.6294 -0.6712  1.4531
 1450TIP3    H225986   6.530   4.197   7.523 -0.1090  0.9107 -1.5657
 1451TIP3   OH225987   0.267   3.142   7.878  0.1428 -0.4118 -0.2786
 1451TIP3    H125988   0.283   3.054   7.845  1.8510 -0.4494  0.5039
 1451TIP3    H225989   0.231   3.190   7.804 -1.2175 -1.8512 -0.5938
 1452TIP3   OH225990   0.690   0.523   8.421 -0.4830  0.0552  0.1609
 1452TIP3    H125991   0.643   0.600   8.453 -1.5275  0.4701 -2.1511
 1452TIP3    H225992   0.778   0.556   8.400 -1.1845  0.9118 -1.6558
 1453TIP3   OH225993   4.729   6.649   0.037 -0.0282  0.0735 -0.3344
 1453TIP3    H125994   4.718   6.594   0.114 -0.5898 -0.7426 -0.9713
 1453TIP3    H225995   4.822   6.673   0.037  0.7123 -2.4669 -1.0408
 1454TIP3   OH225996   2.240   5.170   8.899  0.2863  0.1935 -0.1688
 1454TIP3    H125997   2.260   5.167   8.806  4.2451  0.4397  0.4870
 1454TIP3    H225998   2.318   5.209   8.939 -1.2179  0.0522  3.2705
 1455TIP3   OH225999   6.650   4.140   0.344 -0.1396  0.3294  0.4928
 1455TIP3    H126000   6.739   4.169   0.325 -0.3345  0.4729 -0.2443
 1455TIP3    H226001   6.637   4.159   0.437  0.2042  1.3662  0.3393
 1456TIP3   OH226002   0.532   1.405   6.279 -0.5214  0.1030 -0.3303
 1456TIP3    H126003   0.556   1.336   6.217 -0.7940  0.0147 -0.3395
 1456TIP3    H226004   0.599   1.402   6.347 -0.5320 -0.1682 -0.3328
 1457TIP3   OH226005   0.030   0.474   7.936  0.1417  0.5269 -0.6409
 1457TIP3    H126006  -0.047   0.452   7.883 -0.1684  1.0425 -0.4050
 1457TIP3    H226007   0.034   0.405   8.002 -0.9815  1.2803  0.2561
 1458TIP3   OH226008   3.005   0.182   7.290 -0.5472  0.1679  0.1376
 1458TIP3    H126009   3.096   0.160   7.273 -1.0404 -1.4432 -0.6316
 1458TIP3    H226010   2.961   0.097   7.302 -1.8137  0.9288  1.2585
 1459TIP3   OH226011   2.554   2.256   6.640 -0.6423 -0.0919  0.2514
 1459TIP3    H126012   2.590   2.178   6.682  1.7215  0.0977 -1.2395
 1459TIP3    H226013   2.549   2.233   6.547 -1.0678  1.1392 -0.0494
 1460TIP3   OH226014   0.225   0.455   7.015  0.0033  0.2682 -0.2590
 1460TIP3    H126015   0.266   0.394   6.954  0.7391  0.0632  0.4120
 1460TIP3    H226016   0.134   0.425   7.021  0.2634 -0.5567 -0.2166
 1461TIP3   OH226017   1.239   5.989   6.950  0.2230 -0.1732  0.3623
 1461TIP3    H126018   1.259   6.045   7.026  1.1234 -0.9192  0.6837
 1461TIP3    H226019   1.252   5.900   6.982  0.5890 -0.5006 -0.6759
 1462TIP3   OH226020   6.738   1.551   1.234  0.7902 -0.2118 -0.2436
 1462TIP3    H126021   6.831   1.535   1.214  2.0747  2.4212  2.7777
 1462TIP3    H226022   6.703   1.591   1.154  2.7302  0.2703 -0.9068
 1463TIP3   OH226023   0.107   0.816   8.760 -0.5969 -0.3238  0.0963
 1463TIP3    H126024   0.061   0.848   8.838 -0.6288 -0.9757  0.3577
 1463TIP3    H226025   0.187   0.868   8.755 -1.9945  1.8415 -1.1846
 1464TIP3   OH226026   2.568   0.626   8.813 -0.0346  0.0771  0.1289
 1464TIP3    H126027   2.535   0.645   8.726  0.2155 -1.1455 -0.2550
 1464TIP3    H226028   2.523   0.545   8.838  0.8813 -0.3093  0.5737
 1465TIP3   OH226029   4.664   1.579   1.858 -0.1028 -0.0995 -0.6185
 1465TIP3    H126030   4.592   1.516   1.850 -0.5686  0.2105  0.7465
 1465TIP3    H226031   4.624   1.655   1.901  0.7753  0.5724 -0.9699
 1466TIP3   OH226032   1.328   6.716   7.697 -0.3750 -0.1826  0.1726
 1466TIP3    H126033   1.241   6.686   7.725  0.2349 -4.0484 -1.5052
 1466TIP3    H226034   1.329   6.702   7.602  1.5761  1.3943 -0.1140
 1467TIP3   OH226035   0.507   0.783   7.337 -0.1262 -0.2017 -0.5407
 1467TIP3    H126036   0.587   0.749   7.377 -1.0836 -1.5580  0.2670
 1467TIP3    H226037   0.475   0.711   7.283 -0.6385  0.4517 -1.1275
 1468TIP3   OH226038   1.298   0.994   8.763  0.9796 -0.2539  0.3030
 1468TIP3    H126039   1.346   0.954   8.836  1.7130  0.2672  0.1192
 1468TIP3    H226040   1.312   0.935   8.690 -0.6522 -1.3452  0.8284
 1469TIP3   OH226041   3.179   5.916   1.361  0.2482  0.1969 -0.1919
 1469TIP3    H126042   3.123   5.993   1.369  2.9315  2.1856  0.8762
 1469TIP3    H226043   3.227   5.912   1.444  0.0439 -2.8695 -0.0724
 1470TIP3   OH226044   2.964   1.563   7.690 -0.5887  0.3715 -0.2091
 1470TIP3    H126045   2.981   1.634   7.752 -0.9040  0.2781 -0.0182
 1470TIP3    H226046   2.906   1.602   7.624  2.3668  1.5243 -2.3741
 1471TIP3   OH226047   1.867   4.887   6.761  0.0429 -0.0105  0.1511
 1471TIP3    H126048   1.916   4.838   6.695 -1.9541 -2.7610  0.5074
 1471TIP3    H226049   1.777   4.856   6.751 -1.5716  4.1491  0.0851
 1472TIP3   OH226050   2.285   1.640   7.515  0.1121 -0.1595 -0.0667
 1472TIP3    H126051   2.269   1.723   7.560  0.1621  0.4723 -1.1528
 1472TIP3    H226052   2.340   1.665   7.440 -0.2269 -1.1121 -0.6430
 1473TIP3   OH226053   1.718   2.477   0.776  0.0364  0.0380 -0.3865
 1473TIP3    H126054   1.629   2.469   0.810 -0.4448  1.3572 -1.2589
 1473TIP3    H226055   1.732   2.572   0.769  1.7127 -0.1336  0.2416
 1474TIP3   OH226056   2.228   6.650   6.536 -0.0968 -0.4669 -0.5879
 1474TIP3    H126057   2.214   6.584   6.604  0.8491 -0.5290 -0.4344
 1474TIP3    H226058   2.295   6.611   6.479  0.4711  0.3539 -0.4942
 1475TIP3   OH226059   4.620   1.412   1.037 -0.2461 -0.5061  0.2544
 1475TIP3    H126060   4.545   1.463   1.006 -0.1771  1.0001  2.3407
 1475TIP3    H226061   4.621   1.334   0.982 -2.2028  0.3287 -1.0578
 1476TIP3   OH226062   6.625   0.120   0.631 -0.1346  0.2124 -0.7326
 1476TIP3    H126063   6.620   0.151   0.722  0.9908 -0.6852 -0.3454
 1476TIP3    H226064   6.564   0.046   0.628  0.1397 -0.0185 -0.5987
 1477TIP3   OH226065   0.491   1.288   8.337  0.0115  0.2146  0.2621
 1477TIP3    H126066   0.576   1.309   8.376  0.3004  1.6574 -1.0602
 1477TIP3    H226067   0.431   1.288   8.412  1.0296 -0.0681  1.1101
 1478TIP3   OH226068   3.684   6.650   8.201 -0.1523  0.4413 -0.7069
 1478TIP3    H126069   3.712   6.658   8.110 -0.1508  2.9180 -0.5609
 1478TIP3    H226070   3.589   6.658   8.198 -0.0830  1.6534 -0.4527
 1479TIP3   OH226071   6.500   0.416   0.209 -0.0349 -0.0857  0.5882
 1479TIP3    H126072   6.419   0.445   0.167 -1.6317 -0.0639  3.4010
 1479TIP3    H226073   6.473   0.346   0.268  2.0525 -0.2936  1.3808
 1480TIP3   OH226074   4.374   2.276   2.192 -0.2818  0.1717  0.1263
 1480TIP3    H126075   4.419   2.192   2.207  0.8955  0.4207 -1.6920
 1480TIP3    H226076   4.396   2.328   2.269 -1.5768 -1.3566  1.6258
 1481TIP3   OH226077   6.372   0.206   2.404 -0.2999 -0.0902 -0.2439
 1481TIP3    H126078   6.341   0.288   2.443 -1.1352 -0.1030 -0.8610
 1481TIP3    H226079   6.417   0.232   2.324  1.0082 -0.1031  0.4645
 1482TIP3   OH226080   1.927   1.705   0.826 -0.2553 -0.0649  0.3380
 1482TIP3    H126081   2.011   1.712   0.780 -0.8357 -0.6985 -0.8585
 1482TIP3    H226082   1.950   1.666   0.910  0.9482  1.9583  1.0287
 1483TIP3   OH226083   0.877   3.125   7.086 -0.1259 -0.0109 -0.0002
 1483TIP3    H126084   0.814   3.094   7.151 -0.6562  0.1577 -0.4257
 1483TIP3    H226085   0.859   3.218   7.078  1.0096  0.2950  0.7728
 1484TIP3   OH226086   4.370   4.577   7.513 -0.1588 -0.4123  0.8587
 1484TIP3    H126087   4.364   4.503   7.452  0.7050 -0.9583  1.4264
 1484TIP3    H226088   4.337   4.543   7.596  4.6320 -1.7657  2.5054
 1485TIP3   OH226089   4.236   0.289   8.918 -0.1674  0.3595  1.1898
 1485TIP3    H126090   4.310   0.231   8.902 -0.6119 -0.5029  2.0938
 1485TIP3    H226091   4.258   0.334   9.000 -0.2603  0.7433  1.0067
 1486TIP3   OH226092   4.825   1.983   0.980  0.3700  0.7514 -0.2976
 1486TIP3    H126093   4.875   1.953   1.056 -0.1716  1.9327  0.5560
 1486TIP3    H226094   4.745   1.932   0.982  0.5685  0.4348 -0.3636
 1487TIP3   OH226095   0.282   0.901   7.444  0.2135  0.6079  0.5031
 1487TIP3    H126096   0.267   0.835   7.512  0.8055  0.1661  0.2127
 1487TIP3    H226097   0.364   0.875   7.403 -0.7956  0.0583 -1.2972
 1488TIP3   OH226098   3.842   4.502   1.180  0.2725 -0.4602  0.3171
 1488TIP3    H126099   3.848   4.550   1.097 -0.7867 -0.7735  0.0431
 1488TIP3    H226100   3.751   4.475   1.185 -0.1111  1.0799  2.4593
 1489TIP3   OH226101   0.933   3.943   1.016 -0.2918  0.2783  0.4303
 1489TIP3    H126102   0.959   3.866   1.066  1.4131 -0.8458 -1.9874
 1489TIP3    H226103   0.971   4.017   1.062  1.7043 -0.7636  0.5256
 1490TIP3   OH226104   5.878   6.731   7.683  0.1738 -0.0760 -0.2061
 1490TIP3    H126105   5.849   6.699   7.598  0.5484 -0.4174 -0.2104
 1490TIP3    H226106   5.927   6.811   7.662  0.1770 -0.1025 -0.3042
 1491TIP3   OH226107   4.663   5.689   0.966  0.0393 -0.4319 -0.0839
 1491TIP3    H126108   4.673   5.748   1.041 -2.1336  1.1865 -0.9600
 1491TIP3    H226109   4.583   5.640   0.984 -1.5965  1.3066 -2.0733
 1492TIP3   OH226110   3.033   3.558   1.702  0.6021  0.2517  0.8445
 1492TIP3    H126111   3.046   3.527   1.792 -0.2481 -0.5459  0.7074
 1492TIP3    H226112   2.938   3.568   1.693  0.5513 -1.0264 -0.3852
 1493TIP3   OH226113   4.880   6.520   2.490 -0.5757 -0.6530  0.2676
 1493TIP3    H126114   4.958   6.555   2.533 -0.8175  1.2042 -0.7108
 1493TIP3    H226115   4.892   6.425   2.491  0.7546 -0.5118  1.8518
 1494TIP3   OH226116   6.150   3.955   1.516  0.3138 -0.1821 -0.2662
 1494TIP3    H126117   6.240   3.984   1.524  0.5856 -1.4120  2.0349
 1494TIP3    H226118   6.143   3.922   1.426  1.9875  0.4138 -0.6413
 1495TIP3   OH226119   3.692   3.632   8.922 -0.3464 -0.8373  0.3787
 1495TIP3    H126120   3.605   3.603   8.896 -0.6004  0.3409 -0.1827
 1495TIP3    H226121   3.676   3.701   8.986  0.2296 -1.7768  1.5644
 1496TIP3   OH226122   2.144   4.639   1.320  0.0363 -0.3888  0.1388
 1496TIP3    H126123   2.093   4.718   1.302  0.4650 -0.3852 -1.1894
 1496TIP3    H226124   2.191   4.623   1.239  1.6718 -0.7512  1.1176
 1497TIP3   OH226125   0.313   0.795   1.173 -0.2229 -0.0195  0.4113
 1497TIP3    H126126   0.389   0.747   1.204  0.7846  0.4945 -1.1404
 1497TIP3    H226127   0.310   0.777   1.079 -1.3170  0.9228  0.2430
 1498TIP3   OH226128   1.123   3.344   1.542 -0.2339  0.4955 -0.5546
 1498TIP3    H126129   1.079   3.371   1.623  2.2893  0.1463  1.0629
 1498TIP3    H226130   1.132   3.249   1.550  0.2695  0.4871 -1.1099
 1499TIP3   OH226131   5.944   5.944   7.385  0.4440  0.1708 -0.1152
 1499TIP3    H126132   5.967   5.854   7.362  0.2931 -0.2837  1.4021
 1499TIP3    H226133   5.849   5.943   7.398  0.5676  0.2905  0.9069
 1500TIP3   OH226134   3.804   2.998   6.278 -0.3673 -0.1771  0.5601
 1500TIP3    H126135   3.715   2.979   6.250 -0.2580 -0.7810  0.6135
 1500TIP3    H226136   3.841   2.913   6.300  0.4375 -0.0041 -0.0782
 1501TIP3   OH226137   0.019   3.137   1.613 -0.2892  0.4614  0.4026
 1501TIP3    H126138   0.054   3.212   1.662  0.0954  1.0911 -0.7924
 1501TIP3    H226139  -0.010   3.076   1.681  2.1486  0.3456  1.4823
 1502TIP3   OH226140   0.159   4.239   6.302  0.0320  0.2173  0.4397
 1502TIP3    H126141   0.066   4.246   6.280 -0.0074  1.9922  0.9501
 1502TIP3    H226142   0.162   4.177   6.375 -0.3613 -2.1220 -1.4208
 1503TIP3   OH226143   1.153   2.978   8.460 -0.4602  0.1149  0.2722
 1503TIP3    H126144   1.186   2.892   8.433  0.2535  0.7793 -1.0622
 1503TIP3    H226145   1.166   3.034   8.384 -0.8364  1.4381  1.1426
 1504TIP3   OH226146   0.826   6.599   0.145  0.4222 -0.1265 -0.5578
 1504TIP3    H126147   0.907   6.651   0.148  0.0157  0.4911 -0.1760
 1504TIP3    H226148   0.775   6.638   0.074  1.3259 -1.8428 -2.2590
 1505TIP3   OH226149   1.340   5.269   0.587 -0.0211 -0.2375  0.3006
 1505TIP3    H126150   1.362   5.315   0.506 -1.1510 -1.0272 -0.4760
 1505TIP3    H226151   1.410   5.294   0.648 -0.5161  2.3823 -0.1050
 1506TIP3   OH226152   1.785   2.195   9.004 -0.0014 -0.4670 -0.1931
 1506TIP3    H126153   1.794   2.186   9.099  1.3569  1.1146 -0.1205
 1506TIP3    H226154   1.846   2.266   8.981 -0.5802 -0.5620 -2.1965
 1507TIP3   OH226155   0.552   4.317   0.899 -0.1162  0.1750 -0.3166
 1507TIP3    H126156   0.464   4.284   0.883 -0.3361  0.5543  0.0919
 1507TIP3    H226157   0.591   4.254   0.960 -0.2437  0.2313 -0.1798
 1508TIP3   OH226158   6.148   1.231   0.071 -0.1426  0.0290  0.1095
 1508TIP3    H126159   6.203   1.255   0.145  0.1235  1.5528 -0.5476
 1508TIP3    H226160   6.153   1.136   0.068 -1.0130 -0.1885  2.6777
 1509TIP3   OH226161   5.925   5.008   2.122 -0.0625  0.1934  0.4972
 1509TIP3    H126162   5.967   4.922   2.118  1.6886  0.9493  1.4677
 1509TIP3    H226163   5.951   5.044   2.207 -2.6183  0.8003  1.0958
 1510TIP3   OH226164   5.576   2.213   1.649 -0.5110 -0.0365 -0.6132
 1510TIP3    H126165   5.600   2.252   1.565  0.9976 -1.9512 -1.1469
 1510TIP3    H226166   5.593   2.119   1.638 -0.2238 -0.3485  1.8306
 1511TIP3   OH226167   1.998   1.832   0.041 -0.0111  0.1648  0.4645
 1511TIP3    H126168   1.904   1.814   0.044 -0.0530  0.2490 -0.1239
 1511TIP3    H226169   2.009   1.886  -0.037  0.3267  1.4363  1.3553
 1512TIP3   OH226170   0.032   1.456   7.011  0.3609 -0.0566 -0.2386
 1512TIP3    H126171  -0.026   1.516   6.964 -0.0459  0.3544  0.7441
 1512TIP3    H226172   0.005   1.369   6.983  1.9114  0.1794 -2.7999
 1513TIP3   OH226173   6.389   1.242   8.946 -0.5262  0.1249 -0.1963
 1513TIP3    H126174   6.356   1.179   9.010  3.3865 -1.7034  0.3370
 1513TIP3    H226175   6.401   1.323   8.996  0.9254 -0.8140  1.0885
 1514TIP3   OH226176   2.003   1.118   8.047 -0.6357 -0.3689  0.3244
 1514TIP3    H126177   2.086   1.099   8.093 -0.9355 -3.0846 -0.1009
 1514TIP3    H226178   2.022   1.098   7.955 -1.2773  0.7680 -0.0645
 1515TIP3   OH226179   0.444   3.995   2.478  0.0869  0.2940  0.9071
 1515TIP3    H126180   0.530   3.995   2.435 -1.9356  5.1324 -4.2521
 1515TIP3    H226181   0.450   4.066   2.542 -0.4688  2.0679 -0.9234
 1516TIP3   OH226182   4.620   5.445   8.982 -0.0901  0.4233  0.1653
 1516TIP3    H126183   4.693   5.506   8.983 -0.1208  0.4874 -0.6217
 1516TIP3    H226184   4.658   5.362   8.954 -0.5773  0.8703 -2.0845
 1517TIP3   OH226185   1.831   4.215   7.723 -0.4277  0.6475 -0.2402
 1517TIP3    H126186   1.890   4.143   7.703 -1.2113  0.4295 -1.9066
 1517TIP3    H226187   1.885   4.294   7.712 -0.0149  0.3904 -0.0958
 1518TIP3   OH226188   0.754   1.329   8.457  0.2945 -0.4112 -0.3946
 1518TIP3    H126189   0.832   1.378   8.483  0.8395  0.0306 -2.5956
 1518TIP3    H226190   0.789   1.252   8.411 -0.5278 -0.1520 -1.5056
 1519TIP3   OH226191   4.162   0.341   0.420  0.2617  0.2582  0.0217
 1519TIP3    H126192   4.162   0.436   0.409 -0.3010  0.5202  1.8172
 1519TIP3    H226193   4.076   0.313   0.389  1.1063  0.0241 -2.3019
 1520TIP3   OH226194   5.334   0.183   7.506  0.1114 -0.2410 -0.0982
 1520TIP3    H126195   5.358   0.238   7.431 -2.2699  0.6994 -0.2618
 1520TIP3    H226196   5.309   0.099   7.468 -0.6901  0.0973 -0.3333
 1521TIP3   OH226197   0.216   5.978   8.938  0.3668 -0.0726  0.1335
 1521TIP3    H126198   0.224   5.992   9.032  1.4486  1.9369 -0.2008
 1521TIP3    H226199   0.122   5.983   8.921  0.1458 -0.6395  1.1196
 1522TIP3   OH226200   0.310   0.299   8.390 -0.4253  0.4005  0.2124
 1522TIP3    H126201   0.306   0.372   8.452 -0.3279  0.3066  0.3302
 1522TIP3    H226202   0.369   0.328   8.321  1.8524 -0.5997  1.6329
 1523TIP3   OH226203   2.947   2.249   0.514  0.4431 -0.6177 -0.0822
 1523TIP3    H126204   2.999   2.238   0.594  0.1108  0.5099  0.3037
 1523TIP3    H226205   2.874   2.304   0.541  0.2984 -0.2711 -1.1596
 1524TIP3   OH226206   2.425   4.692   1.461 -0.1046 -0.2665  0.2875
 1524TIP3    H126207   2.468   4.612   1.492  0.6445  0.3729  0.9255
 1524TIP3    H226208   2.445   4.695   1.367 -1.0774 -1.3979  0.0158
 1525TIP3   OH226209   2.021   1.804   7.717 -0.0650  0.2785 -0.3068
 1525TIP3    H126210   2.022   1.802   7.621  1.8806  0.1274 -0.3167
 1525TIP3    H226211   1.928   1.809   7.740 -0.6444 -0.9408 -2.1711
 1526TIP3   OH226212   4.458   0.561   1.008  0.6450 -0.2464 -0.1014
 1526TIP3    H126213   4.476   0.651   0.984  1.2383 -0.1496  0.6548
 1526TIP3    H226214   4.489   0.554   1.099  2.2131 -1.6501 -0.6882
 1527TIP3   OH226215   3.779   2.386   0.608  0.3518  0.3497  0.7899
 1527TIP3    H126216   3.852   2.328   0.587 -0.7253 -0.7070 -0.2148
 1527TIP3    H226217   3.739   2.406   0.523 -1.1730  0.0021  1.3802
 1528TIP3   OH226218   1.152   2.655   0.086 -0.5479 -0.0895  0.2819
 1528TIP3    H126219   1.108   2.570   0.081 -0.9431  0.1359 -0.1450
 1528TIP3    H226220   1.240   2.639   0.052 -0.8606 -0.1733 -0.5060
 1529TIP3   OH226221   3.604   3.056   6.025 -0.2599  0.7046 -0.4181
 1529TIP3    H126222   3.572   3.025   6.110  0.0100 -1.0313 -0.9309
 1529TIP3    H226223   3.548   3.014   5.961 -0.7745  2.3784 -1.1336
 1530TIP3   OH226224   6.409   4.788   1.149  0.2352  0.3873  0.2037
 1530TIP3    H126225   6.410   4.707   1.098 -0.4387  0.7897 -0.4613
 1530TIP3    H226226   6.401   4.759   1.240  3.1610 -0.4155  0.3036
 1531TIP3   OH226227   4.767   4.833   7.558 -0.2735 -0.0728  0.0816
 1531TIP3    H126228   4.673   4.851   7.566 -0.2774  0.6019 -1.2285
 1531TIP3    H226229   4.806   4.917   7.538  0.6634 -0.3072  0.8848
 1532TIP3   OH226230   3.024   3.937   1.007  0.1357 -0.4960 -0.0190
 1532TIP3    H126231   2.949   3.969   1.057 -0.6917 -0.1150 -1.4448
 1532TIP3    H226232   3.093   4.002   1.023 -1.2212  1.6431 -2.1026
 1533TIP3   OH226233   4.026   2.159   7.223 -0.0122  0.1341 -0.3137
 1533TIP3    H126234   3.978   2.171   7.142  0.1253 -1.3681 -0.6353
 1533TIP3    H226235   4.059   2.069   7.220  0.2406  0.1333  1.2708
 1534TIP3   OH226236   5.241   2.598   7.241  0.0177 -0.1589  0.1259
 1534TIP3    H126237   5.233   2.602   7.146 -1.5526 -0.2644  0.2300
 1534TIP3    H226238   5.246   2.505   7.261 -1.6368 -0.2490  0.2526
 1535TIP3   OH226239   4.559   5.501   7.716 -0.1200  0.2257  0.1310
 1535TIP3    H126240   4.534   5.590   7.739 -1.8527 -0.5720  1.6110
 1535TIP3    H226241   4.507   5.445   7.775  0.1027 -1.7955 -1.4517
 1536TIP3   OH226242   4.625   2.576   2.212  0.1696 -0.3025 -0.2964
 1536TIP3    H126243   4.648   2.668   2.223  1.6204 -0.1869 -3.3406
 1536TIP3    H226244   4.590   2.570   2.123 -0.2347 -2.6414 -0.0561
 1537TIP3   OH226245   5.644   4.925   7.198  0.1246 -0.1243 -0.5008
 1537TIP3    H126246   5.737   4.937   7.177  0.4066  3.8526  2.0630
 1537TIP3    H226247   5.606   5.012   7.193 -3.2140 -1.3948 -0.0866
 1538TIP3   OH226248   3.931   2.950   8.727  1.0000  0.0748  0.4952
 1538TIP3    H126249   3.956   3.002   8.804  0.3190  1.8317 -0.4231
 1538TIP3    H226250   3.858   2.896   8.758  0.5759  0.9307  1.0403
 1539TIP3   OH226251   1.501   5.248   1.881 -0.0144  0.2176 -0.2007
 1539TIP3    H126252   1.516   5.184   1.951 -1.6858 -1.8485 -1.6175
 1539TIP3    H226253   1.543   5.211   1.804 -2.8043 -0.3365 -1.5698
 1540TIP3   OH226254   5.727   3.446   7.956  0.0746 -0.2254  0.3702
 1540TIP3    H126255   5.808   3.466   7.909  0.5271  0.0164  1.2341
 1540TIP3    H226256   5.679   3.529   7.957 -1.8495 -1.1068 -3.1800
 1541TIP3   OH226257   1.571   3.580   7.231  0.3116  0.0814  0.4417
 1541TIP3    H126258   1.554   3.486   7.229 -1.4182  0.3329  1.1128
 1541TIP3    H226259   1.507   3.617   7.170  0.3417  0.8910  0.8844
 1542TIP3   OH226260   6.707   2.773   7.126 -0.1787 -0.8272  0.0495
 1542TIP3    H126261   6.684   2.763   7.033 -2.7223 -2.6610  0.7561
 1542TIP3    H226262   6.769   2.704   7.144 -2.0946 -2.5793  0.3210
 1543TIP3   OH226263   0.285   1.702   0.996 -0.7843  0.0310  0.2951
 1543TIP3    H126264   0.224   1.679   0.926  0.5911 -0.0836 -0.9039
 1543TIP3    H226265   0.299   1.796   0.985 -1.7572  0.3340  1.4248
 1544TIP3   OH226266   2.827   6.203   9.010 -1.2900 -0.4091  0.9513
 1544TIP3    H126267   2.776   6.260   8.952 -2.3149 -2.6385 -0.4842
 1544TIP3    H226268   2.816   6.241   9.097 -1.4484  1.8614  0.0173
 1545TIP3   OH226269   5.779   6.449   8.706  0.5110 -0.4026 -0.2808
 1545TIP3    H126270   5.854   6.505   8.686  0.6884 -0.1855  0.9571
 1545TIP3    H226271   5.706   6.489   8.658  0.7623  0.5434  0.1071
 1546TIP3   OH226272   3.545   5.286   8.585 -0.0104  0.5944  0.7264
 1546TIP3    H126273   3.482   5.331   8.642 -0.3759 -0.0776  0.8679
 1546TIP3    H226274   3.574   5.211   8.637 -0.7701 -0.3454 -0.1654
 1547TIP3   OH226275   5.765   2.311   1.831 -0.2984 -0.3027 -0.4596
 1547TIP3    H126276   5.709   2.233   1.820  0.1731 -0.5178 -1.4694
 1547TIP3    H226277   5.763   2.354   1.745  2.5486 -1.3286 -1.1678
 1548TIP3   OH226278   1.316   5.064   7.610  0.1514 -0.2268  0.1982
 1548TIP3    H126279   1.301   4.993   7.671 -2.7047 -1.3794 -1.6524
 1548TIP3    H226280   1.228   5.091   7.582  1.2535  0.7336 -2.7654
 1549TIP3   OH226281   0.362   2.004   7.225  0.2409  0.1162 -0.2376
 1549TIP3    H126282   0.298   1.937   7.247  1.4448 -0.6539  1.0535
 1549TIP3    H226283   0.396   1.976   7.140 -0.8421  0.3369 -0.7632
 1550TIP3   OH226284   1.718   1.000   1.561  0.1307 -0.4704 -0.4297
 1550TIP3    H126285   1.692   1.004   1.653 -2.1873  1.8183 -1.0916
 1550TIP3    H226286   1.814   0.996   1.564  0.0738 -1.5711  2.0642
 1551TIP3   OH226287   1.208   2.272   8.789  0.0273  0.1663 -0.1217
 1551TIP3    H126288   1.255   2.352   8.811 -0.3380  0.2438  0.3750
 1551TIP3    H226289   1.165   2.245   8.870  0.0567 -0.4758 -0.3083
 1552TIP3   OH226290   0.736   5.949   7.827  0.5083  0.1114  0.3583
 1552TIP3    H126291   0.809   5.893   7.852  0.8201  0.9105  1.3080
 1552TIP3    H226292   0.711   5.995   7.908 -0.8012  0.1415 -0.0268
 1553TIP3   OH226293   3.257   6.082   7.843  0.1515  0.1744  0.6193
 1553TIP3    H126294   3.191   6.047   7.783  1.0250 -1.6253  0.6405
 1553TIP3    H226295   3.213   6.082   7.929 -0.1326 -0.1014  0.4743
 1554TIP3   OH226296   6.081   2.898   0.788  0.1399  0.2364  0.7404
 1554TIP3    H126297   6.147   2.903   0.857  1.1159  1.5055 -0.2167
 1554TIP3    H226298   6.132   2.899   0.707 -0.8701 -2.9155 -0.0607
 1555TIP3   OH226299   5.898   0.815   0.282 -0.1426  0.2295 -0.3981
 1555TIP3    H126300   5.980   0.796   0.237  0.9990 -1.8600  2.3041
 1555TIP3    H226301   5.917   0.894   0.333  0.1329 -0.1157  0.0403
 1556TIP3   OH226302   0.223   1.459   2.319  0.3055 -0.8046  0.6915
 1556TIP3    H126303   0.170   1.381   2.337  1.0894 -1.9268 -1.5186
 1556TIP3    H226304   0.161   1.520   2.278  0.7462 -2.6588 -3.2746
 1557TIP3   OH226305   1.998   5.458   6.920  0.6301  0.3927  0.1921
 1557TIP3    H126306   1.947   5.488   6.844  0.5974 -0.5786 -0.1878
 1557TIP3    H226307   1.942   5.393   6.962  1.3582 -0.3409  0.0428
 1558TIP3   OH226308   6.616   3.801   0.975 -0.0088 -0.2308 -0.8406
 1558TIP3    H126309   6.558   3.857   0.924 -0.1349 -0.5071 -1.0044
 1558TIP3    H226310   6.558   3.736   1.014  0.2078 -0.6212 -1.1595
 1559TIP3   OH226311   1.745   3.582   6.423 -0.2764  0.2568  0.3043
 1559TIP3    H126312   1.693   3.654   6.459 -0.6700  1.2950 -2.1111
 1559TIP3    H226313   1.695   3.553   6.346  1.1601 -0.8532 -0.2555
 1560TIP3   OH226314   4.235   5.575   6.334  0.4603 -0.5290  0.8786
 1560TIP3    H126315   4.161   5.588   6.275  0.0734 -1.5180  1.1196
 1560TIP3    H226316   4.238   5.655   6.386  0.7873  0.3401 -0.4423
 1561TIP3   OH226317   4.044   1.617   8.231  0.4781 -0.5647 -0.1584
 1561TIP3    H126318   3.968   1.588   8.282  0.1422  0.6928  0.0741
 1561TIP3    H226319   4.025   1.708   8.209  1.5417 -0.4903 -0.8313
 1562TIP3   OH226320   6.071   3.827   7.859  0.0461  0.3014  0.0428
 1562TIP3    H126321   6.081   3.922   7.870  1.5517  0.0110  1.5929
 1562TIP3    H226322   6.088   3.812   7.766  1.0914  1.4220  0.0259
 1563TIP3   OH226323   0.450   0.230   8.992  0.4918  0.0674 -0.4518
 1563TIP3    H126324   0.379   0.247   9.055 -2.2852  0.0965 -3.3372
 1563TIP3    H226325   0.450   0.135   8.981 -0.2327  0.1847 -1.6066
 1564TIP3   OH226326   1.579   6.242   8.002  0.0808 -0.0049  0.0858
 1564TIP3    H126327   1.624   6.326   7.990 -0.3838  0.3648  0.8980
 1564TIP3    H226328   1.591   6.221   8.094  0.9797 -1.2987 -0.2917
 1565TIP3   OH226329   3.243   5.729   8.182  0.2134 -0.3360 -0.2694
 1565TIP3    H126330   3.236   5.719   8.087  0.2323  0.3711 -0.3482
 1565TIP3    H226331   3.157   5.704   8.215  0.8838 -2.9068 -0.2476
 1566TIP3   OH226332   1.007   4.479   0.305 -0.0387  0.1447 -0.3207
 1566TIP3    H126333   1.053   4.448   0.227  0.6738  0.3625  0.0045
 1566TIP3    H226334   0.987   4.571   0.287  0.6991  0.3766  0.0035
 1567TIP3   OH226335   2.264   5.028   7.578  0.6650  0.6989  0.1068
 1567TIP3    H126336   2.359   5.021   7.570  0.6819  1.4426 -0.4835
 1567TIP3    H226337   2.250   5.106   7.631  0.4186 -1.3517  3.3470
 1568TIP3   OH226338   5.037   2.107   8.727  0.4828  0.1080 -0.0163
 1568TIP3    H126339   5.114   2.106   8.783  0.3741  3.5305  0.3892
 1568TIP3    H226340   5.073   2.116   8.638  0.5509 -2.1559 -0.2913
 1569TIP3   OH226341   2.181   1.731   8.788  0.2195  0.0405 -0.1762
 1569TIP3    H126342   2.235   1.779   8.851  1.5966  0.3678 -1.5287
 1569TIP3    H226343   2.102   1.784   8.779  0.4891  0.5665  0.4361
 1570TIP3   OH226344   0.160   4.754   2.763 -0.4529  0.2400 -0.0318
 1570TIP3    H126345   0.237   4.762   2.707 -1.1096 -0.9098 -1.1535
 1570TIP3    H226346   0.093   4.808   2.719 -0.5329  0.5533  0.4729
 1571TIP3   OH226347   4.360   4.447   1.137  0.6191 -0.0675 -0.0695
 1571TIP3    H126348   4.296   4.504   1.181 -0.3958 -1.7354  0.7171
 1571TIP3    H226349   4.309   4.401   1.071  1.8721  1.4318 -2.1898
 1572TIP3   OH226350   3.011   2.128   6.944 -0.0749  0.3025 -0.0556
 1572TIP3    H126351   2.947   2.196   6.966  0.0340  0.5754 -0.5634
 1572TIP3    H226352   3.085   2.176   6.907  0.5632  0.0112  0.8361
 1573TIP3   OH226353   1.180   2.476   7.321 -0.4124  0.1068  0.4509
 1573TIP3    H126354   1.130   2.418   7.379  1.9109 -2.0619  0.4474
 1573TIP3    H226355   1.146   2.457   7.233 -1.0187  0.2656  0.6427
 1574TIP3   OH226356   5.010   1.114   0.463 -0.3242 -0.0668  0.1261
 1574TIP3    H126357   4.980   1.204   0.476  1.5936  0.2876  2.9936
 1574TIP3    H226358   5.079   1.122   0.396 -1.2660  0.2721 -0.8433
 1575TIP3   OH226359   3.039   3.044   1.313 -0.3309 -0.4227 -0.0351
 1575TIP3    H126360   3.088   2.981   1.364 -1.3194  0.4490  2.1040
 1575TIP3    H226361   2.958   2.998   1.289 -1.6722  0.3138  2.6736
 1576TIP3   OH226362   2.994   5.523   7.927 -0.3327  0.1066 -0.0516
 1576TIP3    H126363   3.070   5.581   7.929  1.1580 -1.7488 -0.2926
 1576TIP3    H226364   3.009   5.461   7.998 -3.4347  1.7489  2.2993
 1577TIP3   OH226365   3.738   1.519   0.989  0.1654  0.1540 -0.5287
 1577TIP3    H126366   3.747   1.599   0.936  3.8640  0.7657  0.6739
 1577TIP3    H226367   3.759   1.548   1.078  0.1840 -1.9327  0.1862
 1578TIP3   OH226368   0.519   3.862   0.188  0.0469 -0.2067  0.3680
 1578TIP3    H126369   0.504   3.830   0.099  1.4279  0.2075 -0.0333
 1578TIP3    H226370   0.584   3.803   0.225  2.0246  1.5385 -0.1054
 1579TIP3   OH226371   3.929   3.545   8.466 -0.1445 -0.2383 -0.0766
 1579TIP3    H126372   3.854   3.485   8.458 -1.0367  0.3298  2.6923
 1579TIP3    H226373   3.906   3.620   8.411 -1.5621 -0.1658  0.5688
 1580TIP3   OH226374   0.299   1.504   7.025  0.0452  0.1277 -0.4158
 1580TIP3    H126375   0.337   1.424   7.059  2.7821  1.4409 -0.1306
 1580TIP3    H226376   0.205   1.492   7.036  0.4478 -2.3270  1.1860
 1581TIP3   OH226377   0.505   4.724   6.681 -0.0594 -0.4955 -0.1000
 1581TIP3    H126378   0.414   4.741   6.657  0.1374 -2.6794 -2.9658
 1581TIP3    H226379   0.501   4.654   6.746 -0.4289  0.6534  1.1480
 1582TIP3   OH226380   3.781   4.506   8.129 -0.2383 -0.7096  0.2489
 1582TIP3    H126381   3.745   4.465   8.050  0.3747 -2.8252  0.9968
 1582TIP3    H226382   3.868   4.535   8.103 -1.2576  1.7508 -0.7388
 1583TIP3   OH226383   3.646   4.397   6.784 -0.0859 -0.2595  0.2250
 1583TIP3    H126384   3.577   4.361   6.729 -0.4770  0.2254  0.3881
 1583TIP3    H226385   3.717   4.419   6.724 -0.3177 -0.1923 -0.0243
 1584TIP3   OH226386   1.509   1.571   0.142  0.1786  0.1002  0.0157
 1584TIP3    H126387   1.501   1.548   0.235 -0.4460  0.3493  0.0267
 1584TIP3    H226388   1.532   1.488   0.100 -1.1191 -0.3791  0.1874
 1585TIP3   OH226389   0.151   3.300   8.593 -0.6224  0.4067 -0.0506
 1585TIP3    H126390   0.193   3.382   8.618 -1.4424  0.5551  0.9388
 1585TIP3    H226391   0.169   3.290   8.500  1.1931  0.6743  0.2512
 1586TIP3   OH226392   3.311   4.357   7.065 -0.2349 -0.0882 -0.0615
 1586TIP3    H126393   3.297   4.364   7.160 -1.6298 -0.5210 -0.2135
 1586TIP3    H226394   3.223   4.358   7.028  0.2975  0.1454 -1.3715
 1587TIP3   OH226395   4.351   5.073   1.317 -0.2641 -0.0413  0.6123
 1587TIP3    H126396   4.394   5.099   1.398 -0.2429 -1.8355  1.2172
 1587TIP3    H226397   4.287   5.007   1.344 -1.9140  1.0005 -0.5449
 1588TIP3   OH226398   2.173   6.600   8.250 -0.4095  1.0903  0.0644
 1588TIP3    H126399   2.232   6.537   8.209 -0.2780  1.0068  0.3724
 1588TIP3    H226400   2.089   6.554   8.255  0.5101 -0.5910  3.6627
 1589TIP3   OH226401   2.607   4.491   1.008  0.5071 -0.1705 -0.3428
 1589TIP3    H126402   2.591   4.479   0.915  2.5816 -1.2138 -0.6115
 1589TIP3    H226403   2.551   4.426   1.051 -0.9333  0.7350 -0.7678
 1590TIP3   OH226404   0.300   6.415   1.556  0.3189  0.1577 -0.5234
 1590TIP3    H126405   0.286   6.480   1.487 -0.0893 -0.4973 -1.0783
 1590TIP3    H226406   0.359   6.457   1.617  0.0891  1.0380 -0.8879
 1591TIP3   OH226407   4.833   4.530   1.605  0.2137  0.4527 -0.4569
 1591TIP3    H126408   4.753   4.480   1.594  0.1041  0.3770  0.5372
 1591TIP3    H226409   4.893   4.496   1.538 -0.1272 -0.4579 -0.3134
 1592TIP3   OH226410   3.863   5.084   8.302 -0.3113  0.3938  0.8213
 1592TIP3    H126411   3.774   5.073   8.268 -0.7156 -0.0146  1.9772
 1592TIP3    H226412   3.904   4.998   8.293  0.3439  0.8293 -0.6814
 1593TIP3   OH226413   0.025   5.750   1.123 -0.5664 -0.3574 -0.7027
 1593TIP3    H126414   0.001   5.761   1.215 -1.8699 -0.2750 -1.0339
 1593TIP3    H226415  -0.010   5.665   1.099  1.1098 -1.0771 -0.7362
 1594TIP3   OH226416   0.867   1.922   1.641  0.1264  0.5462 -0.0930
 1594TIP3    H126417   0.886   1.868   1.565 -0.0337  0.1110  0.1726
 1594TIP3    H226418   0.943   1.910   1.699 -0.0335  0.3772  0.0877
 1595TIP3   OH226419   1.322   1.304   1.602  0.0800 -0.6134  0.2281
 1595TIP3    H126420   1.371   1.375   1.559  0.2877 -0.5698  0.5276
 1595TIP3    H226421   1.242   1.295   1.551  1.0624 -1.7055 -1.1871
 1596TIP3   OH226422   3.258   4.953   6.827 -0.1718  0.5941  0.2313
 1596TIP3    H126423   3.202   5.013   6.875 -0.7789 -0.3714  0.7508
 1596TIP3    H226424   3.344   4.996   6.825 -0.6691  1.6095  0.3175
 1597TIP3   OH226425   1.807   3.369   8.301 -0.2909  0.0453  0.3417
 1597TIP3    H126426   1.749   3.377   8.377 -0.1204  0.8217  0.3941
 1597TIP3    H226427   1.889   3.335   8.338 -1.0406 -2.2169  0.1029
 1598TIP3   OH226428   0.829   6.632   1.285  0.7363 -0.0157  0.3116
 1598TIP3    H126429   0.791   6.678   1.211  0.4673  0.0442  0.4854
 1598TIP3    H226430   0.922   6.624   1.264  0.6876  0.1391  0.0413
 1599TIP3   OH226431   4.245   3.842   1.267  0.2478 -0.2058 -0.4221
 1599TIP3    H126432   4.261   3.865   1.358  3.3304 -2.0480 -0.3668
 1599TIP3    H226433   4.289   3.910   1.216  3.3453 -1.9767 -0.3413
 1600TIP3   OH226434   4.695   3.680   0.974  0.0804 -0.1164 -0.0109
 1600TIP3    H126435   4.602   3.662   0.962  0.3024 -2.0908  0.8661
 1600TIP3    H226436   4.701   3.719   1.061  0.1177 -0.4130  0.1199
 1601TIP3   OH226437   2.052   4.529   0.340 -0.8656 -0.0191  0.1211
 1601TIP3    H126438   2.104   4.498   0.266 -1.9319 -0.0600 -0.6316
 1601TIP3    H226439   2.052   4.624   0.332  2.3064  0.3007  2.3641
 1602TIP3   OH226440   1.671   4.957   1.228  0.5638 -0.9152 -0.1946
 1602TIP3    H126441   1.594   4.901   1.235  0.3548 -0.6902 -0.6246
 1602TIP3    H226442   1.669   4.988   1.137  1.0703 -0.7785 -0.1608
 1603TIP3   OH226443   3.590   0.399   7.639 -0.6524 -0.3626  0.5020
 1603TIP3    H126444   3.586   0.492   7.661 -1.8989 -0.4520  0.7268
 1603TIP3    H226445   3.662   0.393   7.577 -0.1657  0.6541  0.9338
 1604TIP3   OH226446   5.215   4.747   8.420  0.0812  0.2575 -0.0008
 1604TIP3    H126447   5.265   4.675   8.458  0.9315 -0.1702 -1.7842
 1604TIP3    H226448   5.124   4.719   8.425  0.0741  0.5475  2.2848
 1605TIP3   OH226449   5.089   0.899   7.870 -0.1107 -0.4569 -0.5684
 1605TIP3    H126450   5.112   0.872   7.781 -0.6478 -0.1099 -0.8179
 1605TIP3    H226451   4.993   0.890   7.874 -0.1421 -0.0079 -0.1812
 1606TIP3   OH226452   6.260   6.452   8.556 -0.3054  0.6084 -0.3297
 1606TIP3    H126453   6.249   6.406   8.472  0.1007 -0.3880  0.1512
 1606TIP3    H226454   6.339   6.414   8.594 -1.2616 -0.0037  1.1590
 1607TIP3   OH226455   0.014   0.155   1.325  0.3596  0.2467 -0.2323
 1607TIP3    H126456   0.084   0.191   1.378  1.3970 -0.0048 -1.3674
 1607TIP3    H226457   0.040   0.173   1.235  0.6254 -2.6650 -0.8527
 1608TIP3   OH226458   5.073   4.293   0.223  0.1891  0.2542  0.1371
 1608TIP3    H126459   5.116   4.281   0.307  1.6547  1.7100 -0.3369
 1608TIP3    H226460   5.137   4.262   0.159 -0.2717  0.6200 -0.5101
 1609TIP3   OH226461   5.648   5.622   7.756 -0.5053  0.5879  0.7101
 1609TIP3    H126462   5.663   5.685   7.685 -1.3722  0.5764  0.5070
 1609TIP3    H226463   5.603   5.673   7.824 -2.1187 -0.0036  0.1473
 1610TIP3   OH226464   2.093   5.863   0.136 -0.0111  0.2212 -0.1725
 1610TIP3    H126465   2.136   5.883   0.054 -1.8460 -1.2068 -1.5753
 1610TIP3    H226466   2.153   5.804   0.182 -0.3068 -1.5427 -1.9620
 1611TIP3   OH226467   4.593   2.397   1.790  0.4560 -0.1424 -0.1696
 1611TIP3    H126468   4.573   2.410   1.882  2.9733  0.3949  0.3680
 1611TIP3    H226469   4.522   2.442   1.743  0.7248  2.1879  1.5320
 1612TIP3   OH226470   4.901   2.708   8.819  0.8807  0.2339  0.0465
 1612TIP3    H126471   4.969   2.688   8.883  2.1124  0.7054 -1.0544
 1612TIP3    H226472   4.903   2.633   8.758  0.6667  0.4148 -0.1862
 1613TIP3   OH226473   3.982   6.249   8.114 -0.1627 -0.3194 -0.1486
 1613TIP3    H126474   3.950   6.326   8.067  0.2444  0.7551  1.2692
 1613TIP3    H226475   4.077   6.252   8.103 -0.1075 -0.3547  0.2841
 1614TIP3   OH226476   2.893   6.566   0.451  0.2380 -0.7976  0.0292
 1614TIP3    H126477   2.955   6.590   0.520  0.0522  3.3995 -1.0408
 1614TIP3    H226478   2.811   6.547   0.497 -0.0113  2.3636  1.1272
 1615TIP3   OH226479   2.703   1.504   0.919  0.2608  0.1699 -0.4440
 1615TIP3    H126480   2.630   1.548   0.876 -0.0502  0.6217  0.5284
 1615TIP3    H226481   2.774   1.509   0.855 -0.6691 -0.6808 -1.5894
 1616TIP3   OH226482   1.951   0.213   9.050 -0.4510 -0.0207  0.4835
 1616TIP3    H126483   1.999   0.132   9.033 -0.0565  0.1189  0.9112
 1616TIP3    H226484   1.925   0.244   8.963 -0.9789 -0.8271  0.3439
 1617TIP3   OH226485   4.730   2.446   7.578 -0.8807  0.2446  0.3629
 1617TIP3    H126486   4.813   2.404   7.603 -0.4246  1.1478  0.4180
 1617TIP3    H226487   4.757   2.524   7.530 -1.6866  1.0755  1.2279
 1618TIP3   OH226488   3.618   5.728   0.949  0.0516 -0.3061 -0.1770
 1618TIP3    H126489   3.577   5.702   0.867 -0.1947  0.4325 -0.3020
 1618TIP3    H226490   3.584   5.816   0.965  1.1898  0.1197 -0.0139
 1619TIP3   OH226491   3.497   5.565   7.750 -0.0875 -0.0114 -0.6508
 1619TIP3    H126492   3.432   5.526   7.808 -0.0124 -0.6907 -1.0224
 1619TIP3    H226493   3.465   5.654   7.735  0.4126  0.5347  1.2500
 1620TIP3   OH226494   3.169   3.887   8.577 -0.0783  0.1233  0.4397
 1620TIP3    H126495   3.222   3.898   8.497 -0.1520  1.5704  0.5564
 1620TIP3    H226496   3.217   3.936   8.644 -1.0133  0.5784  0.7989
 1621TIP3   OH226497   2.572   0.038   0.268 -0.5741 -0.0866 -0.0339
 1621TIP3    H126498   2.630   0.084   0.329  2.7600 -0.9221 -2.2397
 1621TIP3    H226499   2.567  -0.051   0.302 -2.0133  0.3614  1.0176
 1622TIP3   OH226500   4.415   1.453   1.275 -0.0005 -0.9389  0.0467
 1622TIP3    H126501   4.474   1.503   1.218 -1.3476 -0.8275 -1.2975
 1622TIP3    H226502   4.463   1.447   1.358  0.7973  1.4105 -0.1607
 1623TIP3   OH226503   0.741   4.995   6.952 -0.1377 -0.8483  0.2599
 1623TIP3    H126504   0.651   4.964   6.940  0.1543 -1.5083 -0.2592
 1623TIP3    H226505   0.776   4.941   7.023 -0.4463  0.0712  1.1466
 1624TIP3   OH226506   0.733   4.436   1.255 -0.8244 -0.2588 -0.2110
 1624TIP3    H126507   0.782   4.414   1.334 -0.5944  0.2232 -0.2181
 1624TIP3    H226508   0.641   4.423   1.279 -0.7294 -0.5724 -0.0131
 1625TIP3   OH226509   3.825   3.868   0.798  0.1048 -0.3495 -0.2720
 1625TIP3    H126510   3.740   3.908   0.816 -0.4770 -0.8431 -1.7725
 1625TIP3    H226511   3.871   3.869   0.883 -1.0014  0.8215  0.3387
 1626TIP3   OH226512   2.855   3.084   7.272 -0.1884 -0.3745 -0.1569
 1626TIP3    H126513   2.810   3.161   7.237  0.0069  0.0993  0.5912
 1626TIP3    H226514   2.800   3.055   7.345  0.0866 -0.5363 -0.0128
 1627TIP3   OH226515   1.363   3.489   1.522  0.4937  0.5557  0.6062
 1627TIP3    H126516   1.341   3.582   1.527 -0.3098  0.3995  0.0896
 1627TIP3    H226517   1.279   3.444   1.518  0.7236  0.0722 -3.3542
 1628TIP3   OH226518   2.705   2.180   8.661  0.0431  0.0843  0.1752
 1628TIP3    H126519   2.627   2.150   8.707 -0.0570  0.9249  0.5727
 1628TIP3    H226520   2.758   2.101   8.648 -0.3688 -0.3115  0.8809
 1629TIP3   OH226521   6.105   2.029   1.897  0.4698  0.3582  0.3416
 1629TIP3    H126522   6.105   1.982   1.814  2.2297  1.0977 -0.1107
 1629TIP3    H226523   6.197   2.040   1.919  0.0595  1.3658  1.7103
 1630TIP3   OH226524   0.572   1.856   8.529  0.2933  0.5497  0.0323
 1630TIP3    H126525   0.557   1.930   8.472 -1.9456  0.5814  0.5919
 1630TIP3    H226526   0.632   1.889   8.597 -0.8038  1.9065  0.3680
 1631TIP3   OH226527   1.449   4.836   8.002  0.6870  0.3717  0.5943
 1631TIP3    H126528   1.471   4.769   7.937 -0.3663 -0.4751  1.0835
 1631TIP3    H226529   1.369   4.876   7.969  0.5857  0.4881  0.9820
 1632TIP3   OH226530   2.854   3.084   6.797 -0.2436 -0.3357  0.2620
 1632TIP3    H126531   2.893   3.001   6.770  0.0923  0.0756 -0.5533
 1632TIP3    H226532   2.848   3.078   6.892 -0.7243 -1.5143  0.1765
 1633TIP3   OH226533   4.474   4.908   0.293  0.1449 -0.2578 -0.2932
 1633TIP3    H126534   4.494   4.953   0.375 -1.1523  0.0864 -0.1407
 1633TIP3    H226535   4.380   4.894   0.296  0.0518 -0.1218 -1.7797
 1634TIP3   OH226536   0.804   3.915   8.598  0.1909  0.4230 -0.1218
 1634TIP3    H126537   0.856   3.871   8.530 -0.2778  0.2392 -0.3635
 1634TIP3    H226538   0.784   3.846   8.661 -0.2158  0.3720 -0.3041
 1635TIP3   OH226539   2.089   2.734   8.794  0.0741  0.1129 -0.2727
 1635TIP3    H126540   2.085   2.774   8.881 -0.1181  0.6551 -0.5251
 1635TIP3    H226541   2.009   2.682   8.787 -0.4892  0.9844 -0.5511
 1636TIP3   OH226542   1.695   5.359   8.539 -0.4291  0.3169 -0.0679
 1636TIP3    H126543   1.602   5.377   8.521 -0.7533 -1.4538 -0.3240
 1636TIP3    H226544   1.738   5.443   8.524 -2.1015  1.4122  0.9236
 1637TIP3   OH226545   0.239   5.593   8.360  0.3936 -0.4480  0.5608
 1637TIP3    H126546   0.238   5.511   8.410  1.5920  0.2915  1.8825
 1637TIP3    H226547   0.330   5.623   8.365 -0.2491  1.5813  1.1569
 1638TIP3   OH226548   5.583   0.585   8.113 -0.1645  0.1770  0.3538
 1638TIP3    H126549   5.675   0.604   8.132  0.2012 -0.2271 -0.9481
 1638TIP3    H226550   5.585   0.510   8.055 -1.4124 -1.0590  1.8093
 1639TIP3   OH226551   6.550   5.256   2.094  0.1580 -0.3477  0.0383
 1639TIP3    H126552   6.565   5.328   2.032 -0.6366  0.1123  0.3600
 1639TIP3    H226553   6.620   5.266   2.159 -1.0020  1.3294  1.1304
 1640TIP3   OH226554   1.466   5.580   8.493 -0.6212  0.5361 -0.1117
 1640TIP3    H126555   1.446   5.587   8.400  0.7888 -0.1136 -0.4832
 1640TIP3    H226556   1.408   5.644   8.535 -1.6552  0.4539 -1.3655
 1641TIP3   OH226557   0.694   3.021   7.286  0.5186 -0.4041  0.4707
 1641TIP3    H126558   0.599   3.018   7.296  0.5665 -0.9333  0.8077
 1641TIP3    H226559   0.728   3.007   7.375  0.9157 -0.8061  0.2561
 1642TIP3   OH226560   0.325   1.503   7.708 -0.0791  0.3461 -0.4655
 1642TIP3    H126561   0.298   1.432   7.650  1.5027 -0.7373  0.0605
 1642TIP3    H226562   0.274   1.489   7.788 -1.4643  1.2045 -1.1664
 1643TIP3   OH226563   5.991   0.553   2.117 -0.1529  0.7157  0.3977
 1643TIP3    H126564   5.998   0.589   2.029 -0.0555 -0.6687 -0.1778
 1643TIP3    H226565   6.008   0.628   2.175  3.0102  1.0376 -0.7455
 1644TIP3   OH226566   4.004   0.268   7.924  0.5462 -0.5000 -0.2043
 1644TIP3    H126567   4.028   0.288   8.014  0.7020 -0.8217 -0.1750
 1644TIP3    H226568   4.053   0.189   7.902  2.0675  0.6681 -1.2371
 1645TIP3   OH226569   5.395   6.405   2.669  0.9548 -0.3425 -0.4062
 1645TIP3    H126570   5.411   6.311   2.683 -0.4407 -0.4082  1.0104
 1645TIP3    H226571   5.481   6.445   2.683  1.5078 -1.3717 -0.7218
 1646TIP3   OH226572   0.016   0.520   0.240  0.0088 -0.1302  0.5040
 1646TIP3    H126573   0.020   0.600   0.188  0.9778 -0.2696  0.3359
 1646TIP3    H226574  -0.071   0.484   0.222 -0.0265  0.3101 -0.2884
 1647TIP3   OH226575   5.734   4.155   7.763  0.0779  0.2442 -0.0680
 1647TIP3    H126576   5.646   4.190   7.749  0.1725  0.5722  0.1748
 1647TIP3    H226577   5.767   4.200   7.840  0.1366 -0.4900  0.3520
 1648TIP3   OH226578   1.119   4.647   6.454 -0.5685  0.6367 -0.0269
 1648TIP3    H126579   1.167   4.705   6.394 -0.3409  1.8894  1.3080
 1648TIP3    H226580   1.050   4.608   6.399  1.2620 -0.3760 -1.7264
 1649TIP3   OH226581   4.643   2.871   1.182  0.1120 -0.3524 -0.8072
 1649TIP3    H126582   4.595   2.929   1.123 -1.5045 -0.5617  0.2426
 1649TIP3    H226583   4.637   2.785   1.142  0.8086 -0.1485 -1.3670
 1650TIP3   OH226584   1.917   6.288   1.770  0.3983 -0.2352  0.0477
 1650TIP3    H126585   1.883   6.280   1.860 -1.4370 -0.5444 -0.6240
 1650TIP3    H226586   1.948   6.378   1.764  1.9389 -0.6240  1.4160
 1651TIP3   OH226587   5.234   4.371   1.473  0.1707  0.6374  0.8044
 1651TIP3    H126588   5.326   4.390   1.454  0.6519 -0.9904  1.3161
 1651TIP3    H226589   5.220   4.284   1.436 -0.9896  0.6138  1.2836
 1652TIP3   OH226590   5.023   0.164   0.485  0.2254 -0.1539  0.9444
 1652TIP3    H126591   5.076   0.085   0.468  0.9445  0.5762 -0.3714
 1652TIP3    H226592   5.027   0.175   0.580  1.7922 -0.5973  0.9668
 1653TIP3   OH226593   1.407   1.554   0.953 -0.6900  0.1504  0.3552
 1653TIP3    H126594   1.439   1.612   0.883 -2.0231 -0.8439 -1.1443
 1653TIP3    H226595   1.487   1.524   0.998  0.0665  3.0787  1.2108
 1654TIP3   OH226596   3.544   0.463   1.091  0.1435 -0.1616 -0.1203
 1654TIP3    H126597   3.505   0.376   1.090 -0.1561 -0.0277 -0.2375
 1654TIP3    H226598   3.637   0.449   1.072  0.0486 -0.4299 -0.3853
 1655TIP3   OH226599   3.082   4.636   1.949  0.2399  0.2436 -0.1203
 1655TIP3    H126600   3.013   4.674   2.004 -0.9487 -1.9556 -0.0080
 1655TIP3    H226601   3.116   4.563   2.000  1.3636  0.1242 -0.9961
 1656TIP3   OH226602   5.055   1.345   8.808 -0.0767  0.0749  0.0201
 1656TIP3    H126603   4.975   1.395   8.792 -1.6295 -1.1038  3.2953
 1656TIP3    H226604   5.041   1.263   8.760 -0.7939 -0.0958  0.5192
 1657TIP3   OH226605   2.199   2.753   0.611 -0.7628 -0.2749  0.0676
 1657TIP3    H126606   2.227   2.817   0.677 -0.1628 -0.7788  0.3106
 1657TIP3    H226607   2.107   2.773   0.596 -0.4816  0.9135 -0.1658
 1658TIP3   OH226608   2.086   5.819   7.779  0.5001 -0.6338  0.9032
 1658TIP3    H126609   2.157   5.863   7.826  1.5495 -0.2997 -0.8968
 1658TIP3    H226610   2.095   5.849   7.688 -2.4393  0.0240  0.7429
 1659TIP3   OH226611   6.699   2.628   7.966 -0.7714 -0.1467  0.5319
 1659TIP3    H126612   6.794   2.629   7.974 -0.7531 -0.5796  0.3526
 1659TIP3    H226613   6.672   2.717   7.993 -0.1933  0.5849 -1.1981
 1660TIP3   OH226614   1.846   2.914   1.885  0.4026 -0.9067 -0.5337
 1660TIP3    H126615   1.806   2.844   1.936  2.6433 -1.0681  1.1850
 1660TIP3    H226616   1.819   2.995   1.929  0.2842 -0.8930 -0.6331
 1661TIP3   OH226617   4.595   4.270   2.026  0.3534 -0.1378 -0.4197
 1661TIP3    H126618   4.525   4.216   2.064  1.1258 -0.9916 -0.1539
 1661TIP3    H226619   4.598   4.244   1.934 -1.4918  1.9027 -1.1438
 1662TIP3   OH226620   4.830   4.792   0.694 -0.0578 -0.1630  0.1728
 1662TIP3    H126621   4.924   4.777   0.681  0.1695  1.2011  0.0625
 1662TIP3    H226622   4.821   4.888   0.696 -0.9984 -0.1744  3.3200
 1663TIP3   OH226623   4.341   2.070   0.612  0.0610 -0.1876  0.2474
 1663TIP3    H126624   4.318   2.132   0.543  0.5762 -0.3103 -0.0452
 1663TIP3    H226625   4.269   2.075   0.674 -0.4125 -0.0752 -0.3013
 1664TIP3   OH226626   3.205   1.565   0.203 -0.0662 -0.0365  0.2966
 1664TIP3    H126627   3.112   1.553   0.185  0.4490 -1.8643 -1.4592
 1664TIP3    H226628   3.246   1.483   0.176  2.2092  1.1493 -0.0956
 1665TIP3   OH226629   5.550   6.232   9.034  0.4546 -0.2100  0.3753
 1665TIP3    H126630   5.595   6.178   8.969  3.3405  2.6101 -0.2224
 1665TIP3    H226631   5.531   6.314   8.989 -0.6636  0.5817  2.1470
 1666TIP3   OH226632   4.745   1.446   0.218 -0.4848 -0.3451  0.4630
 1666TIP3    H126633   4.817   1.509   0.211 -0.8212  0.1405  1.1772
 1666TIP3    H226634   4.714   1.434   0.128 -0.8314  1.0237  0.3648
 1667TIP3   OH226635   6.547   3.571   1.360  0.0266 -0.3471  0.0924
 1667TIP3    H126636   6.482   3.581   1.429 -0.5373 -2.1558 -0.1086
 1667TIP3    H226637   6.508   3.615   1.284 -0.6978 -0.8761  0.1426
 1668TIP3   OH226638   0.866   4.007   1.957  0.4716  0.1113 -0.4301
 1668TIP3    H126639   0.944   3.963   1.924  0.1963 -1.2252  0.5826
 1668TIP3    H226640   0.793   3.962   1.913  0.2326  0.6104 -0.5498
 1669TIP3   OH226641   0.842   5.076   0.825  0.4877 -0.0348 -0.0599
 1669TIP3    H126642   0.765   5.127   0.852 -1.1250 -2.6789  0.7203
 1669TIP3    H226643   0.807   5.012   0.763  2.3005 -0.6014 -0.5547
 1670TIP3   OH226644   5.771   2.033   8.837 -0.2755  0.5359  0.4293
 1670TIP3    H126645   5.773   2.082   8.756 -1.6722  1.0117  0.6521
 1670TIP3    H226646   5.858   1.994   8.844  0.3715  1.7493 -0.4998
 1671TIP3   OH226647   3.294   1.549   0.870 -0.1904  0.1566  0.1357
 1671TIP3    H126648   3.348   1.563   0.792 -2.3594 -0.7566 -1.6382
 1671TIP3    H226649   3.251   1.633   0.885 -0.7519 -0.0170 -0.4674
 1672TIP3   OH226650   4.327   0.186   0.581 -0.1588  0.2851 -0.0069
 1672TIP3    H126651   4.259   0.237   0.537 -0.1696  0.3813  0.1202
 1672TIP3    H226652   4.282   0.148   0.658 -0.0608  0.3755  0.0951
 1673TIP3   OH226653   1.836   3.045   8.489  0.8066  0.3873 -0.4329
 1673TIP3    H126654   1.874   3.067   8.574 -1.5253  1.0309  0.5135
 1673TIP3    H226655   1.787   3.123   8.463 -1.4492 -1.0266 -0.6276
 1674TIP3   OH226656   1.136   4.412   0.080  0.1092 -0.2768 -0.2306
 1674TIP3    H126657   1.113   4.495   0.037 -0.2187 -0.0804  0.3174
 1674TIP3    H226658   1.231   4.405   0.068  0.1631  0.2522 -0.1569
 1675TIP3   OH226659   5.810   4.558   8.105 -0.2306  0.1256  0.4134
 1675TIP3    H126660   5.745   4.506   8.059  0.9897 -1.0669 -0.0358
 1675TIP3    H226661   5.862   4.599   8.036 -0.7123  1.3744  0.7635
 1676TIP3   OH226662   5.052   5.254   8.007  0.1877  1.0061  0.3952
 1676TIP3    H126663   5.027   5.241   8.098  0.8042 -2.5596  0.1680
 1676TIP3    H226664   4.973   5.237   7.957  0.6203 -0.3723  0.1469
 1677TIP3   OH226665   1.346   2.141   0.302  0.3571  0.6052  0.3507
 1677TIP3    H126666   1.372   2.052   0.281  0.2665  0.7953 -0.6138
 1677TIP3    H226667   1.367   2.192   0.223 -2.3570  0.8797 -0.3013
 1678TIP3   OH226668   3.349   1.997   0.179 -0.0209  0.0488  0.1825
 1678TIP3    H126669   3.316   1.923   0.129 -1.6331  1.0475 -0.3025
 1678TIP3    H226670   3.280   2.063   0.174  2.1600  2.4436 -1.2035
 1679TIP3   OH226671   2.786   0.049   8.350 -0.4700  0.4871 -0.1268
 1679TIP3    H126672   2.771   0.111   8.421 -2.4138 -0.1992  0.1095
 1679TIP3    H226673   2.809  -0.033   8.394 -0.1312  0.4481 -0.3641
 1680TIP3   OH226674   2.785   4.464   7.997  0.0595  0.5018 -0.4765
 1680TIP3    H126675   2.819   4.377   8.016  0.3007  0.4234 -1.2169
 1680TIP3    H226676   2.763   4.501   8.082  1.3685  0.2895 -0.0282
 1681TIP3   OH226677   3.083   4.156   8.336 -0.2600 -0.1925  0.0610
 1681TIP3    H126678   3.161   4.170   8.283  1.8485  0.2457  2.9789
 1681TIP3    H226679   3.034   4.087   8.292  1.4195 -0.0019 -2.2288
 1682TIP3   OH226680   1.857   2.527   0.018 -0.5740 -0.2523  0.3293
 1682TIP3    H126681   1.766   2.545   0.041 -0.0723  0.5587  1.8440
 1682TIP3    H226682   1.887   2.607  -0.026 -0.9080 -0.9854 -1.3128
 1683TIP3   OH226683   5.523   6.692   7.574 -0.2431  0.2207  0.0782
 1683TIP3    H126684   5.554   6.601   7.576  0.1232  0.3527  0.6253
 1683TIP3    H226685   5.455   6.692   7.506 -1.1070 -0.7553  0.8877
 1684TIP3   OH226686   6.708   2.282   8.897 -0.3654  0.2264  0.2759
 1684TIP3    H126687   6.785   2.265   8.951  0.2208 -1.2131 -0.9361
 1684TIP3    H226688   6.723   2.368   8.858  1.5631 -0.7876 -1.3928
 1685TIP3   OH226689   1.981   3.250   1.737  0.6225  0.0255  0.0267
 1685TIP3    H126690   1.931   3.255   1.819  0.8696 -2.2212  0.3735
 1685TIP3    H226691   1.929   3.193   1.681  2.1309 -1.3294 -0.0650
 1686TIP3   OH226692   1.491   6.034   7.683  0.0544  0.5641  0.3714
 1686TIP3    H126693   1.428   6.106   7.678  0.1465  0.6057 -0.3404
 1686TIP3    H226694   1.494   6.010   7.776 -0.2667  1.2211  0.5542
 1687TIP3   OH226695   3.154   5.391   8.125 -0.1997  0.0910  0.5517
 1687TIP3    H126696   3.204   5.419   8.201 -0.0295  1.8865 -0.1712
 1687TIP3    H226697   3.146   5.296   8.135  0.4569  0.1935  2.3967
 1688TIP3   OH226698   0.949   5.409   1.604  0.2714 -0.5353  0.7600
 1688TIP3    H126699   0.940   5.502   1.628  1.1353  0.0123 -0.9516
 1688TIP3    H226700   0.877   5.366   1.652 -0.1349  0.9932  1.6025
 1689TIP3   OH226701   5.480   1.026   1.506  0.1079  0.0319  0.3434
 1689TIP3    H126702   5.459   0.936   1.529 -0.3248  0.2721  0.9158
 1689TIP3    H226703   5.564   1.021   1.460 -0.2945 -0.7412 -0.3190
 1690TIP3   OH226704   2.522   1.453   8.830  0.1191 -0.2118  0.0425
 1690TIP3    H126705   2.429   1.435   8.815  0.4390 -0.9359 -1.1285
 1690TIP3    H226706   2.554   1.377   8.879  0.0901  0.0718  0.5106
 1691TIP3   OH226707   6.257   5.318   1.456 -0.8210  0.1408  0.2933
 1691TIP3    H126708   6.200   5.315   1.533 -0.5544 -1.5306  0.4516
 1691TIP3    H226709   6.228   5.396   1.409 -1.9352  0.4116  1.3617
 1692TIP3   OH226710   2.422   2.460   0.116 -0.4703 -0.0216  0.1857
 1692TIP3    H126711   2.371   2.476   0.036  1.2960  0.4498 -0.9156
 1692TIP3    H226712   2.452   2.547   0.142 -1.3898 -0.1168  1.6554
 1693TIP3   OH226713   4.897   4.507   1.144  0.1564  0.3556 -0.3902
 1693TIP3    H126714   4.830   4.449   1.178  1.8220 -0.7963  1.1373
 1693TIP3    H226715   4.864   4.535   1.058 -2.5551  0.4665  0.5958
 1694TIP3   OH226716   5.726   2.518   7.508 -0.0151 -0.0952  0.2262
 1694TIP3    H126717   5.717   2.494   7.600  2.2744  0.5994  0.6920
 1694TIP3    H226718   5.754   2.609   7.509 -0.1116 -0.0183 -1.1740
 1695TIP3   OH226719   2.996   5.524   7.521  0.2083  0.2019 -0.6353
 1695TIP3    H126720   3.066   5.466   7.551 -0.2334 -0.6143 -1.1657
 1695TIP3    H226721   2.987   5.505   7.428 -1.7385 -0.7968 -0.2824
 1696TIP3   OH226722   6.350   5.075   2.097  0.3592  0.4571 -0.4467
 1696TIP3    H126723   6.427   5.130   2.086 -0.2870  1.4322 -0.2476
 1696TIP3    H226724   6.343   5.062   2.192  1.3901 -1.2891 -0.5789
 1697TIP3   OH226725   3.478   5.020   8.445 -0.5879  0.2840  0.3854
 1697TIP3    H126726   3.528   4.948   8.408 -1.1329 -0.3550  0.8721
 1697TIP3    H226727   3.541   5.069   8.497  0.3974  1.6695 -1.9524
 1698TIP3   OH226728   5.246   3.215   0.405 -0.1705 -0.2969 -0.1594
 1698TIP3    H126729   5.160   3.256   0.418 -0.3272 -0.8804  0.7656
 1698TIP3    H226730   5.225   3.127   0.374  0.0039 -1.0243  1.6612
 1699TIP3   OH226731   4.938   0.405   7.425 -0.3202 -0.1034  0.2206
 1699TIP3    H126732   5.032   0.388   7.429 -0.6039 -1.7530  1.0362
 1699TIP3    H226733   4.930   0.497   7.400  1.5287  0.4221  1.3978
 1700TIP3   OH226734   0.426   2.245   6.236  0.4467  0.7061  0.1977
 1700TIP3    H126735   0.445   2.202   6.319  1.0080  1.1851  0.3269
 1700TIP3    H226736   0.347   2.296   6.253 -0.5065 -0.6123 -0.0908
 1701TIP3   OH226737   1.917   0.765   7.487 -0.3919  0.4697 -0.3311
 1701TIP3    H126738   1.902   0.680   7.527 -2.0493  0.0869 -1.6983
 1701TIP3    H226739   1.841   0.817   7.511 -0.6474  0.7362 -1.6311
 1702TIP3   OH226740   6.225   3.576   7.114 -0.0099 -0.3431  0.5379
 1702TIP3    H126741   6.154   3.512   7.107 -1.1913  1.0270 -0.5245
 1702TIP3    H226742   6.204   3.643   7.050  2.5352 -0.1092 -0.1990
 1703TIP3   OH226743   4.439   0.482   7.530  0.1962 -0.1881  0.5041
 1703TIP3    H126744   4.490   0.498   7.450 -0.5425 -0.4831 -0.0389
 1703TIP3    H226745   4.470   0.549   7.591  0.1201  0.6556 -0.3377
 1704TIP3   OH226746   5.854   2.570   0.910  0.2331 -0.1213 -0.6462
 1704TIP3    H126747   5.871   2.478   0.933  2.0439 -0.2538 -2.2393
 1704TIP3    H226748   5.896   2.620   0.980 -2.5264 -0.4107  1.3690
 1705TIP3   OH226749   3.795   4.959   0.581 -0.2155  0.6917  0.6233
 1705TIP3    H126750   3.750   4.962   0.665 -0.7910 -0.6415  0.3824
 1705TIP3    H226751   3.829   4.870   0.575 -0.2358  0.7482 -0.5725
 1706TIP3   OH226752   5.057   2.208   1.999  0.3219  0.2111 -0.3826
 1706TIP3    H126753   4.988   2.275   2.003 -0.7897 -0.7541 -2.0180
 1706TIP3    H226754   5.050   2.161   2.082 -0.2147  0.8867 -0.0368
 1707TIP3   OH226755   5.661   4.949   2.649  0.3017  0.5506 -0.1632
 1707TIP3    H126756   5.568   4.949   2.624  0.1403  1.9191  0.3298
 1707TIP3    H226757   5.697   5.026   2.606  1.6522 -0.9008 -1.7542
 1708TIP3   OH226758   3.548   3.915   0.863  0.4087  0.4190 -0.1281
 1708TIP3    H126759   3.554   3.854   0.936  0.2780  1.2410  0.5842
 1708TIP3    H226760   3.476   3.883   0.810  1.8313 -1.4150 -1.0759
 1709TIP3   OH226761   1.858   5.884   8.737 -0.0930  0.1025 -0.0723
 1709TIP3    H126762   1.800   5.948   8.696 -0.4530  0.8896  1.5836
 1709TIP3    H226763   1.841   5.893   8.831  1.8862 -0.4529  0.3863
 1710TIP3   OH226764   5.835   2.816   8.479 -0.3367  0.3476  0.2908
 1710TIP3    H126765   5.876   2.801   8.394 -1.0849  1.3634 -0.2691
 1710TIP3    H226766   5.794   2.902   8.472 -0.0627  0.6407  1.8309
 1711TIP3   OH226767   6.167   2.440   8.994  0.7350 -0.4904 -0.1717
 1711TIP3    H126768   6.190   2.412   8.906  1.1324 -1.4549  0.2145
 1711TIP3    H226769   6.215   2.379   9.051 -0.8605 -0.9942  0.6892
 1712TIP3   OH226770   1.907   3.061   1.282 -0.0156 -0.1132 -0.2743
 1712TIP3    H126771   1.961   3.138   1.265  2.6996 -1.8866 -0.3865
 1712TIP3    H226772   1.965   3.001   1.329 -1.7863 -2.3502 -0.7506
 1713TIP3   OH226773   3.629   2.568   7.376 -0.2522 -0.0261 -0.5933
 1713TIP3    H126774   3.599   2.569   7.466 -0.8871  0.7817 -0.8067
 1713TIP3    H226775   3.694   2.638   7.371  2.9790 -2.7040  0.2573
 1714TIP3   OH226776   5.142   4.590   1.605  0.1130 -0.5222 -0.4901
 1714TIP3    H126777   5.189   4.526   1.552  0.4089  0.9112 -2.0452
 1714TIP3    H226778   5.133   4.667   1.548 -0.7673  0.6098  1.0843
 1715TIP3   OH226779   5.496   6.284   7.795 -0.0719 -0.6238 -0.6197
 1715TIP3    H126780   5.557   6.358   7.798 -1.3216  0.4534 -0.6804
 1715TIP3    H226781   5.445   6.293   7.876 -2.2972  0.4621 -2.0396
 1716TIP3   OH226782   1.512   4.466   0.754 -0.3619 -0.2917  0.6173
 1716TIP3    H126783   1.505   4.548   0.705  1.4213 -0.3908  0.1669
 1716TIP3    H226784   1.443   4.473   0.821  0.0561  1.7906  0.8922
 1717TIP3   OH226785   0.447   5.209   8.533 -0.0391 -0.5924 -0.1571
 1717TIP3    H126786   0.428   5.286   8.586  0.9551 -0.1994 -0.3460
 1717TIP3    H226787   0.467   5.140   8.596 -0.5773 -0.6068  0.0040
 1718TIP3   OH226788   0.537   1.666   0.089 -0.4021  0.0093 -0.1429
 1718TIP3    H126789   0.574   1.697   0.006 -0.2453  0.6161  0.1452
 1718TIP3    H226790   0.612   1.633   0.138 -0.5116 -0.4626 -0.2826
 1719TIP3   OH226791   5.559   1.698   6.514 -0.2494 -0.6858  0.2468
 1719TIP3    H126792   5.556   1.771   6.451  2.4370 -0.9469 -0.2773
 1719TIP3    H226793   5.511   1.731   6.590 -1.2711  0.6476 -0.9028
 1720TIP3   OH226794   5.198   0.787   1.633 -0.2926  0.0929  0.7087
 1720TIP3    H126795   5.131   0.825   1.689  0.0505  2.4515 -0.3608
 1720TIP3    H226796   5.234   0.861   1.585  0.8631 -1.5407 -1.0992
 1721TIP3   OH226797   4.704   5.266   7.382 -0.0674 -0.0629 -0.9806
 1721TIP3    H126798   4.717   5.351   7.423 -1.8956 -0.2213 -0.0052
 1721TIP3    H226799   4.769   5.209   7.424 -0.2580  0.3545 -0.1071
 1722TIP3   OH226800   4.221   6.256   7.405  0.0013  0.1111  0.3411
 1722TIP3    H126801   4.232   6.271   7.311 -0.8131 -0.5939  0.1120
 1722TIP3    H226802   4.176   6.171   7.410  1.0008 -0.3865  1.4088
 1723TIP3   OH226803   6.614   2.457   7.753 -0.3823 -0.3570  0.0479
 1723TIP3    H126804   6.594   2.498   7.837 -0.3000 -0.4154  0.0956
 1723TIP3    H226805   6.705   2.429   7.761 -0.5067 -0.7506  0.0970
 1724TIP3   OH226806   0.335   5.718   9.018 -0.1675  0.5446  0.0021
 1724TIP3    H126807   0.284   5.713   9.099  0.7013  0.5389  0.5685
 1724TIP3    H226808   0.319   5.806   8.984 -0.9952  0.3450 -0.1341
 1725TIP3   OH226809   1.083   6.396   7.819 -0.6920  0.0470  0.3197
 1725TIP3    H126810   1.123   6.325   7.869  0.1185 -0.2885 -0.7629
 1725TIP3    H226811   1.130   6.396   7.735 -2.6328 -0.0555 -0.8400
 1726TIP3   OH226812   3.355   3.068   1.620  0.3910  0.3629 -0.5209
 1726TIP3    H126813   3.362   2.983   1.662  1.7236  0.6083 -0.2092
 1726TIP3    H226814   3.424   3.121   1.660 -1.9517  2.3990  1.1031
 1727TIP3   OH226815   1.598   2.097   0.786  0.2618 -0.1291 -0.4183
 1727TIP3    H126816   1.642   2.160   0.843  0.3539  2.0312 -2.6690
 1727TIP3    H226817   1.508   2.093   0.818  0.3608  0.8929  0.0050
 1728TIP3   OH226818   4.001   6.075   8.779  0.6622  0.2341 -0.6483
 1728TIP3    H126819   3.918   6.119   8.760  1.0024  0.4098 -1.8352
 1728TIP3    H226820   4.026   6.034   8.696  1.1955 -0.7896 -0.0094
 1729TIP3   OH226821   5.383   3.234   0.650  0.3109 -0.3874 -0.0753
 1729TIP3    H126822   5.305   3.237   0.594 -0.5645  1.5380  1.1462
 1729TIP3    H226823   5.455   3.256   0.591 -0.4110  0.2742 -0.7422
 1730TIP3   OH226824   4.555   1.284   8.020 -0.3911 -0.2084 -0.6754
 1730TIP3    H126825   4.462   1.285   7.999 -0.8568 -0.2324  1.2009
 1730TIP3    H226826   4.583   1.194   8.006 -0.7109 -0.2514 -1.0221
 1731TIP3   OH226827   2.860   6.691   7.353 -0.0091 -0.2386  0.1391
 1731TIP3    H126828   2.857   6.663   7.444  1.3070 -0.2244  0.1990
 1731TIP3    H226829   2.778   6.659   7.315  0.4771 -2.2968  0.7382
 1732TIP3   OH226830   2.311   3.410   8.746  0.6073 -0.1011  0.4275
 1732TIP3    H126831   2.363   3.361   8.683 -0.2180  1.3422 -1.4620
 1732TIP3    H226832   2.369   3.479   8.778  1.3326 -1.3902  2.0640
 1733TIP3   OH226833   6.263   2.419   7.527 -0.1048  0.1282  0.1667
 1733TIP3    H126834   6.179   2.458   7.503  0.0414 -0.0480 -0.6452
 1733TIP3    H226835   6.244   2.326   7.539  0.0595  0.0091 -0.4680
 1734TIP3   OH226836   4.779   5.731   7.776 -0.0652 -0.2098  0.3633
 1734TIP3    H126837   4.752   5.817   7.808  0.3816 -0.5220  1.6450
 1734TIP3    H226838   4.821   5.748   7.692 -1.6820  0.5944 -0.3158
 1735TIP3   OH226839   5.704   6.632   1.030 -0.2906 -0.1983 -0.3535
 1735TIP3    H126840   5.689   6.667   1.119 -0.3038 -0.3281 -0.3050
 1735TIP3    H226841   5.718   6.710   0.977  2.1995 -0.2062  0.1952
 1736TIP3   OH226842   5.285   3.491   8.249  0.0121 -0.4848 -0.0045
 1736TIP3    H126843   5.250   3.497   8.161 -1.0380  2.9847  0.4933
 1736TIP3    H226844   5.380   3.496   8.238 -0.1555  2.0911 -0.9736
 1737TIP3   OH226845   6.593   3.457   8.470  0.7857 -0.5788 -0.1677
 1737TIP3    H126846   6.650   3.428   8.398  0.9417  0.4185 -0.4644
 1737TIP3    H226847   6.532   3.518   8.429 -0.7641 -1.8933  0.0786
 1738TIP3   OH226848   2.663   3.147   6.590 -0.1980 -0.4701  0.4396
 1738TIP3    H126849   2.572   3.118   6.595 -0.1719 -0.5968  0.1870
 1738TIP3    H226850   2.705   3.106   6.666 -0.1698 -1.0712  0.1030
 1739TIP3   OH226851   6.093   1.983   1.179  0.5606  0.4248  0.2785
 1739TIP3    H126852   6.019   2.044   1.179  1.3953  1.5753 -2.1832
 1739TIP3    H226853   6.055   1.898   1.201 -1.3009  1.1714  0.0727
 1740TIP3   OH226854   0.947   2.614   0.893  0.2879  0.0904  0.1238
 1740TIP3    H126855   0.857   2.624   0.923  0.2618  0.1068  0.0404
 1740TIP3    H226856   0.941   2.557   0.817 -0.0276  2.5161 -1.7956
 1741TIP3   OH226857   4.096   2.074   0.767 -0.6273 -0.1252  0.4571
 1741TIP3    H126858   4.089   2.165   0.797 -3.1304 -0.4637  1.1161
 1741TIP3    H226859   4.023   2.029   0.810 -0.6851 -2.0003 -1.4533
 1742TIP3   OH226860   6.694   2.221   0.956  0.0841  0.1690  1.1613
 1742TIP3    H126861   6.742   2.203   1.037  0.1929  0.1784  1.0981
 1742TIP3    H226862   6.691   2.137   0.911  0.9943  0.4065  0.6464
 1743TIP3   OH226863   6.637   4.804   7.401 -0.5300  0.0219 -0.0321
 1743TIP3    H126864   6.608   4.887   7.363  1.1356  0.4864 -0.3844
 1743TIP3    H226865   6.682   4.759   7.329 -1.5481 -1.2804  0.1131
 1744TIP3   OH226866   1.679   5.796   6.321  0.4798 -0.3058  0.1161
 1744TIP3    H126867   1.685   5.872   6.263  0.5394  1.7808  2.6431
 1744TIP3    H226868   1.596   5.807   6.367  0.9455 -1.1897  1.2393
 1745TIP3   OH226869   6.356   4.306   6.968 -0.6041  0.0593 -0.5882
 1745TIP3    H126870   6.367   4.222   6.922  1.3685 -0.0379 -0.0284
 1745TIP3    H226871   6.355   4.282   7.061  0.5323  0.6844 -0.3994
 1746TIP3   OH226872   0.111   2.097   0.198 -0.0292 -0.0951  0.6458
 1746TIP3    H126873   0.119   2.179   0.246  2.5922 -1.2914  2.5074
 1746TIP3    H226874   0.201   2.071   0.179 -0.8462 -0.4939 -3.7841
 1747TIP3   OH226875   1.427   6.236   0.590 -0.4464  0.4905 -0.7023
 1747TIP3    H126876   1.340   6.248   0.553 -0.4285 -2.9613 -2.3189
 1747TIP3    H226877   1.415   6.173   0.661  0.7170 -0.1861 -1.0712
 1748TIP3   OH226878   6.077   2.962   8.534 -0.0130 -0.2962 -0.4532
 1748TIP3    H126879   5.990   2.921   8.536  0.0299 -0.3647  0.2467
 1748TIP3    H226880   6.066   3.040   8.480 -0.9364  0.6350  1.0026
 1749TIP3   OH226881   6.684   1.148   8.199 -0.3139 -0.1634 -0.6987
 1749TIP3    H126882   6.719   1.096   8.272  1.8359 -0.5085 -1.8838
 1749TIP3    H226883   6.656   1.230   8.239  0.6468 -0.4228  0.5626
 1750TIP3   OH226884   6.361   4.165   1.765  0.8107  0.6361  0.4829
 1750TIP3    H126885   6.449   4.169   1.802  1.6659 -0.2974 -1.3101
 1750TIP3    H226886   6.324   4.083   1.800  2.7088 -1.8437 -2.7291
 1751TIP3   OH226887   0.748   5.396   8.306 -0.3828 -0.0976  0.2179
 1751TIP3    H126888   0.836   5.376   8.339 -0.9211 -1.3159  0.9312
 1751TIP3    H226889   0.723   5.476   8.352 -0.3798 -0.7582  1.3967
 1752TIP3   OH226890   6.355   1.985   8.448  0.1493 -0.0329 -0.1509
 1752TIP3    H126891   6.433   1.933   8.467 -0.1326 -0.7073 -0.7817
 1752TIP3    H226892   6.387   2.059   8.396  0.4262 -0.0759 -0.0409
 1753TIP3   OH226893   3.714   6.598   1.488  0.1981  0.1875  0.3140
 1753TIP3    H126894   3.760   6.522   1.452 -0.3173  1.0671 -2.4884
 1753TIP3    H226895   3.624   6.567   1.501 -0.3853  0.6122 -2.2509
 1754TIP3   OH226896   1.420   5.958   6.716  0.2551  0.6723 -0.1812
 1754TIP3    H126897   1.473   6.038   6.719  1.3668  0.0561 -2.0500
 1754TIP3    H226898   1.370   5.960   6.797 -2.3808  5.0268 -1.5985
 1755TIP3   OH226899   2.489   2.039   0.069  0.4468 -0.6608  0.4351
 1755TIP3    H126900   2.415   2.099   0.078  0.9135  0.1114 -0.6294
 1755TIP3    H226901   2.495   1.996   0.154 -0.4670  0.1499  0.9372
 1756TIP3   OH226902   3.874   2.761   6.382 -0.3923 -0.1394  0.0454
 1756TIP3    H126903   3.945   2.698   6.395 -0.0969  0.5739  2.2908
 1756TIP3    H226904   3.794   2.708   6.386 -0.2104 -0.3446  3.0761
 1757TIP3   OH226905   4.606   1.352   8.648  0.2623 -0.1417 -0.2227
 1757TIP3    H126906   4.573   1.441   8.660  1.1346  0.2592 -0.7274
 1757TIP3    H226907   4.539   1.308   8.595 -0.4872  0.0044  0.5764
 1758TIP3   OH226908   5.232   0.328   1.491  0.0012 -0.0360 -0.6964
 1758TIP3    H126909   5.208   0.245   1.450 -0.7300  0.2899 -0.9477
 1758TIP3    H226910   5.305   0.306   1.549 -1.3616 -1.2449  0.6802
 1759TIP3   OH226911   2.630   2.229   1.959  0.4292 -0.2973 -0.4448
 1759TIP3    H126912   2.550   2.252   2.007  1.3413 -0.0844  1.0520
 1759TIP3    H226913   2.647   2.138   1.984  1.1068 -0.0738 -0.0794
 1760TIP3   OH226914   3.050   5.611   8.634  0.3897 -0.1362  0.1974
 1760TIP3    H126915   2.974   5.574   8.679  0.5386 -0.0276  0.5439
 1760TIP3    H226916   3.115   5.624   8.703  1.1194 -1.2269 -0.2539
 1761TIP3   OH226917   5.257   2.216   7.902 -0.0485  0.3098  0.7161
 1761TIP3    H126918   5.232   2.133   7.943  1.2679 -0.0911  0.7640
 1761TIP3    H226919   5.348   2.229   7.929  0.1332  1.1750 -0.2587
 1762TIP3   OH226920   2.466   5.738   0.441  0.3790  0.4911  0.4460
 1762TIP3    H126921   2.535   5.720   0.378  0.3380  1.1782  0.1958
 1762TIP3    H226922   2.430   5.652   0.464  1.0854  0.1585  0.3219
 1763TIP3   OH226923   3.300   3.471   7.924  0.2038 -0.4862  0.2245
 1763TIP3    H126924   3.374   3.457   7.983 -1.1702 -1.0185  1.8936
 1763TIP3    H226925   3.263   3.555   7.950  0.0022 -0.3811 -0.3793
 1764TIP3   OH226926   0.851   2.894   9.025 -0.3036 -0.2185 -0.5564
 1764TIP3    H126927   0.801   2.974   9.012 -0.8858 -0.7254 -1.4929
 1764TIP3    H226928   0.793   2.824   8.996  0.3352 -0.9561 -0.0995
 1765TIP3   OH226929   3.429   1.097   0.453  0.1155  0.0207 -0.4005
 1765TIP3    H126930   3.491   1.099   0.526 -0.8811  0.6447  0.4619
 1765TIP3    H226931   3.343   1.096   0.494 -0.4742  0.0899 -1.5715
 1766TIP3   OH226932   4.347   0.850   7.363 -0.3235  0.3760  0.6253
 1766TIP3    H126933   4.320   0.869   7.273 -0.1085 -1.1859  0.1967
 1766TIP3    H226934   4.346   0.935   7.406 -0.1806  1.2087 -0.9180
 1767TIP3   OH226935   1.596   2.912   6.484 -0.2465  0.3761 -0.5588
 1767TIP3    H126936   1.521   2.884   6.536  0.9036  1.7498  2.0030
 1767TIP3    H226937   1.651   2.834   6.477 -1.0702 -0.1785 -0.9363
 1768TIP3   OH226938   5.450   3.214   8.482 -0.1795 -0.0083  0.5548
 1768TIP3    H126939   5.522   3.253   8.432  0.6446  0.1871  1.8593
 1768TIP3    H226940   5.477   3.220   8.573 -1.4966 -0.6835  1.0238
 1769TIP3   OH226941   4.410   2.662   6.954 -0.3573 -0.2206 -0.4933
 1769TIP3    H126942   4.350   2.646   6.881 -0.2387  2.6529 -1.3205
 1769TIP3    H226943   4.496   2.668   6.914 -0.0119 -0.5250  0.1841
 1770TIP3   OH226944   1.341   3.439   8.913 -0.2476  0.4832 -0.2604
 1770TIP3    H126945   1.341   3.374   8.983 -1.9043  0.1187 -0.5626
 1770TIP3    H226946   1.415   3.496   8.934 -1.7946  1.5482  2.8871
 1771TIP3   OH226947   4.819   1.125   7.488  0.0602  0.8213  0.4125
 1771TIP3    H126948   4.882   1.063   7.451 -0.5102  1.5008 -1.8954
 1771TIP3    H226949   4.743   1.072   7.512  0.3238  0.3791  0.2656
 1772TIP3   OH226950   2.113   0.182   0.282  0.2187 -0.5177 -0.0443
 1772TIP3    H126951   2.196   0.137   0.269 -0.2262 -1.7098  1.0949
 1772TIP3    H226952   2.084   0.156   0.369 -0.7917  0.8071  0.0499
 1773TIP3   OH226953   3.122   2.352   1.273  0.1769  0.5454  0.1493
 1773TIP3    H126954   3.048   2.292   1.270 -0.1511  0.9438  0.1094
 1773TIP3    H226955   3.164   2.343   1.187 -0.4295  1.0616 -0.2081
 1774TIP3   OH226956   4.768   1.607   8.581 -0.0078 -1.1596 -0.6023
 1774TIP3    H126957   4.703   1.658   8.532 -0.1027 -0.8020 -0.1077
 1774TIP3    H226958   4.852   1.648   8.560 -0.0372 -1.0747 -0.5549
 1775TIP3   OH226959   5.280   2.653   0.975  0.5371 -0.0990  0.5705
 1775TIP3    H126960   5.229   2.668   1.055 -1.8875 -1.7934 -0.5160
 1775TIP3    H226961   5.277   2.558   0.962  0.8345  0.1203 -1.5325
 1776TIP3   OH226962   0.916   1.085   8.007 -0.3430 -0.4090 -0.2948
 1776TIP3    H126963   0.955   1.001   7.980  0.0831 -0.5049  0.6082
 1776TIP3    H226964   0.879   1.068   8.093 -1.1612  0.0660 -0.5441
 1777TIP3   OH226965   2.836   3.081   7.605 -0.0102  0.3703  0.2097
 1777TIP3    H126966   2.925   3.073   7.639 -0.0607  1.6625  0.6950
 1777TIP3    H226967   2.789   3.008   7.645  1.5424 -2.5376 -2.7003
 1778TIP3   OH226968   2.694   4.619   8.270  0.3527  0.0038  0.3359
 1778TIP3    H126969   2.626   4.651   8.329  0.7844 -0.8287  1.3225
 1778TIP3    H226970   2.731   4.698   8.231  1.0202  0.7257  2.2916
 1779TIP3   OH226971   4.179   1.310   0.930 -0.7694 -0.4145  0.3696
 1779TIP3    H126972   4.121   1.266   0.868  1.6702 -2.4590 -0.5941
 1779TIP3    H226973   4.211   1.387   0.883 -2.4582  0.6301  0.8455
 1780TIP3   OH226974   6.110   4.654   2.989  0.3359 -0.0557  0.3010
 1780TIP3    H126975   6.160   4.610   2.920 -0.8232 -1.5359  0.3552
 1780TIP3    H226976   6.034   4.690   2.944 -1.2449 -2.3615  0.9473
 1781TIP3   OH226977   4.674   0.658   1.518 -0.0862  0.1493  0.1152
 1781TIP3    H126978   4.639   0.727   1.575  1.3752  1.4452 -0.4862
 1781TIP3    H226979   4.710   0.593   1.577  1.1079  1.3110  0.7106
 1782TIP3   OH226980   0.347   1.295   1.803  0.2402  0.1603  0.2848
 1782TIP3    H126981   0.345   1.266   1.895 -1.2109 -1.0855 -0.0941
 1782TIP3    H226982   0.257   1.319   1.784  1.0239  3.2394 -0.0342
 1783TIP3   OH226983   1.878   0.715   0.608  0.1123 -0.1202  0.0340
 1783TIP3    H126984   1.969   0.739   0.625 -0.3264  1.3350  0.4891
 1783TIP3    H226985   1.882   0.650   0.538  1.4264  1.1748 -1.1479
 1784TIP3   OH226986   5.170   5.342   8.994 -1.0627 -0.5888  0.1424
 1784TIP3    H126987   5.233   5.394   8.944  0.0813 -0.4470  1.6436
 1784TIP3    H226988   5.224   5.278   9.041 -1.9509 -0.0958  1.9302
 1785TIP3   OH226989   5.390   2.273   8.517 -0.9649 -0.1277 -0.1582
 1785TIP3    H126990   5.408   2.232   8.601 -0.7978  1.1695  0.4646
 1785TIP3    H226991   5.304   2.240   8.491 -0.5723 -1.3196  0.0180
 1786TIP3   OH226992   6.552   0.241   8.640  0.6734  0.6765 -0.1028
 1786TIP3    H126993   6.588   0.154   8.660  0.1268 -0.0206 -1.9386
 1786TIP3    H226994   6.628   0.298   8.636  0.9827  0.4787  1.8392
 1787TIP3   OH226995   2.618   5.105   0.680 -0.5402 -0.4949  0.0251
 1787TIP3    H126996   2.550   5.171   0.668  0.8964  1.0976  0.2754
 1787TIP3    H226997   2.699   5.148   0.652  0.2646 -2.6688 -1.2413
 1788TIP3   OH226998   4.432   1.816   7.742  0.1809  0.0326  0.3062
 1788TIP3    H126999   4.392   1.867   7.813  0.2419  2.3223 -1.1991
 1788TIP3    H227000   4.525   1.816   7.762  0.1505  0.2985  0.4500
 1789TIP3   OH227001   6.259   1.794   9.111 -0.2486  0.1264  0.9171
 1789TIP3    H127002   6.207   1.714   9.114  0.9873 -0.6892  2.2492
 1789TIP3    H227003   6.321   1.784   9.183  2.0361  0.8484 -0.8558
 1790TIP3   OH227004   5.071   6.283   0.374  0.1514  0.4912 -0.8230
 1790TIP3    H127005   5.158   6.307   0.340  0.5649 -1.8094 -1.5478
 1790TIP3    H227006   5.090   6.232   0.452 -0.5319 -0.3504 -1.2027
 1791TIP3   OH227007   1.794   5.568   6.200 -0.4132 -0.2731  0.0261
 1791TIP3    H127008   1.858   5.542   6.265 -0.4703 -1.6293 -0.4257
 1791TIP3    H227009   1.766   5.655   6.227 -1.2175 -1.2051  2.4270
 1792TIP3   OH227010   0.437   2.685   8.565 -0.3933  0.5635 -0.0528
 1792TIP3    H127011   0.505   2.663   8.628 -1.0326  2.6168  1.4859
 1792TIP3    H227012   0.356   2.651   8.604 -0.6790  1.0309 -0.2273
 1793TIP3   OH227013   3.962   0.668   1.501 -0.0853 -0.7873  0.3149
 1793TIP3    H127014   4.010   0.628   1.429 -0.1735  1.9418 -1.3801
 1793TIP3    H227015   3.871   0.670   1.472 -0.7331 -2.5686  1.9588
 1794TIP3   OH227016   3.189   5.411   6.530  0.5903 -0.1477 -0.1809
 1794TIP3    H127017   3.138   5.404   6.611 -1.5399 -1.9203 -1.5402
 1794TIP3    H227018   3.168   5.331   6.482  2.9860  0.1186 -1.8509
 1795TIP3   OH227019   6.405   5.677   8.683  0.0017 -0.3401 -0.0324
 1795TIP3    H127020   6.452   5.754   8.652 -0.6032  0.7442  1.5978
 1795TIP3    H227021   6.464   5.604   8.663  1.2178  0.6860 -0.3651
 1796TIP3   OH227022   3.539   0.488   0.050  0.2236 -0.0057 -0.3326
 1796TIP3    H127023   3.455   0.530   0.031 -0.3347 -0.5994  0.7073
 1796TIP3    H227024   3.555   0.510   0.142  0.5682 -0.9717 -0.1553
 1797TIP3   OH227025   5.345   4.091   8.815 -0.9476  0.7467 -0.5397
 1797TIP3    H127026   5.344   4.020   8.879  1.8673  0.7266 -0.3902
 1797TIP3    H227027   5.288   4.061   8.744 -1.8071 -0.5078  0.6287
 1798TIP3   OH227028   4.405   3.046   8.533  0.3719  0.3925  0.4321
 1798TIP3    H127029   4.396   3.038   8.438  0.2621 -2.0031  0.5653
 1798TIP3    H227030   4.315   3.042   8.566  0.4740 -0.1238  0.6702
 1799TIP3   OH227031   4.366   5.694   7.374  0.6180  0.1180  0.3859
 1799TIP3    H127032   4.273   5.680   7.390  1.2197 -1.9643  2.8177
 1799TIP3    H227033   4.391   5.761   7.437  1.1085 -0.8691  1.2850
 1800TIP3   OH227034   5.426   2.699   8.901 -0.0120  0.0972  0.1429
 1800TIP3    H127035   5.350   2.651   8.933 -0.1077  0.1123 -0.0623
 1800TIP3    H227036   5.483   2.633   8.862 -0.1140  0.1407 -0.0817
 1801TIP3   OH227037   2.307   1.458   0.525 -0.3046  0.2320  0.3014
 1801TIP3    H127038   2.326   1.436   0.616 -0.6486  0.2024  0.3668
 1801TIP3    H227039   2.361   1.536   0.507 -0.7098  0.6124  0.7180
 1802TIP3   OH227040   6.674   5.034   1.943  0.3234 -0.1136 -0.1867
 1802TIP3    H127041   6.625   5.098   1.994 -1.6043 -1.4095 -0.2914
 1802TIP3    H227042   6.754   5.019   1.993 -0.2875  0.6359  1.0597
 1803TIP3   OH227043   1.501   2.565   8.347  0.2119  0.3208  0.1253
 1803TIP3    H127044   1.503   2.477   8.310  1.6752  1.0594 -1.8055
 1803TIP3    H227045   1.537   2.620   8.277  2.9561  1.9300  2.5802
 1804TIP3   OH227046   4.195   1.584   8.457  0.0864 -0.2129 -0.3814
 1804TIP3    H127047   4.273   1.638   8.447 -1.4615  2.1997 -0.3133
 1804TIP3    H227048   4.152   1.588   8.372 -0.4716 -0.6900 -0.1272
 1805TIP3   OH227049   1.087   1.218   0.546 -0.4344  0.6345  0.3498
 1805TIP3    H127050   1.041   1.277   0.605 -2.7206  0.3158 -1.0064
 1805TIP3    H227051   1.169   1.263   0.525 -1.3296  2.4939  0.7269
 1806TIP3   OH227052   0.780   4.287   8.003  0.6705 -0.3072 -0.1107
 1806TIP3    H127053   0.804   4.194   8.008  1.9999 -0.0612 -1.2894
 1806TIP3    H227054   0.751   4.300   7.913  0.7221  0.4714 -0.0229
 1807TIP3   OH227055   3.729   3.563   0.796  0.1969 -0.2591  0.5046
 1807TIP3    H127056   3.682   3.486   0.829  0.8764 -0.7465  0.3497
 1807TIP3    H227057   3.749   3.614   0.874 -0.6150 -0.0271  0.5701
 1808TIP3   OH227058   4.068   3.376   7.778  0.1752 -0.0418 -0.1458
 1808TIP3    H127059   4.002   3.445   7.789  1.3641  1.2555 -0.8074
 1808TIP3    H227060   4.117   3.377   7.860  0.4320  0.1577 -0.3025
 1809TIP3   OH227061   2.518   6.686   7.562  1.0067  0.2273 -0.1299
 1809TIP3    H127062   2.468   6.647   7.490  2.7633  1.7160 -2.2848
 1809TIP3    H227063   2.452   6.728   7.618 -0.4630 -1.6616 -0.3725
 1810TIP3   OH227064   5.080   6.512   0.675 -0.0119 -0.4174 -0.5455
 1810TIP3    H127065   5.006   6.463   0.638 -0.4340  1.0075 -1.6818
 1810TIP3    H227066   5.142   6.521   0.603 -0.0585  0.8991 -0.4560
 1811TIP3   OH227067   1.938   1.512   6.144 -0.4164  0.5399  0.2700
 1811TIP3    H127068   1.870   1.578   6.132  1.7995  2.7917 -0.7823
 1811TIP3    H227069   1.905   1.457   6.215 -2.8687  2.0986  0.4787
 1812TIP3   OH227070   3.902   4.349   0.600  0.0386 -0.4916 -0.4052
 1812TIP3    H127071   3.975   4.327   0.542  0.2035  0.5632 -0.6167
 1812TIP3    H227072   3.894   4.444   0.594 -1.3151 -0.5816 -0.3251
 1813TIP3   OH227073   4.994   1.641   1.982 -0.1006  0.5178 -0.5621
 1813TIP3    H127074   5.089   1.640   1.973  0.0977 -0.4139  1.2206
 1813TIP3    H227075   4.977   1.702   2.054 -1.0046  1.9000 -1.8716
 1814TIP3   OH227076   0.285   5.540   0.928 -0.2138 -0.0655 -0.6338
 1814TIP3    H127077   0.193   5.560   0.913 -0.8396 -1.5748  0.8264
 1814TIP3    H227078   0.323   5.532   0.840 -1.2270  1.4594 -1.2530
 1815TIP3   OH227079   5.920   6.210   0.758  0.3695 -0.0544 -0.7208
 1815TIP3    H127080   6.004   6.253   0.740  0.7445 -0.9903 -1.2736
 1815TIP3    H227081   5.944   6.123   0.789 -0.3180  0.7709  2.4183
 1816TIP3   OH227082   6.623   0.427   1.613  0.4320  0.3194  0.4091
 1816TIP3    H127083   6.538   0.461   1.585  0.5620  0.3021 -0.0037
 1816TIP3    H227084   6.686   0.491   1.580  0.4077  2.1883  3.5025
 1817TIP3   OH227085   5.290   5.231   1.657  0.6707  0.1734  0.0582
 1817TIP3    H127086   5.238   5.270   1.586 -0.8709 -0.3140  0.8688
 1817TIP3    H227087   5.372   5.281   1.657  0.6681  0.2482 -1.9818
 1818TIP3   OH227088   6.261   1.794   7.723  0.1066 -0.2981 -0.1722
 1818TIP3    H127089   6.342   1.764   7.680  2.2079  0.7014  2.7393
 1818TIP3    H227090   6.266   1.890   7.717 -0.1781 -0.1913  1.1245
 1819TIP3   OH227091   2.769   4.161   7.355  0.1768  0.1155  0.2864
 1819TIP3    H127092   2.751   4.094   7.289 -1.1069  0.2555  0.4699
 1819TIP3    H227093   2.735   4.124   7.437  0.5101  0.5067  0.6078
 1820TIP3   OH227094   5.043   4.196   8.492  0.2164 -0.0374  0.3990
 1820TIP3    H127095   5.115   4.142   8.461 -1.7235 -2.1849 -0.6279
 1820TIP3    H227096   5.053   4.198   8.588  1.6727 -0.1579  0.2690
 1821TIP3   OH227097   3.874   1.571   0.169 -0.6914  0.0984  0.4753
 1821TIP3    H127098   3.857   1.477   0.173 -0.6566  0.0165 -0.7739
 1821TIP3    H227099   3.949   1.584   0.227  0.5255 -0.9770 -0.7872
 1822TIP3   OH227100   3.998   6.219   0.526  0.5686  0.0340  0.2467
 1822TIP3    H127101   3.980   6.220   0.432  0.2394 -2.9051  0.1834
 1822TIP3    H227102   4.090   6.193   0.533  0.7166  0.6461  0.7710
 1823TIP3   OH227103   0.546   3.110   1.555  0.1288  0.3678  0.1777
 1823TIP3    H127104   0.485   3.071   1.617  0.2669  0.0096  0.0876
 1823TIP3    H227105   0.493   3.130   1.478  0.3692 -1.1615 -0.4190
 1824TIP3   OH227106   4.983   0.112   0.149  0.4129  0.1360  0.5091
 1824TIP3    H127107   4.958   0.171   0.220  0.5226  0.2886  0.4202
 1824TIP3    H227108   5.021   0.036   0.194  2.3225  1.0747  0.5595
 1825TIP3   OH227109   2.393   5.762   1.199 -0.2062 -0.1970 -0.4242
 1825TIP3    H127110   2.413   5.855   1.204 -0.5588 -0.1105 -0.5598
 1825TIP3    H227111   2.332   5.755   1.125 -0.5406 -0.4659 -0.1284
 1826TIP3   OH227112   4.864   2.269   0.956  0.1920 -0.1831 -0.0881
 1826TIP3    H127113   4.862   2.268   0.860  0.2529 -0.0348 -0.0919
 1826TIP3    H227114   4.873   2.177   0.981  1.9258 -0.0931 -0.2598
 1827TIP3   OH227115   4.725   0.472   8.233  0.0604 -0.3855  0.2965
 1827TIP3    H127116   4.698   0.407   8.298 -0.1678 -0.4855  0.1026
 1827TIP3    H227117   4.668   0.456   8.158  2.1925 -2.1992 -1.0958
 1828TIP3   OH227118   5.593   2.522   1.082  0.1344  0.1962  0.2124
 1828TIP3    H127119   5.588   2.608   1.041  1.2912  0.1451 -0.0592
 1828TIP3    H227120   5.615   2.463   1.011 -1.3883 -0.4707  0.2461
 1829TIP3   OH227121   3.814   6.082   7.496 -0.0790  0.4902 -0.2111
 1829TIP3    H127122   3.788   6.042   7.413  1.1972 -1.0635  0.0810
 1829TIP3    H227123   3.796   6.175   7.485 -0.9742  0.1637 -1.8101
 1830TIP3   OH227124   6.355   5.921   0.952 -0.6437 -0.6252 -0.1077
 1830TIP3    H127125   6.376   5.830   0.929  0.8695  0.0203 -1.5581
 1830TIP3    H227126   6.439   5.967   0.944 -1.7014  1.2331 -1.2112
 1831TIP3   OH227127   3.811   0.091   1.597 -0.2650  0.4310  0.5917
 1831TIP3    H127128   3.769   0.018   1.551  0.7171  0.6163 -0.6363
 1831TIP3    H227129   3.740   0.153   1.613 -0.6189  0.4128 -0.7880
 1832TIP3   OH227130   5.656   3.668   0.413  0.4436 -0.4981 -0.3726
 1832TIP3    H127131   5.749   3.654   0.394  0.2935  1.4154 -3.1998
 1832TIP3    H227132   5.612   3.591   0.375  0.8039 -1.5093  1.1527
 1833TIP3   OH227133   3.721   1.966   0.398  0.2460 -0.2205  0.2196
 1833TIP3    H127134   3.746   1.882   0.359  2.4287  1.2697 -1.8948
 1833TIP3    H227135   3.695   2.020   0.324  1.9140  1.9115  1.0931
 1834TIP3   OH227136   4.722   4.110   7.497 -0.3897  0.0218 -0.6528
 1834TIP3    H127137   4.768   4.168   7.436  0.3224  1.0261  0.7833
 1834TIP3    H227138   4.676   4.170   7.556  0.7716 -0.8059  1.1936
 1835TIP3   OH227139   5.550   0.298   8.264  0.3424  0.4034 -0.4196
 1835TIP3    H127140   5.643   0.313   8.249 -0.0778  1.5555 -2.2359
 1835TIP3    H227141   5.506   0.364   8.210 -1.5367 -0.8342 -0.5017
 1836TIP3   OH227142   5.986   0.692   1.862 -0.4979 -0.1447 -0.4268
 1836TIP3    H127143   5.995   0.771   1.809 -1.2724 -1.3227 -2.4524
 1836TIP3    H227144   6.066   0.642   1.846 -0.9110 -0.6927 -0.8623
 1837TIP3   OH227145   3.737   5.256   0.772  0.3159 -0.1715 -0.1654
 1837TIP3    H127146   3.776   5.298   0.695  1.9049  0.5068  0.9616
 1837TIP3    H227147   3.812   5.222   0.822 -0.6572 -0.3699  1.2183
 1838TIP3   OH227148   3.961   0.527   7.552 -0.0928  0.0213  0.2762
 1838TIP3    H127149   3.969   0.513   7.646  0.1352  1.6322  0.5281
 1838TIP3    H227150   4.039   0.577   7.529  1.5353 -2.9629 -1.4000
 1839TIP3   OH227151   0.039   4.785   1.747  0.0663  0.5099  0.1941
 1839TIP3    H127152   0.056   4.782   1.841  0.9621 -0.8389  0.0061
 1839TIP3    H227153   0.106   4.843   1.712  0.7187 -0.2248  0.2018
 1840TIP3   OH227154   0.503   1.787   0.797 -0.3418  0.0002  0.2159
 1840TIP3    H127155   0.462   1.824   0.875  0.3380  0.3869  0.4018
 1840TIP3    H227156   0.472   1.843   0.725  1.0664  1.2968  0.5568
 1841TIP3   OH227157   4.082   1.902   8.487 -0.5356  0.3741  0.1293
 1841TIP3    H127158   4.149   1.956   8.527  0.7883 -1.7580  0.9792
 1841TIP3    H227159   4.093   1.915   8.393  1.8300 -0.6903  0.1937
 1842TIP3   OH227160   2.016   4.280   1.460  0.2232 -0.1880 -0.3049
 1842TIP3    H127161   1.940   4.323   1.500 -0.6962 -0.9642 -1.1383
 1842TIP3    H227162   2.083   4.348   1.456 -1.0758  1.0975 -1.2643
 1843TIP3   OH227163   1.893   5.317   7.625  0.3411  0.0515  0.4884
 1843TIP3    H127164   1.906   5.397   7.675  3.7315  0.0096 -0.1186
 1843TIP3    H227165   1.847   5.345   7.546  3.8751  2.0990 -1.0590
 1844TIP3   OH227166   5.142   4.253   1.162 -0.5012 -0.5181  0.0751
 1844TIP3    H127167   5.188   4.169   1.175 -0.7491 -0.3960  2.0565
 1844TIP3    H227168   5.050   4.229   1.161 -0.5283 -0.3929 -0.5705
 1845TIP3   OH227169   1.483   3.662   8.141 -0.0634  0.3257 -0.2963
 1845TIP3    H127170   1.446   3.579   8.171 -1.7385  1.3706  0.6681
 1845TIP3    H227171   1.420   3.728   8.170  1.7421  2.0445 -0.0915
 1846TIP3   OH227172   1.109   4.566   8.519  0.2250  0.3193 -0.2664
 1846TIP3    H127173   1.147   4.515   8.447  1.7045 -0.8261  1.2256
 1846TIP3    H227174   1.169   4.639   8.530 -0.9094  1.4443 -1.2162
 1847TIP3   OH227175   3.303   3.801   7.126  0.0725 -0.3457  0.4937
 1847TIP3    H127176   3.317   3.776   7.035 -4.2812  0.9756 -0.7792
 1847TIP3    H227177   3.356   3.880   7.138 -0.3756  0.3024 -1.4172
 1848TIP3   OH227178   1.297   6.328   6.840  0.3582 -0.4086  0.0721
 1848TIP3    H127179   1.228   6.390   6.817  0.2576 -1.2393 -2.1253
 1848TIP3    H227180   1.315   6.282   6.759  1.5501 -2.1606  1.2621
 1849TIP3   OH227181   1.569   4.388   1.701  0.3618  0.0660 -0.0721
 1849TIP3    H127182   1.527   4.407   1.617  0.0533 -1.6625 -0.3429
 1849TIP3    H227183   1.501   4.344   1.752 -0.2902  3.2371  2.1012
 1850TIP3   OH227184   2.019   0.581   6.744 -0.1271 -0.2516  0.8674
 1850TIP3    H127185   2.081   0.587   6.817  0.7908 -1.4671  0.2154
 1850TIP3    H227186   2.008   0.672   6.714  1.2726 -0.0066  1.0462
 1851TIP3   OH227187   6.104   4.281   0.281 -0.2960 -0.4403 -0.2423
 1851TIP3    H127188   6.132   4.373   0.279 -1.1660 -0.1611 -0.1612
 1851TIP3    H227189   6.120   4.254   0.372 -0.7327 -0.1367 -0.0706
 1852TIP3   OH227190   2.390   0.621   1.368  0.2527 -0.3258 -0.4063
 1852TIP3    H127191   2.433   0.587   1.446 -0.1040  2.3319  1.0356
 1852TIP3    H227192   2.305   0.577   1.366  1.6210 -3.2275 -1.5186
 1853TIP3   OH227193   2.020   3.958   8.819 -0.0895 -0.0197 -0.2269
 1853TIP3    H127194   2.104   3.997   8.795  0.7496 -1.0956  0.8983
 1853TIP3    H227195   2.037   3.910   8.900 -1.7050 -0.5607 -0.1693
 1854TIP3   OH227196   4.234   6.569   1.014 -0.6739  0.1461  0.0960
 1854TIP3    H127197   4.224   6.476   0.995 -1.3335  0.1352  0.4520
 1854TIP3    H227198   4.144   6.602   1.019 -0.5687  0.2615  2.5275
 1855TIP3   OH227199   2.977   4.964   8.389 -0.3151  0.4269  0.2107
 1855TIP3    H127200   3.067   4.989   8.409 -0.0632 -0.5451  0.3156
 1855TIP3    H227201   2.958   4.892   8.449 -1.3008  0.8705  0.4574
 1856TIP3   OH227202   5.684   6.354   0.787 -0.1585 -0.6316 -0.4721
 1856TIP3    H127203   5.777   6.333   0.800 -0.4581 -1.2638  0.8522
 1856TIP3    H227204   5.643   6.333   0.871 -1.6689 -1.3124 -1.3346
 1857TIP3   OH227205   6.714   3.247   2.076 -0.4070  0.2225  0.3273
 1857TIP3    H127206   6.624   3.275   2.058 -0.2682 -0.0578 -0.9199
 1857TIP3    H227207   6.757   3.249   1.990  0.3149 -1.2781  0.6249
 1858TIP3   OH227208   0.050   4.523   8.832  0.1124 -0.0473  0.5611
 1858TIP3    H127209   0.067   4.467   8.908  0.6745 -1.6062 -0.6628
 1858TIP3    H227210   0.087   4.475   8.758  0.8439  2.0803 -0.5344
 1859TIP3   OH227211   4.626   1.044   7.204 -0.1577 -0.6074  0.2117
 1859TIP3    H127212   4.667   1.113   7.151  0.4756 -0.8553  0.3647
 1859TIP3    H227213   4.663   1.057   7.292 -0.6429 -0.6508  0.4252
 1860TIP3   OH227214   5.778   0.823   8.857  0.2499 -0.4749  0.3011
 1860TIP3    H127215   5.734   0.898   8.816 -0.3370 -0.3372  1.1780
 1860TIP3    H227216   5.746   0.747   8.808  0.4162 -0.2167 -0.2228
 1861TIP3   OH227217   4.378   1.108   7.467 -0.6734  0.3094  0.0288
 1861TIP3    H127218   4.395   1.169   7.395  0.3597 -0.1601 -0.1374
 1861TIP3    H227219   4.370   1.164   7.544 -1.3536  0.7804 -0.3666
 1862TIP3   OH227220   0.639   3.785   1.500  0.2994  0.0970 -0.2162
 1862TIP3    H127221   0.653   3.712   1.440  1.4579  0.3445 -0.2609
 1862TIP3    H227222   0.720   3.836   1.496 -0.4139  1.2786 -0.0288
 1863TIP3   OH227223   6.230   5.106   9.093 -0.8356  0.6630  0.1176
 1863TIP3    H127224   6.163   5.133   9.031  0.6853 -1.3080 -2.5646
 1863TIP3    H227225   6.308   5.153   9.066 -0.2734  0.2310  0.9450
 1864TIP3   OH227226   1.937   2.799   0.482  0.3422  0.1259 -0.2313
 1864TIP3    H127227   1.956   2.890   0.506 -0.6648  0.0088  1.1512
 1864TIP3    H227228   1.844   2.788   0.501  0.4238 -1.1725 -0.4646
 1865TIP3   OH227229   0.338   4.314   9.050  0.2758  0.1767 -0.3497
 1865TIP3    H127230   0.369   4.336   8.962 -0.3966  1.9532 -0.1786
 1865TIP3    H227231   0.416   4.280   9.095  1.5753  2.6661 -0.5465
 1866TIP3   OH227232   2.235   3.935   1.821 -0.3165  0.3161  0.1427
 1866TIP3    H127233   2.303   3.937   1.754 -0.0113  0.4470  0.4530
 1866TIP3    H227234   2.242   3.848   1.860 -0.6202  0.1705 -0.1190
 1867TIP3   OH227235   1.720   5.100   7.374 -0.2495 -0.1652 -0.0397
 1867TIP3    H127236   1.628   5.074   7.371 -0.3593  0.1657  0.3928
 1867TIP3    H227237   1.764   5.039   7.315 -1.0399  0.8596 -1.7929
 1868TIP3   OH227238   4.070   1.226   6.485 -0.3721 -0.0472 -0.6149
 1868TIP3    H127239   4.037   1.315   6.478  1.3748  0.7165  0.2935
 1868TIP3    H227240   4.134   1.218   6.415 -1.0964 -0.8971 -1.2111
 1869TIP3   OH227241   6.061   6.345   6.799  0.1960 -0.1214  0.1806
 1869TIP3    H127242   5.980   6.331   6.750  0.7742 -2.2007 -0.2740
 1869TIP3    H227243   6.031   6.380   6.884 -1.3269 -2.0913  0.5225
 1870TIP3   OH227244   3.659   4.907   1.682  0.2903 -0.4979 -0.2760
 1870TIP3    H127245   3.586   4.970   1.685  2.1197  1.7245  0.3412
 1870TIP3    H227246   3.652   4.860   1.765  0.7388  1.2050  0.7894
 1871TIP3   OH227247   6.276   6.710   0.811 -0.1169  0.6359  0.0434
 1871TIP3    H127248   6.320   6.722   0.895  1.1989  0.9212 -0.6637
 1871TIP3    H227249   6.199   6.656   0.832  0.3559  0.4350  1.3671
 1872TIP3   OH227250   1.348   0.822   1.082 -0.1618  0.0852  0.5946
 1872TIP3    H127251   1.429   0.806   1.131  0.1956 -1.8515 -0.5525
 1872TIP3    H227252   1.374   0.817   0.990 -1.4933 -0.0723  0.2044
 1873TIP3   OH227253   3.787   3.726   8.320  0.0480 -0.1927  0.1180
 1873TIP3    H127254   3.743   3.791   8.375  1.4516  1.0606 -0.1622
 1873TIP3    H227255   3.724   3.707   8.250 -0.1857  1.3823 -0.1518
 1874TIP3   OH227256   2.952   4.228   0.705  0.3509  0.2066 -0.0061
 1874TIP3    H127257   2.887   4.177   0.753  0.3973  0.2476  0.1022
 1874TIP3    H227258   3.028   4.169   0.697  0.9758  0.7649  1.4603
 1875TIP3   OH227259   5.160   6.283   8.781  0.0019  0.8556 -0.0187
 1875TIP3    H127260   5.219   6.354   8.754  0.8531  0.4594  0.7440
 1875TIP3    H227261   5.217   6.206   8.787 -0.5631  0.4932  0.8971
 1876TIP3   OH227262   4.306   1.306   0.480  0.1908 -0.1938 -0.0765
 1876TIP3    H127263   4.356   1.376   0.437  0.3643  0.8298  1.7110
 1876TIP3    H227264   4.234   1.352   0.524 -0.6992 -1.3501 -0.2916
 1877TIP3   OH227265   5.309   4.488   7.508 -0.0202  0.1431 -0.4395
 1877TIP3    H127266   5.275   4.467   7.595 -0.3891 -2.5237 -1.1554
 1877TIP3    H227267   5.239   4.463   7.448  0.5086  1.2788 -1.5820
 1878TIP3   OH227268   4.368   0.410   7.184  0.2059  0.2348  0.7351
 1878TIP3    H127269   4.381   0.355   7.107  1.6671 -0.0369  1.1408
 1878TIP3    H227270   4.324   0.488   7.152 -0.5584 -0.5270 -0.1097
 1879TIP3   OH227271   3.221   4.215   0.269  0.1740 -0.1847 -0.2158
 1879TIP3    H127272   3.162   4.184   0.201  1.7928 -2.1643 -0.8299
 1879TIP3    H227273   3.281   4.274   0.224 -0.3071  0.5522  0.0788
 1880TIP3   OH227274   4.325   1.567   7.648 -0.2807  0.2359  0.2687
 1880TIP3    H127275   4.248   1.553   7.702 -1.0343  0.0520 -0.8113
 1880TIP3    H227276   4.376   1.634   7.695 -0.5210 -0.4609  1.5537
 1881TIP3   OH227277   3.410   4.297   8.987  0.6153 -0.5834 -0.0219
 1881TIP3    H127278   3.400   4.296   8.892  0.3220  0.6112 -0.0200
 1881TIP3    H227279   3.421   4.205   9.011 -1.6857 -1.1647 -0.9570
 1882TIP3   OH227280   4.400   3.316   9.067 -0.0968 -0.0922  0.3671
 1882TIP3    H127281   4.326   3.288   9.012 -0.7907  0.1939  1.1279
 1882TIP3    H227282   4.366   3.312   9.156  1.1991 -1.1398  0.8461
 1883TIP3   OH227283   1.460   2.036   7.032 -0.1090 -0.0407  0.2720
 1883TIP3    H127284   1.368   2.039   7.004  0.7778  1.1324 -3.0048
 1883TIP3    H227285   1.502   1.977   6.969  1.4717 -0.2492  1.4628
 1884TIP3   OH227286   1.078   2.543   8.640  0.1165 -0.3588 -0.5610
 1884TIP3    H127287   1.171   2.541   8.666  0.2808  2.9485 -0.4619
 1884TIP3    H227288   1.079   2.570   8.548 -0.7499 -2.6217 -1.2865
 1885TIP3   OH227289   0.625   4.528   8.434 -0.0016  0.4355 -0.3627
 1885TIP3    H127290   0.578   4.561   8.510 -0.6788 -0.7688 -0.2311
 1885TIP3    H227291   0.708   4.497   8.469 -0.9878 -1.7038  0.2342
 1886TIP3   OH227292   5.642   6.532   1.809 -0.5154 -0.4635 -0.4292
 1886TIP3    H127293   5.651   6.503   1.719  1.4254 -0.7353 -0.1854
 1886TIP3    H227294   5.667   6.456   1.862 -1.6216 -0.3108  0.3664
 1887TIP3   OH227295   2.922   5.536   2.048  0.1086 -0.0337  0.0378
 1887TIP3    H127296   2.899   5.466   2.109 -1.2132  0.2268 -0.1285
 1887TIP3    H227297   2.863   5.524   1.973  0.2402  0.9224 -0.2404
 1888TIP3   OH227298   1.414   0.108   1.466  0.5246  0.3618 -0.4298
 1888TIP3    H127299   1.371   0.156   1.394  0.8987  0.2144 -0.7541
 1888TIP3    H227300   1.499   0.150   1.475  0.4217  0.4773  0.0332
 1889TIP3   OH227301   3.147   2.885   8.927 -0.1233 -0.1179  0.5860
 1889TIP3    H127302   3.205   2.944   8.878 -2.5774  1.7355 -0.2757
 1889TIP3    H227303   3.120   2.937   9.003 -0.9942 -0.7845  0.7360
 1890TIP3   OH227304   5.072   4.673   6.886 -0.2677  0.3781  0.3884
 1890TIP3    H127305   5.160   4.643   6.910 -0.3063  0.9861  1.3663
 1890TIP3    H227306   5.085   4.736   6.816 -0.1154 -1.1992 -1.0662
 1891TIP3   OH227307   6.311   1.018   9.064 -0.2682 -0.0529 -0.1193
 1891TIP3    H127308   6.237   0.957   9.063  1.1748 -1.9162  0.2767
 1891TIP3    H227309   6.362   0.994   8.986  1.2856 -0.6650  1.0413
 1892TIP3   OH227310   5.741   4.056   1.532 -0.4763 -0.0400 -0.6502
 1892TIP3    H127311   5.667   4.094   1.486 -0.0604  0.1800 -1.1486
 1892TIP3    H227312   5.717   3.965   1.546 -0.7422 -0.0273 -1.0195
 1893TIP3   OH227313   6.360   4.749   8.191  0.1055 -0.1194 -0.5822
 1893TIP3    H127314   6.439   4.707   8.225  0.3320 -0.3683 -1.3968
 1893TIP3    H227315   6.307   4.677   8.156 -0.8967 -0.0613  0.7349
 1894TIP3   OH227316   5.945   1.042   8.189 -0.5136  0.3932  0.6334
 1894TIP3    H127317   6.010   0.987   8.233 -1.1118 -1.6215 -0.8487
 1894TIP3    H227318   5.865   0.989   8.189 -0.8400  0.7704 -1.8377
 1895TIP3   OH227319   3.789   1.754   8.781  0.2482 -0.5434 -0.2455
 1895TIP3    H127320   3.755   1.714   8.860  0.3606  0.5351  0.3663
 1895TIP3    H227321   3.869   1.799   8.808  0.6263 -0.6753 -1.0905
 1896TIP3   OH227322   2.368   5.791   7.632  0.9321 -0.1722  0.3510
 1896TIP3    H127323   2.398   5.756   7.549  0.8829 -0.4938  0.4673
 1896TIP3    H227324   2.291   5.844   7.610  0.4926 -0.8322  0.2795
 1897TIP3   OH227325   2.252   2.914   1.686 -0.0845 -0.5440  0.1004
 1897TIP3    H127326   2.209   2.878   1.608  2.4346 -0.8484 -1.2537
 1897TIP3    H227327   2.315   2.847   1.712  0.3610  0.3272  1.3525
 1898TIP3   OH227328   5.043   4.219   8.754  0.1565  0.1479 -0.0838
 1898TIP3    H127329   5.052   4.304   8.797 -2.6721  0.9311 -0.8074
 1898TIP3    H227330   4.976   4.173   8.804  1.3374 -1.5550  0.0351
 1899TIP3   OH227331   1.348   3.665   7.877 -0.9945  0.1361  0.0412
 1899TIP3    H127332   1.386   3.687   7.961 -2.0378  0.2170  0.5082
 1899TIP3    H227333   1.368   3.572   7.864  0.8523  0.5695 -0.5550
 1900TIP3   OH227334   0.128   2.707   2.157 -0.2522 -0.7353 -0.2610
 1900TIP3    H127335   0.110   2.614   2.145  0.1471 -1.0256  1.1534
 1900TIP3    H227336   0.216   2.710   2.195 -1.5574 -0.0648  3.0640
 1901TIP3   OH227337   3.664   5.070   8.688 -0.0424 -0.3289  0.1934
 1901TIP3    H127338   3.643   4.987   8.644  1.4371 -0.3947 -0.4315
 1901TIP3    H227339   3.596   5.079   8.755  0.4071 -2.6114  1.0351
 1902TIP3   OH227340   2.238   0.656   7.576  0.0062  0.5305 -0.5016
 1902TIP3    H127341   2.197   0.593   7.635 -0.6251  1.9584  0.6408
 1902TIP3    H227342   2.267   0.604   7.501 -0.0017 -1.1924  0.6454
 1903TIP3   OH227343   1.297   5.734   8.623  0.0230  0.1256 -0.2184
 1903TIP3    H127344   1.284   5.701   8.712 -1.2124 -0.7636 -0.6901
 1903TIP3    H227345   1.292   5.829   8.631  0.4090  0.0754  0.7302
 1904TIP3   OH227346   4.401   5.607   7.042  0.4815 -0.5341 -0.1627
 1904TIP3    H127347   4.417   5.587   6.950  0.7645 -1.7392  0.1359
 1904TIP3    H227348   4.309   5.584   7.056  1.0061 -2.5205  0.3722
 1905TIP3   OH227349   6.695   1.080   1.201  0.1361 -0.3067  0.0108
 1905TIP3    H127350   6.687   1.143   1.273 -0.1524  0.1224 -0.3925
 1905TIP3    H227351   6.740   1.005   1.240  0.1830  0.0120  0.5824
 1906TIP3   OH227352   3.718   4.844   2.501  0.0544 -0.0053 -0.7370
 1906TIP3    H127353   3.751   4.899   2.430  1.7567  1.2612  0.9296
 1906TIP3    H227354   3.795   4.798   2.534 -0.4725  0.2633  0.9665
 1907TIP3   OH227355   1.014   1.739   0.155  0.3229 -0.5011 -0.2058
 1907TIP3    H127356   1.098   1.714   0.117 -0.0450 -3.5172  0.7371
 1907TIP3    H227357   1.000   1.678   0.227 -1.7910  1.1730  0.9426
 1908TIP3   OH227358   4.146   3.004   7.557  0.4280  0.2829 -0.4630
 1908TIP3    H127359   4.129   3.028   7.648 -1.2303 -1.3074 -0.3067
 1908TIP3    H227360   4.242   3.005   7.549  0.6061  0.3731  1.3069
 1909TIP3   OH227361   2.418   2.502   1.494 -0.9780 -0.2257 -0.1612
 1909TIP3    H127362   2.428   2.420   1.543  1.4216  0.1052  0.0504
 1909TIP3    H227363   2.491   2.501   1.432 -2.4245  0.5987 -1.9671
 1910TIP3   OH227364   2.071   4.892   7.704 -0.4548  0.1948 -0.2573
 1910TIP3    H127365   2.147   4.932   7.661 -1.6537  0.5645 -2.1428
 1910TIP3    H227366   1.996   4.921   7.653 -1.7121 -1.6667  0.4112
 1911TIP3   OH227367   6.569   4.563   0.225  0.4985  0.5711 -0.1600
 1911TIP3    H127368   6.532   4.648   0.252  0.0273  0.1066  0.6783
 1911TIP3    H227369   6.603   4.525   0.305  0.3920 -0.1924 -0.4715
 1912TIP3   OH227370   1.176   3.793   1.583 -0.0643  0.4777 -0.0209
 1912TIP3    H127371   1.091   3.751   1.578  0.1866 -0.0627  0.1609
 1912TIP3    H227372   1.178   3.854   1.509 -1.0599  1.3503  0.6466
 1913TIP3   OH227373   2.916   1.186   8.226  0.6606 -0.0157 -0.0655
 1913TIP3    H127374   2.959   1.226   8.301 -1.6143  1.5348  0.5256
 1913TIP3    H227375   2.822   1.198   8.244 -0.0103 -1.9269 -1.9292
 1914TIP3   OH227376   1.101   5.078   2.056  0.0946  0.4703 -0.1607
 1914TIP3    H127377   1.061   5.148   2.108  1.0360  0.6795  0.3095
 1914TIP3    H227378   1.189   5.068   2.093  0.4587 -0.0211 -1.1171
 1915TIP3   OH227379   4.392   5.922   1.436  0.8866  0.4597  0.6258
 1915TIP3    H127380   4.400   6.004   1.485  1.8796  0.8677 -0.1844
 1915TIP3    H227381   4.298   5.910   1.423  0.7510  1.6198  0.4913
 1916TIP3   OH227382   6.041   5.435   0.933  0.1154  0.8960 -0.5307
 1916TIP3    H127383   5.946   5.437   0.943  0.0966  1.1507 -0.7468
 1916TIP3    H227384   6.068   5.526   0.947  0.0747  1.3071 -2.8204
 1917TIP3   OH227385   2.285   5.273   0.988 -0.3288  0.6746 -0.5819
 1917TIP3    H127386   2.319   5.330   1.057  0.4172 -0.1529 -0.2506
 1917TIP3    H227387   2.266   5.190   1.032 -0.3130  0.2942 -1.2705
 1918TIP3   OH227388   0.126   1.859   7.338  0.1821  0.2693  0.5527
 1918TIP3    H127389   0.044   1.810   7.348  0.3117 -0.5140 -1.7259
 1918TIP3    H227390   0.180   1.805   7.281  2.5781  0.4825  2.4300
 1919TIP3   OH227391   1.334   5.327   6.639  0.1103  0.2579 -0.3630
 1919TIP3    H127392   1.322   5.399   6.701 -0.0945 -0.3883  0.3629
 1919TIP3    H227393   1.299   5.250   6.684  1.5065 -0.5474 -0.6026
 1920TIP3   OH227394   1.929   4.473   0.012  0.5209  0.0312 -0.6614
 1920TIP3    H127395   1.972   4.460  -0.073 -0.0801 -0.1456 -0.9456
 1920TIP3    H227396   1.945   4.392   0.060 -0.2927 -0.4286 -1.1313
 1921TIP3   OH227397   5.993   4.966   8.711 -0.8250  0.6546  0.0634
 1921TIP3    H127398   5.999   5.048   8.760  1.8870  0.9911 -0.6454
 1921TIP3    H227399   6.084   4.936   8.705 -1.7068 -2.2307 -0.0147
 1922TIP3   OH227400   6.167   0.251   1.732 -1.0385 -0.1630  0.2316
 1922TIP3    H127401   6.208   0.219   1.652 -1.7407  0.3731 -0.3664
 1922TIP3    H227402   6.117   0.177   1.765  0.6509 -0.9260  1.1560
 1923TIP3   OH227403   0.088   1.564   1.871 -0.0939  0.0882  0.1534
 1923TIP3    H127404   0.099   1.649   1.827 -1.0627 -1.0096 -2.3987
 1923TIP3    H227405   0.147   1.569   1.946  0.4700  2.7232 -0.3408
 1924TIP3   OH227406   3.679   1.010   9.040  0.7968 -0.1898  0.6979
 1924TIP3    H127407   3.636   0.963   9.112 -0.7731 -1.0560 -0.7326
 1924TIP3    H227408   3.696   0.942   8.974  0.1541  0.9023 -0.6555
 1925TIP3   OH227409   1.092   6.226   8.649 -0.2777  0.4198  0.0282
 1925TIP3    H127410   1.008   6.269   8.664 -0.8115 -0.4493 -0.4207
 1925TIP3    H227411   1.136   6.280   8.583 -0.5313  0.8133  0.1827
 1926TIP3   OH227412   0.795   6.485   8.437  0.2518  0.3583  0.1385
 1926TIP3    H127413   0.845   6.526   8.507  0.4833 -0.3747  0.4126
 1926TIP3    H227414   0.725   6.547   8.418  0.1466  0.5369  1.0656
 1927TIP3   OH227415   1.925   1.713   0.482 -0.7203  0.2876  0.5688
 1927TIP3    H127416   1.929   1.641   0.544 -2.5846 -0.4770 -0.1222
 1927TIP3    H227417   1.948   1.673   0.398  0.7759  1.0938  0.5504
 1928TIP3   OH227418   2.689   4.812   7.422  0.1850 -0.4371 -0.0318
 1928TIP3    H127419   2.706   4.883   7.484  0.5529  0.0066 -0.6414
 1928TIP3    H227420   2.738   4.738   7.457  0.5090 -0.1496  0.1316
 1929TIP3   OH227421   1.231   4.202   8.204  0.2395 -0.6699 -0.8070
 1929TIP3    H127422   1.297   4.266   8.178 -0.9923 -0.1373 -2.7984
 1929TIP3    H227423   1.226   4.210   8.300  1.7550  0.5305 -0.7934
 1930TIP3   OH227424   5.894   2.812   0.581 -0.3418  0.3311 -0.2849
 1930TIP3    H127425   5.882   2.718   0.596 -2.7779  0.6964  0.5191
 1930TIP3    H227426   5.954   2.840   0.650 -0.4876 -0.4431  0.1643
 1931TIP3   OH227427   4.196   4.184   7.398  0.1230 -0.2816 -0.3271
 1931TIP3    H127428   4.196   4.162   7.491 -1.2342  1.3004  0.0925
 1931TIP3    H227429   4.135   4.122   7.359 -0.8016  0.2627  0.1999
 1932TIP3   OH227430   6.378   1.387   1.505 -0.5148 -0.1953  0.2292
 1932TIP3    H127431   6.344   1.457   1.560 -0.5109  0.6840 -0.8383
 1932TIP3    H227432   6.466   1.415   1.480 -0.2004 -0.9654  0.4315
 1933TIP3   OH227433   5.069   6.687   2.398  0.4016  0.5509  0.6722
 1933TIP3    H127434   5.121   6.616   2.434  0.1110  0.4644  0.9282
 1933TIP3    H227435   5.071   6.755   2.465 -1.3566 -0.1823  1.5326
 1934TIP3   OH227436   0.664   4.184   1.140 -0.9418 -0.3313 -0.1996
 1934TIP3    H127437   0.726   4.114   1.159 -1.7624 -1.3364 -1.0617
 1934TIP3    H227438   0.710   4.264   1.162 -0.0670 -1.1517  1.0888
 1935TIP3   OH227439   0.354   0.567   0.640  0.3167  0.4534  0.5889
 1935TIP3    H127440   0.352   0.477   0.606  0.2525  0.3840  0.7706
 1935TIP3    H227441   0.270   0.604   0.613  0.5807  0.6467  0.0215
 1936TIP3   OH227442   1.783   3.287   0.656  0.1759 -0.3632 -0.6980
 1936TIP3    H127443   1.852   3.249   0.602  0.4841  0.4597 -0.8962
 1936TIP3    H227444   1.796   3.382   0.650  0.6238 -0.2462  1.3285
 1937TIP3   OH227445   3.221   6.166   1.528  0.4086  0.4935  0.3264
 1937TIP3    H127446   3.232   6.123   1.613  2.2444 -0.9369 -0.5661
 1937TIP3    H227447   3.126   6.163   1.513  0.1936 -0.6068  1.6361
 1938TIP3   OH227448   3.477   3.164   7.403 -0.2108  0.0672  0.0438
 1938TIP3    H127449   3.419   3.111   7.457 -1.1135  0.3373 -0.6267
 1938TIP3    H227450   3.563   3.125   7.413 -0.7660 -1.2207 -0.0496
 1939TIP3   OH227451   3.851   1.108   7.588  0.1234  0.2860  0.1741
 1939TIP3    H127452   3.945   1.113   7.606  0.4871  1.0135 -1.6659
 1939TIP3    H227453   3.831   1.014   7.591  1.5598 -0.1927 -2.1301
 1940TIP3   OH227454   3.165   2.581   8.715 -0.1535 -0.0812 -0.2648
 1940TIP3    H127455   3.192   2.637   8.643  0.3067  0.6603  0.4694
 1940TIP3    H227456   3.070   2.589   8.718  0.0013  2.4566  1.1904
 1941TIP3   OH227457   0.974   3.197   9.091 -0.2166  0.0259 -0.3370
 1941TIP3    H127458   1.042   3.145   9.049  0.6807  0.5975  0.3750
 1941TIP3    H227459   0.993   3.191   9.184 -0.2514  1.3970 -0.2231
 1942TIP3   OH227460   2.468   5.925   8.017  0.7494  0.2983  0.3304
 1942TIP3    H127461   2.396   5.971   7.974  1.7740  1.4621 -0.1823
 1942TIP3    H227462   2.537   5.921   7.952  2.2479  1.8621  1.7424
 1943TIP3   OH227463   6.179   3.189   1.506  0.1091 -0.0367 -0.3443
 1943TIP3    H127464   6.273   3.203   1.510 -0.0507  1.1965 -0.3969
 1943TIP3    H227465   6.168   3.094   1.506  1.5602 -0.4013 -4.2818
 1944TIP3   OH227466   6.532   6.035   7.650 -0.2378  0.9775  0.2197
 1944TIP3    H127467   6.611   6.032   7.704 -0.6934  1.5460  0.9334
 1944TIP3    H227468   6.496   6.122   7.666 -1.3121  0.5150  0.3391
 1945TIP3   OH227469   0.906   3.662   0.323 -0.1937  0.1888  0.3074
 1945TIP3    H127470   0.881   3.750   0.351  0.3301  0.3770  0.1895
 1945TIP3    H227471   0.825   3.611   0.329 -0.2823  0.4308  1.3705
 1946TIP3   OH227472   0.647   1.184   1.669  0.0618  0.0466  0.0669
 1946TIP3    H127473   0.559   1.148   1.666  0.3384 -1.1037  2.5106
 1946TIP3    H227474   0.677   1.185   1.578 -1.9926 -0.7277 -0.6604
 1947TIP3   OH227475   6.575   1.756   1.632 -0.1007  0.1068  0.1712
 1947TIP3    H127476   6.624   1.763   1.714  0.9988 -2.2819 -0.1996
 1947TIP3    H227477   6.557   1.846   1.606  2.1443  0.9976  1.4961
 1948TIP3   OH227478   2.003   5.281   0.938 -0.2499  0.2565 -0.0288
 1948TIP3    H127479   2.094   5.252   0.938 -0.4890 -0.7860 -2.3905
 1948TIP3    H227480   2.007   5.374   0.960  1.4922  0.4117 -0.8014
 1949TIP3   OH227481   1.135   0.239   0.312 -0.5855  0.1617  0.2938
 1949TIP3    H127482   1.163   0.233   0.403 -1.1380  0.0249  0.4594
 1949TIP3    H227483   1.139   0.333   0.292 -0.3608  0.1799  0.4236
 1950TIP3   OH227484   3.557   5.874   7.907  0.2000 -0.5019 -0.9544
 1950TIP3    H127485   3.502   5.880   7.829 -0.7768  1.5766 -0.1777
 1950TIP3    H227486   3.627   5.938   7.893 -0.2848  0.2807  0.0677
 1951TIP3   OH227487   2.636   1.461   6.867  0.2806 -0.0547  0.3630
 1951TIP3    H127488   2.611   1.542   6.821 -1.1059 -1.3221 -1.2732
 1951TIP3    H227489   2.557   1.407   6.865  0.7373 -0.9246  2.6970
 1952TIP3   OH227490   4.340   4.470   8.856 -0.2682  0.1259  0.2094
 1952TIP3    H127491   4.410   4.523   8.896  1.9591 -2.1022 -0.4314
 1952TIP3    H227492   4.318   4.405   8.922  0.9306 -1.4121 -0.8259
 1953TIP3   OH227493   3.186   4.951   7.653  0.0404 -0.0621  0.1254
 1953TIP3    H127494   3.148   4.867   7.677  0.8397 -1.1027 -2.0068
 1953TIP3    H227495   3.145   4.973   7.570  2.7425 -0.4099 -1.4158
 1954TIP3   OH227496   4.574   5.785   8.276 -0.5062 -0.2534  0.2723
 1954TIP3    H127497   4.577   5.719   8.345 -2.8800 -0.8054 -0.0855
 1954TIP3    H227498   4.556   5.867   8.322  2.4746  0.2514  0.7197
 1955TIP3   OH227499   1.210   4.957   8.209  0.0454 -0.1153  0.2995
 1955TIP3    H127500   1.304   4.966   8.196  0.2980 -0.4313  1.7335
 1955TIP3    H227501   1.194   4.863   8.203 -0.0120 -0.1565  0.9974
 1956TIP3   OH227502   6.143   1.381   1.386  0.8135  0.1595  0.1437
 1956TIP3    H127503   6.144   1.476   1.386 -0.1728  0.1907 -1.2454
 1956TIP3    H227504   6.227   1.356   1.425 -0.1724  1.5322  3.4778
 1957TIP3   OH227505   0.958   2.272   8.633  0.0918 -0.2536 -0.1600
 1957TIP3    H127506   1.046   2.239   8.650  0.8584  0.6447 -2.0356
 1957TIP3    H227507   0.967   2.368   8.637 -0.9345 -0.1583  0.1710
 1958TIP3   OH227508   5.734   5.196   0.848  0.0525  0.0542  0.0805
 1958TIP3    H127509   5.664   5.134   0.871  0.3057 -0.6999 -1.1195
 1958TIP3    H227510   5.786   5.150   0.783  1.0599  1.0242  0.1854
 1959TIP3   OH227511   2.582   0.766   7.815 -0.0578  0.6014 -0.6134
 1959TIP3    H127512   2.575   0.686   7.866 -1.6714  0.9393 -0.2540
 1959TIP3    H227513   2.627   0.739   7.734  1.3408 -0.1966  0.3824
 1960TIP3   OH227514   5.445   2.172   8.250  0.2245  0.0794 -0.1293
 1960TIP3    H127515   5.442   2.181   8.345 -0.8502  0.9981 -0.2179
 1960TIP3    H227516   5.355   2.148   8.225  0.6245 -0.7068 -0.8660
 1961TIP3   OH227517   0.052   5.179   1.241  0.2868  0.3768 -0.1643
 1961TIP3    H127518   0.131   5.127   1.258 -0.6719 -0.8840  0.6230
 1961TIP3    H227519  -0.007   5.156   1.313 -1.2864  0.2990 -1.4419
 1962TIP3   OH227520   2.411   3.097   7.588  0.1972 -0.0240  0.1774
 1962TIP3    H127521   2.375   3.076   7.503 -1.5925 -0.0913  0.9137
 1962TIP3    H227522   2.440   3.013   7.624  0.6254 -0.0422 -0.2017
 1963TIP3   OH227523   3.651   3.475   0.544 -0.0255  0.0073 -0.2560
 1963TIP3    H127524   3.685   3.509   0.627 -1.6377  1.3713 -0.0980
 1963TIP3    H227525   3.678   3.540   0.479  0.2147 -0.4419 -0.6059
 1964TIP3   OH227526   2.041   3.758   1.566 -0.0820  0.0295  0.0627
 1964TIP3    H127527   2.005   3.808   1.492 -0.1569  1.6360  1.1321
 1964TIP3    H227528   2.102   3.819   1.608  0.2446 -0.9891  1.1132
 1965TIP3   OH227529   3.128   1.731   0.709  0.5193 -0.3331  0.3704
 1965TIP3    H127530   3.212   1.762   0.676 -0.0186 -0.0735 -0.7840
 1965TIP3    H227531   3.078   1.810   0.727 -0.2281 -0.4791 -0.9450
 1966TIP3   OH227532   5.944   0.342   7.869  0.2558 -0.0417 -0.7489
 1966TIP3    H127533   5.981   0.254   7.879 -0.7331 -0.5302 -1.2436
 1966TIP3    H227534   6.017   0.395   7.838  0.6976 -0.8354 -1.1043
 1967TIP3   OH227535   0.699   2.927   8.752  0.1465  0.5145 -0.7172
 1967TIP3    H127536   0.757   2.981   8.806  1.9062 -2.4279  0.5794
 1967TIP3    H227537   0.757   2.881   8.692 -0.9179 -1.6269 -0.2167
 1968TIP3   OH227538   3.138   1.804   1.018 -0.3770  0.1621  0.2410
 1968TIP3    H127539   3.189   1.796   1.099  0.5986 -0.9729 -0.4530
 1968TIP3    H227540   3.055   1.761   1.037 -1.0430  1.8504  1.3225
 1969TIP3   OH227541   5.433   3.293   0.030 -0.0596 -0.1082 -0.0376
 1969TIP3    H127542   5.375   3.318  -0.042  0.0004  1.6768  0.4699
 1969TIP3    H227543   5.502   3.241  -0.011 -1.0000 -0.6763 -0.9487
 1970TIP3   OH227544   2.284   6.686   2.237 -0.2191 -0.0244  0.0794
 1970TIP3    H127545   2.359   6.656   2.289 -0.7545  0.5536  1.2298
 1970TIP3    H227546   2.207   6.653   2.284 -0.7102 -0.5786 -1.0650
 1971TIP3   OH227547   1.430   2.388   0.084  0.2737  0.5907 -0.5605
 1971TIP3    H127548   1.504   2.388   0.145  2.6128  1.1859 -3.1640
 1971TIP3    H227549   1.413   2.480   0.066 -1.1653  0.4642 -0.0060
 1972TIP3   OH227550   4.348   3.120   6.993  0.6840  0.7291  0.5881
 1972TIP3    H127551   4.255   3.099   6.986  0.6244  1.5140 -2.7510
 1972TIP3    H227552   4.351   3.211   7.022  0.1478  1.8462 -2.5058
 1973TIP3   OH227553   1.140   6.584   0.118  0.0476  0.4294 -0.1117
 1973TIP3    H127554   1.199   6.610   0.189  0.0289  0.0520  0.0481
 1973TIP3    H227555   1.141   6.488   0.121  0.0818  0.4111 -0.6535
 1974TIP3   OH227556   4.316   0.836   8.136  0.0238  0.2357 -0.3619
 1974TIP3    H127557   4.407   0.812   8.123 -0.2121 -1.2436  0.4255
 1974TIP3    H227558   4.315   0.932   8.133  1.3237  0.2363 -1.9479
 1975TIP3   OH227559   5.456   2.065   0.011  0.0406 -0.2231  0.2797
 1975TIP3    H127560   5.416   2.003  -0.049 -1.2734 -0.3034  1.2217
 1975TIP3    H227561   5.384   2.119   0.042  0.9879  1.0476  0.3556
 1976TIP3   OH227562   4.922   4.884   2.108  0.1633  0.5126  0.3275
 1976TIP3    H127563   4.974   4.818   2.062 -0.4394 -1.4817  2.2895
 1976TIP3    H227564   4.985   4.950   2.135  1.7260 -1.5823  2.2005
 1977TIP3   OH227565   4.278   1.176   8.992  0.1327 -0.5856  0.2681
 1977TIP3    H127566   4.239   1.158   9.077 -1.9511 -0.5407 -0.6190
 1977TIP3    H227567   4.228   1.249   8.957  1.4069 -0.1372 -0.7185
 1978TIP3   OH227568   6.631   6.422   7.149 -0.2430 -0.7058 -0.0017
 1978TIP3    H127569   6.698   6.357   7.167 -0.3996 -0.4688  1.6796
 1978TIP3    H227570   6.589   6.393   7.069  1.9101 -0.8003 -1.1765
 1979TIP3   OH227571   4.837   5.516   0.105  0.4323 -1.0411 -0.1353
 1979TIP3    H127572   4.898   5.560   0.164 -0.8796  0.3665  0.2284
 1979TIP3    H227573   4.753   5.558   0.122 -0.2130 -1.4178 -2.1760
 1980TIP3   OH227574   3.812   1.406   7.907 -0.2683  0.0419  0.4956
 1980TIP3    H127575   3.762   1.430   7.985  0.0687  0.1679  0.6771
 1980TIP3    H227576   3.838   1.490   7.868 -2.6060  0.0815 -1.2176
 1981TIP3   OH227577   1.895   4.557   8.344 -0.8615 -0.0619  0.4228
 1981TIP3    H127578   1.922   4.623   8.408 -2.9034  1.5372 -0.2155
 1981TIP3    H227579   1.807   4.532   8.373 -0.9678 -0.8878 -0.5870
 1982TIP3   OH227580   6.015   4.792   6.869 -0.5587 -0.1390 -0.4839
 1982TIP3    H127581   6.076   4.848   6.918 -1.6358 -1.4641  2.5785
 1982TIP3    H227582   5.947   4.852   6.838  0.1312  0.7305 -0.3618
 1983TIP3   OH227583   0.095   2.311   2.722  0.0445 -0.2293  0.1336
 1983TIP3    H127584   0.056   2.394   2.696  0.5128 -0.4876 -1.4676
 1983TIP3    H227585   0.026   2.246   2.710 -0.9332  0.0881  3.1206
 1984TIP3   OH227586   0.007   4.797   1.327  0.2449 -0.2150  0.3600
 1984TIP3    H127587   0.047   4.828   1.246 -1.0723  1.9342  0.4782
 1984TIP3    H227588   0.076   4.747   1.369  1.5405  0.1363 -1.2349
 1985TIP3   OH227589   2.682   2.289   0.878 -0.2602  0.4630  0.1032
 1985TIP3    H127590   2.697   2.383   0.889 -0.1587  0.6669 -1.4504
 1985TIP3    H227591   2.605   2.284   0.820 -0.4534 -0.4208  0.4190
 1986TIP3   OH227592   3.848   6.505   8.380 -0.2086  0.1768 -0.1348
 1986TIP3    H127593   3.931   6.537   8.347 -0.7956  0.6631 -1.1928
 1986TIP3    H227594   3.782   6.550   8.327 -1.1042 -1.7271 -0.7263
 1987TIP3   OH227595   3.016   0.344   7.517  0.2388  0.2885  0.6378
 1987TIP3    H127596   2.990   0.283   7.586 -4.1204 -0.8372 -1.6371
 1987TIP3    H227597   3.043   0.287   7.444  0.1921  1.2458 -0.1440
 1988TIP3   OH227598   1.425   0.183   8.375  0.0715  0.1044  0.4293
 1988TIP3    H127599   1.372   0.104   8.360  0.6828  0.1116 -2.1116
 1988TIP3    H227600   1.471   0.165   8.457 -0.3594 -1.8787  0.2981
 1989TIP3   OH227601   4.949   2.660   0.288 -0.2706 -0.0598  0.1186
 1989TIP3    H127602   4.903   2.695   0.212  0.3675 -0.6551 -0.5579
 1989TIP3    H227603   4.886   2.667   0.359 -1.0674  0.0181 -0.5751
 1990TIP3   OH227604   1.981   2.672   8.382  0.6582  0.5036 -0.5360
 1990TIP3    H127605   1.940   2.753   8.352  0.3477  0.4188 -0.3448
 1990TIP3    H227606   2.068   2.699   8.411  0.7062  0.6996 -0.8596
 1991TIP3   OH227607   1.404   1.844   1.944  0.5229  0.1293  0.0916
 1991TIP3    H127608   1.320   1.797   1.942  0.2707  0.5937 -0.4076
 1991TIP3    H227609   1.390   1.920   1.888  0.3417  1.8334  2.3113
 1992TIP3   OH227610   2.702   1.738   1.220  0.3758  0.2335  0.0583
 1992TIP3    H127611   2.740   1.777   1.298 -0.1083  3.6184 -1.2274
 1992TIP3    H227612   2.611   1.768   1.219 -0.5044 -2.1605 -0.3907
 1993TIP3   OH227613   2.874   4.995   6.385 -0.2732 -0.7511  0.5070
 1993TIP3    H127614   2.837   5.027   6.467 -2.1079 -1.1055 -0.1421
 1993TIP3    H227615   2.904   5.074   6.339 -0.3107 -0.4468  1.0006
 1994TIP3   OH227616   1.502   4.079   1.609  0.1808  0.0119  0.2133
 1994TIP3    H127617   1.589   4.041   1.619  0.1708 -0.4989 -1.3397
 1994TIP3    H227618   1.470   4.044   1.526 -1.6780 -0.1293  0.9322
 1995TIP3   OH227619   5.110   4.884   0.910  0.5687 -0.3959  1.1194
 1995TIP3    H127620   5.112   4.892   0.815 -1.7157 -2.1069  0.8339
 1995TIP3    H227621   5.193   4.921   0.939  1.6806 -0.5517 -1.5734
 1996TIP3   OH227622   1.840   0.114   0.717 -0.0347 -0.0620  0.5028
 1996TIP3    H127623   1.818   0.144   0.805 -0.6125  2.7127 -0.4807
 1996TIP3    H227624   1.756   0.114   0.671  0.4274 -0.3750 -0.3544
 1997TIP3   OH227625   4.302   5.273   8.735  0.2669  0.1251 -0.2965
 1997TIP3    H127626   4.332   5.356   8.698  2.0901 -0.2280  0.2624
 1997TIP3    H227627   4.231   5.245   8.678 -0.7031  2.2645 -0.2554
 1998TIP3   OH227628   4.950   3.711   7.601 -0.1405 -0.2543  0.7071
 1998TIP3    H127629   5.037   3.673   7.615 -0.2290 -1.1171 -0.8961
 1998TIP3    H227630   4.889   3.640   7.623 -0.3231 -0.8961 -1.6339
 1999TIP3   OH227631   5.160   3.956   1.612  0.0689 -0.3300 -0.2398
 1999TIP3    H127632   5.111   4.038   1.613  1.1888  0.4362  3.0115
 1999TIP3    H227633   5.175   3.938   1.519 -2.4499  1.7081 -1.1640
 2000TIP3   OH227634   0.462   4.277   8.469 -0.1609 -0.1668 -0.7032
 2000TIP3    H127635   0.546   4.269   8.513 -0.2481 -0.5889 -0.6156
 2000TIP3    H227636   0.468   4.359   8.420 -1.0388  1.8042  2.2165
 2001TIP3   OH227637   2.729   3.307   8.503 -0.0176 -0.2821  0.2189
 2001TIP3    H127638   2.730   3.293   8.409  0.5004  1.4560 -0.0632
 2001TIP3    H227639   2.814   3.346   8.523 -0.7053  0.8013  1.1577
 2002TIP3   OH227640   2.065   4.368   1.167  0.2710 -0.0046  0.2095
 2002TIP3    H127641   2.031   4.330   1.086 -0.8376  1.4542 -0.0443
 2002TIP3    H227642   1.997   4.428   1.196  0.8690 -0.1200  1.9746
 2003TIP3   OH227643   4.187   4.321   0.938 -0.4534  0.2059 -0.1584
 2003TIP3    H127644   4.230   4.335   0.854 -0.2328  0.3248 -0.0273
 2003TIP3    H227645   4.115   4.261   0.919 -0.3487  0.1629 -0.4155
 2004TIP3   OH227646   6.020   1.962   7.300  0.3119  0.9609  0.0952
 2004TIP3    H127647   6.021   1.898   7.230 -2.9184  0.2910  0.4773
 2004TIP3    H227648   5.965   2.033   7.267  0.6164  1.6971  1.1102
 2005TIP3   OH227649   2.559   4.677   2.226 -0.1119  0.0042 -0.0839
 2005TIP3    H127650   2.493   4.636   2.281  1.3747  0.4448  2.1786
 2005TIP3    H227651   2.515   4.753   2.188 -2.4065 -2.5294 -3.0023
 2006TIP3   OH227652   5.213   2.411   7.718 -0.1923  0.1516  0.5119
 2006TIP3    H127653   5.241   2.325   7.749 -0.2875  0.1098  0.4811
 2006TIP3    H227654   5.250   2.473   7.781 -1.2108  0.0120  1.2725
 2007TIP3   OH227655   0.727   1.291   8.947  0.5892  0.5832 -0.3278
 2007TIP3    H127656   0.805   1.275   9.000 -0.4284  1.7754  1.6646
 2007TIP3    H227657   0.752   1.361   8.887  0.8095  1.7656  1.0599
 2008TIP3   OH227658   2.438   2.252   8.476 -0.6223 -0.0206 -0.2421
 2008TIP3    H127659   2.429   2.313   8.550  0.9549 -1.5070  1.2491
 2008TIP3    H227660   2.506   2.290   8.421  0.5673 -0.5404  0.8399
 2009TIP3   OH227661   3.495   0.377   8.132 -0.0494  0.2285 -0.3168
 2009TIP3    H127662   3.558   0.335   8.074  0.5721  0.3941  0.2204
 2009TIP3    H227663   3.546   0.442   8.180 -0.3080 -0.5521  1.0989
 2010TIP3   OH227664   4.751   5.990   0.695 -0.1124  0.5422 -0.1414
 2010TIP3    H127665   4.764   6.020   0.605 -0.5242 -0.8835 -0.7116
 2010TIP3    H227666   4.839   5.965   0.724 -0.2256 -0.8600 -0.8873
 2011TIP3   OH227667   0.785   2.320   6.676 -0.1833 -0.1355  0.7231
 2011TIP3    H127668   0.691   2.335   6.670  0.1110  1.4750 -0.3493
 2011TIP3    H227669   0.825   2.402   6.649  1.5603 -1.5912 -1.4797
 2012TIP3   OH227670   6.109   1.343   8.598  0.1470  0.7449  0.4552
 2012TIP3    H127671   6.057   1.400   8.542 -0.2964  0.8553  0.9718
 2012TIP3    H227672   6.186   1.322   8.546 -0.7704 -0.0468 -0.6142
 2013TIP3   OH227673   0.652   3.409   0.072 -0.2931 -0.4480 -0.3621
 2013TIP3    H127674   0.738   3.436   0.105  0.0347  0.1437 -1.6568
 2013TIP3    H227675   0.594   3.415   0.149  0.7196 -0.4137  0.4145
 2014TIP3   OH227676   5.037   3.688   1.412 -0.0220  0.8932  0.4802
 2014TIP3    H127677   4.977   3.627   1.368 -0.0705  1.6364 -0.5223
 2014TIP3    H227678   4.981   3.759   1.443 -0.0777  0.0822  2.3443
 2015TIP3   OH227679   5.508   0.540   8.955  0.1011 -0.0669  0.1581
 2015TIP3    H127680   5.422   0.517   8.991  0.2703 -0.3528  0.3807
 2015TIP3    H227681   5.522   0.478   8.884  0.1713 -0.0914  0.1931
 2016TIP3   OH227682   0.731   5.946   1.969 -0.1916 -0.0524  0.8533
 2016TIP3    H127683   0.678   5.970   2.044  0.1460 -2.6123  2.0117
 2016TIP3    H227684   0.744   5.851   1.978 -0.7087 -0.6187 -2.7808
 2017TIP3   OH227685   5.086   1.359   1.928 -0.6603 -0.1125  0.3390
 2017TIP3    H127686   5.080   1.304   2.007 -0.9733  2.5328  2.2839
 2017TIP3    H227687   5.141   1.433   1.954 -0.1332  0.4911 -2.2060
 2018TIP3   OH227688   2.262   3.483   7.395 -0.1558 -0.5061 -0.0809
 2018TIP3    H127689   2.338   3.470   7.338  0.0127 -1.3317  0.3291
 2018TIP3    H227690   2.198   3.527   7.339  0.6038  0.1808 -0.4428
 2019TIP3   OH227691   5.324   2.560   8.071 -0.2482  0.4167  0.1028
 2019TIP3    H127692   5.307   2.543   8.163  1.9477 -0.0079  0.4857
 2019TIP3    H227693   5.337   2.655   8.066 -0.8312  0.5017  0.1268
 2020TIP3   OH227694   2.614   3.277   9.131  0.2665 -0.1510  0.0514
 2020TIP3    H127695   2.678   3.336   9.093  0.5158  0.3343  1.1970
 2020TIP3    H227696   2.529   3.316   9.110  0.4368  0.8493  1.1225
 2021TIP3   OH227697   0.483   4.215   8.040 -0.0000 -0.1613  0.8144
 2021TIP3    H127698   0.553   4.272   8.071 -1.5948  0.9618  2.5898
 2021TIP3    H227699   0.457   4.252   7.955  0.5749  0.2976  0.8370
 2022TIP3   OH227700   1.883   0.589   0.869  0.1418 -0.2322  0.0143
 2022TIP3    H127701   1.854   0.632   0.789  0.2389  0.0557  0.1309
 2022TIP3    H227702   1.965   0.545   0.845 -0.8424 -1.8405 -0.5620
 2023TIP3   OH227703   3.298   0.621   9.122 -0.6257  0.0738  0.2475
 2023TIP3    H127704   3.258   0.561   9.185  0.1631 -1.4611 -0.6403
 2023TIP3    H227705   3.228   0.642   9.060 -1.0976  0.6511  0.9781
 2024TIP3   OH227706   1.790   3.936   9.022  0.0447  0.8826 -0.0181
 2024TIP3    H127707   1.697   3.934   9.045  0.5442  1.0728  2.2110
 2024TIP3    H227708   1.805   4.025   8.991 -0.3779  1.0609  0.2774
 2025TIP3   OH227709   4.797   4.275   7.295  0.2605 -0.1366 -0.4165
 2025TIP3    H127710   4.819   4.367   7.311 -0.2788 -0.3325  1.8356
 2025TIP3    H227711   4.738   4.276   7.220 -0.4201  1.4475  0.1129
 2026TIP3   OH227712   2.903   2.731   1.863  0.5148 -0.2140  0.1768
 2026TIP3    H127713   2.985   2.700   1.902  1.7977  1.1518 -1.2665
 2026TIP3    H227714   2.904   2.826   1.876 -0.3072 -0.0471 -0.8234
 2027TIP3   OH227715   3.889   3.673   2.419  0.0702 -0.6684 -0.1763
 2027TIP3    H127716   3.864   3.762   2.443  0.9193 -0.6314  0.6292
 2027TIP3    H227717   3.823   3.617   2.461  0.5932 -0.5040  0.9159
 2028TIP3   OH227718   6.435   1.825   1.005 -0.6846  0.7724 -0.0159
 2028TIP3    H127719   6.483   1.891   0.956 -1.5509  1.6723  0.3138
 2028TIP3    H227720   6.488   1.746   0.997 -0.5429  1.0234 -1.9534
 2029TIP3   OH227721   3.012   2.280   7.253  0.3284 -0.1188 -0.1381
 2029TIP3    H127722   3.107   2.265   7.247  0.4579 -0.4628  1.7787
 2029TIP3    H227723   2.975   2.192   7.262 -0.0553  0.0760  0.2190
 2030TIP3   OH227724   5.063   0.029   0.728 -0.1307 -0.4361 -0.5281
 2030TIP3    H127725   5.002   0.061   0.794 -2.2804 -1.2227 -2.0530
 2030TIP3    H227726   5.050  -0.065   0.725  0.3233 -0.4812 -1.7032
 2031TIP3   OH227727   5.426   3.660   7.012  0.1208 -0.2714 -0.3992
 2031TIP3    H127728   5.480   3.739   7.009  0.1723 -0.2845  0.1371
 2031TIP3    H227729   5.336   3.693   7.009  0.1480 -0.2189 -0.6736
 2032TIP3   OH227730   5.940   1.116   8.994 -0.0353 -0.0732  0.6020
 2032TIP3    H127731   6.000   1.190   8.993  1.8465 -1.5362 -0.1897
 2032TIP3    H227732   5.896   1.123   9.079 -0.8858  2.6184  0.0386
 2033TIP3   OH227733   5.538   3.757   1.162  0.7457  0.3019  0.1945
 2033TIP3    H127734   5.506   3.739   1.250 -2.1505  0.0110 -0.8418
 2033TIP3    H227735   5.555   3.670   1.124 -0.0972  0.3214 -0.2414
 2034TIP3   OH227736   6.327   6.233   1.633  0.1032  0.2421 -0.3969
 2034TIP3    H127737   6.266   6.219   1.705  0.2452  2.2623  0.1825
 2034TIP3    H227738   6.338   6.146   1.593 -0.1317 -0.9015  1.8683
 2035TIP3   OH227739   3.930   4.444   7.597  0.3172 -0.2345  0.1684
 2035TIP3    H127740   3.993   4.455   7.526  1.6590 -2.1154  0.9915
 2035TIP3    H227741   3.857   4.502   7.573  0.7601 -0.6898 -2.6650
 2036TIP3   OH227742   5.768   4.218   0.365 -0.1053 -0.1266 -0.2505
 2036TIP3    H127743   5.768   4.126   0.393 -0.7107 -0.6321 -1.8128
 2036TIP3    H227744   5.820   4.219   0.285 -0.9494  0.7013 -0.8028
 2037TIP3   OH227745   2.742   5.820   7.050 -0.3517  0.7556  0.2330
 2037TIP3    H127746   2.723   5.897   6.995 -1.2958  0.5532  0.2655
 2037TIP3    H227747   2.730   5.745   6.992  0.5305  0.6169  0.2125
 2038TIP3   OH227748   0.968   0.837   7.521 -0.1221 -0.2675 -0.3959
 2038TIP3    H127749   0.903   0.842   7.590 -1.0408  0.7398 -1.2902
 2038TIP3    H227750   1.050   0.814   7.566 -0.6021  0.7714  1.0722
 2039TIP3   OH227751   0.498   2.180   9.073 -0.1278 -0.1467 -0.5061
 2039TIP3    H127752   0.586   2.144   9.081  1.0559  2.0785 -2.1787
 2039TIP3    H227753   0.485   2.192   8.979 -0.4351  3.3946 -0.1623
 2040TIP3   OH227754   6.515   4.860   9.024  0.3384  0.2615  0.3432
 2040TIP3    H127755   6.506   4.795   8.953  4.1797 -0.6117  0.4267
 2040TIP3    H227756   6.579   4.821   9.083 -0.1908  2.4929  2.5274
 2041TIP3   OH227757   5.111   1.746   0.115 -0.4631  0.1509 -0.0920
 2041TIP3    H127758   5.092   1.839   0.119  1.4726  0.5552  2.6370
 2041TIP3    H227759   5.181   1.738   0.051  0.6036  0.8918  0.9445
 2042TIP3   OH227760   2.540   2.284   8.047  0.1789  0.5421  0.4824
 2042TIP3    H127761   2.632   2.260   8.059 -0.2429 -0.9659  0.8491
 2042TIP3    H227762   2.491   2.221   8.099 -1.0347  1.9376  1.1086
 2043TIP3   OH227763   4.017   3.312   0.369  0.0434  0.8040 -0.6392
 2043TIP3    H127764   4.081   3.247   0.338  1.9844  2.5785 -0.5278
 2043TIP3    H227765   4.032   3.388   0.313  0.8708  2.6938  1.9990
 2044TIP3   OH227766   4.444   4.855   8.431 -0.1460 -0.3321  0.5674
 2044TIP3    H127767   4.454   4.776   8.483 -0.9691  0.0457  1.3202
 2044TIP3    H227768   4.356   4.886   8.449 -0.5800 -0.3535 -1.3159
 2045TIP3   OH227769   2.430   0.170   2.319  0.4270 -0.5208  0.4696
 2045TIP3    H127770   2.365   0.100   2.310  0.6980 -0.9065  1.3715
 2045TIP3    H227771   2.383   0.241   2.363 -0.0423  0.1702 -1.0521
 2046TIP3   OH227772   6.077   0.114   7.890  0.0733  0.0858 -0.9019
 2046TIP3    H127773   6.164   0.111   7.849 -0.7634 -0.5741 -2.7280
 2046TIP3    H227774   6.063   0.024   7.920  0.3913  0.4097  0.2635
 2047TIP3   OH227775   4.160   0.855   0.233  0.0081  0.5763  0.1519
 2047TIP3    H127776   4.186   0.947   0.239 -1.9259  1.3117 -1.5766
 2047TIP3    H227777   4.067   0.855   0.257  0.3867 -1.2473  1.8845
 2048TIP3   OH227778   1.355   5.547   1.615 -0.5138  0.3000 -0.6946
 2048TIP3    H127779   1.345   5.564   1.521 -1.1205  0.7126 -0.5642
 2048TIP3    H227780   1.430   5.488   1.621 -0.8727 -0.2619 -1.4967
 2049TIP3   OH227781   3.297   3.648   8.381 -0.1864 -0.1518  0.1639
 2049TIP3    H127782   3.305   3.744   8.384 -3.0973  0.2412 -1.0266
 2049TIP3    H227783   3.210   3.630   8.417  0.3055 -2.3838  0.3878
 2050TIP3   OH227784   3.340   1.528   7.890 -0.2335  0.3603  0.3644
 2050TIP3    H127785   3.407   1.481   7.840 -0.4561 -1.1575  1.4133
 2050TIP3    H227786   3.314   1.601   7.833  2.5855  1.2868  0.0888
 2051TIP3   OH227787   4.439   0.188   6.598 -0.2820  0.5210  0.5126
 2051TIP3    H127788   4.369   0.138   6.555  1.9172 -0.8659 -1.7044
 2051TIP3    H227789   4.417   0.280   6.580 -0.8868  0.0728 -1.2954
 2052TIP3   OH227790   5.600   3.265   0.483 -0.4113 -0.2477 -1.0027
 2052TIP3    H127791   5.577   3.239   0.394 -0.0216  0.6976 -1.3897
 2052TIP3    H227792   5.669   3.203   0.509 -2.8109 -2.7146 -0.0604
 2053TIP3   OH227793   2.422   4.563   8.050  0.3360  0.8179  0.3921
 2053TIP3    H127794   2.463   4.541   8.134 -2.0472  2.0740  2.0298
 2053TIP3    H227795   2.430   4.658   8.044 -0.7226  0.8853 -0.1107
 2054TIP3   OH227796   5.065   2.037   0.093 -0.0305 -0.1505 -0.0618
 2054TIP3    H127797   5.003   2.019   0.021  0.5201 -1.1767 -0.3104
 2054TIP3    H227798   5.037   2.121   0.129 -0.1576  0.5234 -1.6559
 2055TIP3   OH227799   0.750   3.729   7.597  0.4522 -0.4376 -0.0372
 2055TIP3    H127800   0.709   3.778   7.525 -0.8391  0.4533  1.2342
 2055TIP3    H227801   0.841   3.760   7.598 -0.0213  1.0528 -0.0537
 2056TIP3   OH227802   2.149   3.951   0.630  0.0635  0.1225 -0.4630
 2056TIP3    H127803   2.238   3.920   0.645 -0.2935 -0.1031  1.4233
 2056TIP3    H227804   2.109   3.884   0.575  0.8284 -0.1562 -0.6878
 2057TIP3   OH227805   4.232   4.405   2.210 -0.4059 -0.2311 -0.3214
 2057TIP3    H127806   4.199   4.330   2.161 -0.6824 -2.4426  2.9136
 2057TIP3    H227807   4.295   4.447   2.151 -0.3872 -2.8845 -2.3638
 2058TIP3   OH227808   3.550   3.206   7.722 -0.2251  0.2341  0.4709
 2058TIP3    H127809   3.642   3.229   7.733  0.0471  0.3225 -1.6691
 2058TIP3    H227810   3.510   3.282   7.679 -0.5119 -1.0772 -1.7066
 2059TIP3   OH227811   3.472   6.153   7.679  0.2236 -0.0017  0.0286
 2059TIP3    H127812   3.426   6.158   7.595  0.4800 -1.1107 -0.1960
 2059TIP3    H227813   3.404   6.130   7.742  0.0992  0.4410  0.0552
 2060TIP3   OH227814   1.505   2.528   2.017 -0.0138  0.0596  0.2037
 2060TIP3    H127815   1.466   2.441   2.025  2.0366 -0.7176  3.1277
 2060TIP3    H227816   1.478   2.574   2.096 -1.4733  2.3664 -1.5204
 2061TIP3   OH227817   2.290   4.200   7.156 -0.3420 -0.1518 -0.2385
 2061TIP3    H127818   2.316   4.292   7.155 -0.1887 -0.1910 -1.7092
 2061TIP3    H227819   2.366   4.152   7.122 -1.4667 -0.4690 -2.5208
 2062TIP3   OH227820   4.566   4.159   2.329  0.0506  0.0698  0.0108
 2062TIP3    H127821   4.519   4.231   2.370  0.7239  1.0905 -0.9482
 2062TIP3    H227822   4.514   4.137   2.252 -1.0343 -1.6160  1.1673
 2063TIP3   OH227823   3.180   1.368   9.006 -0.4019  0.3461  0.1875
 2063TIP3    H127824   3.156   1.280   8.976 -0.8920  1.1353 -1.8965
 2063TIP3    H227825   3.104   1.422   8.985 -0.4417  1.1573  2.2032
 2064TIP3   OH227826   6.422   6.689   9.012 -0.0385 -1.0340  0.4466
 2064TIP3    H127827   6.511   6.722   9.000 -0.0890 -1.0797 -0.0990
 2064TIP3    H227828   6.420   6.606   8.963 -1.2231  0.4126 -2.1559
 2065TIP3   OH227829   1.268   2.720   2.467 -0.3016 -0.4370 -0.3644
 2065TIP3    H127830   1.184   2.689   2.435  0.1804 -0.4501 -1.6968
 2065TIP3    H227831   1.251   2.809   2.498 -0.8240 -0.4814 -0.5148
 2066TIP3   OH227832   2.793   3.507   8.083 -0.4855  0.8074  0.3304
 2066TIP3    H127833   2.868   3.537   8.030  1.5569 -2.7168  0.9225
 2066TIP3    H227834   2.813   3.536   8.172  0.7947 -0.9323  0.6630
 2067TIP3   OH227835   0.706   5.314   0.325 -0.9645 -0.3096 -0.5405
 2067TIP3    H127836   0.720   5.228   0.365 -0.5149  0.2114  0.4542
 2067TIP3    H227837   0.782   5.365   0.351 -1.6932  0.6863 -0.3127
 2068TIP3   OH227838   3.499   5.019   7.079  0.7114  0.0755 -0.2693
 2068TIP3    H127839   3.418   5.006   7.128  0.5431 -0.4672 -0.6882
 2068TIP3    H227840   3.473   5.067   7.001  0.8507  0.2230 -0.2255
 2069TIP3   OH227841   4.183   0.164   6.462  0.1505 -0.2227 -0.1775
 2069TIP3    H127842   4.117   0.095   6.463  0.0942 -0.1717 -0.3626
 2069TIP3    H227843   4.133   0.244   6.446  0.1812 -0.1043  0.3015
 2070TIP3   OH227844   3.024   5.058   1.017 -0.1023  0.0543 -0.4059
 2070TIP3    H127845   3.103   5.095   0.976 -1.1515  0.8275 -1.8296
 2070TIP3    H227846   3.001   4.983   0.961 -0.6106  0.0977 -0.2622
 2071TIP3   OH227847   5.510   2.959   2.217 -0.3060  0.7872 -0.5869
 2071TIP3    H127848   5.470   3.045   2.232 -0.8428  0.7342 -1.6292
 2071TIP3    H227849   5.437   2.898   2.224 -0.0160  0.4639 -0.3793
 2072TIP3   OH227850   0.200   2.572   6.835  0.1123  0.1689  0.0860
 2072TIP3    H127851   0.253   2.651   6.826  0.5796 -0.1759 -0.2483
 2072TIP3    H227852   0.112   2.604   6.855  0.7055  0.7194  2.0411
 2073TIP3   OH227853   5.451   2.515   1.947  0.6926  0.2801  0.0911
 2073TIP3    H127854   5.506   2.567   2.006 -0.5944  1.0629  0.6556
 2073TIP3    H227855   5.362   2.537   1.972  0.0720 -1.9099  0.0702
 2074TIP3   OH227856   0.836   0.734   0.820 -0.1279  0.0425  0.0852
 2074TIP3    H127857   0.784   0.732   0.900 -0.5427  2.7368 -0.0085
 2074TIP3    H227858   0.806   0.658   0.770 -2.3641  0.2087  1.0372
 2075TIP3   OH227859   6.531   3.256   8.961 -0.1077 -0.3125  0.4280
 2075TIP3    H127860   6.571   3.274   8.876  0.0538  0.7667  0.7181
 2075TIP3    H227861   6.552   3.332   9.014  1.3054 -1.7210  2.0138
 2076TIP3   OH227862   2.965   3.283   6.627  0.2851  0.0719 -0.2685
 2076TIP3    H127863   3.022   3.234   6.568 -0.5460 -0.7704 -0.3891
 2076TIP3    H227864   2.925   3.216   6.682 -0.1443  0.7124  0.2028
 2077TIP3   OH227865   3.796   5.289   2.331  0.1797  0.0762 -0.2379
 2077TIP3    H127866   3.765   5.377   2.356  0.6387  0.0154  0.6029
 2077TIP3    H227867   3.764   5.232   2.401  1.9386 -0.0274  0.5275
 2078TIP3   OH227868   4.657   5.826   7.255  0.4065  0.0112  0.1306
 2078TIP3    H127869   4.702   5.804   7.173  1.6500  1.9839  0.2218
 2078TIP3    H227870   4.631   5.917   7.245  1.2606  0.5499  2.1884
 2079TIP3   OH227871   6.207   3.991   8.914 -0.6382 -0.4471 -0.1011
 2079TIP3    H127872   6.184   3.903   8.945 -0.1218  0.0737  1.8874
 2079TIP3    H227873   6.299   3.985   8.889 -0.6247 -0.4936 -0.0407
 2080TIP3   OH227874   6.012   4.706   8.209  0.0547  0.1086  0.4781
 2080TIP3    H127875   6.024   4.772   8.278  1.0070 -0.0043  0.4344
 2080TIP3    H227876   5.935   4.736   8.161 -0.2176  0.5611  1.1658
 2081TIP3   OH227877   0.199   3.908   1.264 -0.4460 -0.1162  0.0964
 2081TIP3    H127878   0.222   3.991   1.306 -0.9311 -0.2968  0.7213
 2081TIP3    H227879   0.265   3.846   1.295 -0.0165  0.0524 -0.4585
 2082TIP3   OH227880   0.242   4.784   7.784 -0.1345 -0.0971 -0.2307
 2082TIP3    H127881   0.308   4.836   7.739  0.5883 -0.1159  0.7841
 2082TIP3    H227882   0.292   4.726   7.842 -1.0455  0.1439  0.8253
 2083TIP3   OH227883   3.982   4.690   0.996 -0.3240  0.5354  0.3496
 2083TIP3    H127884   4.013   4.667   0.908 -0.4050 -0.7071  0.6307
 2083TIP3    H227885   3.960   4.783   0.990 -2.0039  0.0893 -1.4460
 2084TIP3   OH227886   3.970   6.117   1.952  0.4103  1.0782  0.3648
 2084TIP3    H127887   4.063   6.093   1.954  0.5129  1.5140  2.0403
 2084TIP3    H227888   3.956   6.146   1.862  1.7552  0.4742 -0.0757
 2085TIP3   OH227889   1.907   3.841   7.970 -0.2048  0.5913  0.6319
 2085TIP3    H127890   1.820   3.851   8.009  0.1429  0.7262  1.3990
 2085TIP3    H227891   1.891   3.831   7.876 -1.1166 -0.4206  0.8827
 2086TIP3   OH227892   3.609   2.017   0.668  0.2572 -0.1575  0.1004
 2086TIP3    H127893   3.690   2.020   0.719  0.1507 -1.5453  0.3700
 2086TIP3    H227894   3.638   1.991   0.580  0.4251  2.1020 -0.5955
 2087TIP3   OH227895   5.525   3.199   1.697 -0.2148  0.2016  0.2198
 2087TIP3    H127896   5.540   3.190   1.791  0.4359  1.1361  0.2120
 2087TIP3    H227897   5.430   3.209   1.688 -0.2731  0.1685  0.7782
 2088TIP3   OH227898   4.612   1.733   1.528 -0.2193  0.1582  0.0285
 2088TIP3    H127899   4.577   1.822   1.521 -1.6698 -0.4207 -0.4860
 2088TIP3    H227900   4.627   1.706   1.437 -0.2460 -0.2855  0.1549
 2089TIP3   OH227901   3.486   4.976   1.276 -0.6579 -0.0772  0.6540
 2089TIP3    H127902   3.414   5.011   1.329 -1.8763 -0.5040 -0.6419
 2089TIP3    H227903   3.558   5.037   1.288 -1.5602  0.8947  1.2394
 2090TIP3   OH227904   0.974   3.526   1.802  0.2171  0.7334 -0.0665
 2090TIP3    H127905   0.961   3.526   1.897  1.9418  0.2651  0.1907
 2090TIP3    H227906   0.992   3.435   1.780  1.9326  1.1510 -0.5232
 2091TIP3   OH227907   3.647   1.228   7.393 -0.0487  0.2988  0.4619
 2091TIP3    H127908   3.591   1.179   7.333 -1.1708 -0.0750  1.7437
 2091TIP3    H227909   3.675   1.163   7.458  0.3338  0.8779  0.8903
 2092TIP3   OH227910   5.774   0.309   8.544 -0.2633  0.2918 -0.2237
 2092TIP3    H127911   5.762   0.220   8.578 -0.7370  0.1429 -0.7614
 2092TIP3    H227912   5.827   0.298   8.464  0.6114  0.6101  0.2933
 2093TIP3   OH227913   5.348   3.653   7.750  0.2621  0.3435 -0.2030
 2093TIP3    H127914   5.318   3.565   7.728  2.4501 -0.5806  0.3082
 2093TIP3    H227915   5.309   3.709   7.683  0.0849 -1.2327 -1.4729
 2094TIP3   OH227916   4.450   6.169   7.584  0.3567 -0.6867  0.0622
 2094TIP3    H127917   4.399   6.087   7.584 -1.1002  0.1815  0.0043
 2094TIP3    H227918   4.397   6.230   7.533  0.8417  0.6264  1.0729
 2095TIP3   OH227919   2.388   0.209   1.806 -0.3180 -0.3082 -0.7004
 2095TIP3    H127920   2.446   0.143   1.769  3.9312  1.7183  1.6300
 2095TIP3    H227921   2.367   0.176   1.894  2.1789  1.3061  0.6480
 2096TIP3   OH227922   0.617   3.964   7.710 -0.0298 -0.1145  0.1066
 2096TIP3    H127923   0.536   3.977   7.760  0.4443  0.7205  0.6718
 2096TIP3    H227924   0.631   3.869   7.712 -0.9104 -0.2574  0.1212
 2097TIP3   OH227925   0.492   4.648   1.841 -0.0962  0.7264 -0.0594
 2097TIP3    H127926   0.572   4.600   1.863 -0.4202 -0.3558 -1.0827
 2097TIP3    H227927   0.517   4.704   1.767 -0.0380  1.1692  0.2926
 2098TIP3   OH227928   0.332   4.312   1.502 -0.4138 -0.3425 -0.0343
 2098TIP3    H127929   0.420   4.347   1.511 -0.3844 -0.2417 -0.6532
 2098TIP3    H227930   0.276   4.377   1.545 -0.2508 -0.0546 -0.2464
 2099TIP3   OH227931   4.127   5.474   1.467 -0.3580  0.1171 -0.1099
 2099TIP3    H127932   4.186   5.449   1.395 -0.9423  2.5268 -1.5323
 2099TIP3    H227933   4.181   5.470   1.545  0.0027 -3.7799 -0.3639
 2100TIP3   OH227934   2.702   0.357   0.004 -0.4393 -0.1240 -0.4461
 2100TIP3    H127935   2.701   0.372   0.098  0.3862 -2.4227 -0.0013
 2100TIP3    H227936   2.725   0.442  -0.034  1.7452  0.3088  1.6134
 2101TIP3   OH227937   3.509   5.356   7.117  0.0178  0.0564 -0.4944
 2101TIP3    H127938   3.555   5.360   7.033  2.0103  2.0614  0.6079
 2101TIP3    H227939   3.484   5.447   7.135 -2.9361 -0.7065 -0.1887
 2102TIP3   OH227940   2.733   1.194   1.407  0.5655 -0.1875  0.4188
 2102TIP3    H127941   2.722   1.277   1.454 -0.4206 -0.4963  0.7642
 2102TIP3    H227942   2.770   1.219   1.322  0.5440  0.5798  0.6311
 2103TIP3   OH227943   3.473   2.933   8.010  0.1562  0.1229  0.4510
 2103TIP3    H127944   3.525   3.013   8.015 -0.0157  0.2792 -0.1590
 2103TIP3    H227945   3.401   2.947   8.071 -0.2323  0.7077 -0.1378
 2104TIP3   OH227946   0.482   0.403   7.438  0.2362 -0.4153 -0.1149
 2104TIP3    H127947   0.508   0.351   7.362  0.5439  0.3318 -0.5373
 2104TIP3    H227948   0.554   0.466   7.450 -0.0432 -0.2026  0.4849
 2105TIP3   OH227949   3.720   0.227   0.889 -0.6523 -0.2023 -0.1334
 2105TIP3    H127950   3.686   0.219   0.978  0.4390 -1.1843  0.2308
 2105TIP3    H227951   3.717   0.320   0.870 -3.2915 -0.2193 -0.0675
 2106TIP3   OH227952   0.276   1.737   7.151 -0.0383 -0.1589  0.6212
 2106TIP3    H127953   0.308   1.797   7.084 -1.1569  0.4626  0.6321
 2106TIP3    H227954   0.274   1.652   7.107  1.3180 -0.1781  0.5362
 2107TIP3   OH227955   5.699   2.230   1.399  0.5503  0.3538  0.2490
 2107TIP3    H127956   5.730   2.319   1.380  0.0275  0.6938  0.9624
 2107TIP3    H227957   5.610   2.227   1.363  0.2197  0.4292  1.0382
 2108TIP3   OH227958   3.605   6.577   7.912 -0.3825  0.0121  0.7523
 2108TIP3    H127959   3.677   6.638   7.905 -2.5343  2.7278  0.5627
 2108TIP3    H227960   3.624   6.509   7.847  0.6477  2.1413 -1.3256
 2109TIP3   OH227961   6.124   5.190   7.398  0.1821  0.5530 -0.1043
 2109TIP3    H127962   6.183   5.220   7.467 -1.6629  0.4532  1.5808
 2109TIP3    H227963   6.073   5.120   7.438 -0.7363  0.2857 -1.6644
 2110TIP3   OH227964   5.925   4.501   7.802  0.0650 -0.3178 -0.2665
 2110TIP3    H127965   5.894   4.513   7.712  5.0809 -0.2528 -2.3498
 2110TIP3    H227966   5.925   4.589   7.839  1.0809  0.2724 -1.5608
 2111TIP3   OH227967   2.177   1.255   0.832  0.2640 -0.2228  0.1282
 2111TIP3    H127968   2.189   1.162   0.853  2.3935  0.0191  0.2407
 2111TIP3    H227969   2.265   1.286   0.813 -0.4699  1.6943 -0.3421
 2112TIP3   OH227970   3.608   3.215   8.711 -0.1482 -0.1538 -0.7841
 2112TIP3    H127971   3.642   3.269   8.640 -3.4361 -0.0849 -2.5112
 2112TIP3    H227972   3.627   3.125   8.683  0.4117 -0.0749 -0.6754
 2113TIP3   OH227973   3.473   5.474   6.586  0.3529  1.1456 -0.1326
 2113TIP3    H127974   3.416   5.457   6.511  0.0851  2.4768 -0.2466
 2113TIP3    H227975   3.510   5.388   6.607 -0.5541  0.5209 -0.9761
 2114TIP3   OH227976   5.640   2.792   0.980 -0.1557 -0.6157 -0.0383
 2114TIP3    H127977   5.684   2.877   0.990 -2.8122  0.9081 -0.3006
 2114TIP3    H227978   5.703   2.738   0.932  2.2291  0.6680  1.4650
 2115TIP3   OH227979   4.552   5.699   1.514 -0.0414  0.1697 -0.3823
 2115TIP3    H127980   4.483   5.765   1.505 -1.8251 -1.1614  2.0577
 2115TIP3    H227981   4.592   5.718   1.599 -0.3867 -1.6158  0.2293
 2116TIP3   OH227982   1.418   2.302   7.488  0.0077 -0.0467  0.0937
 2116TIP3    H127983   1.328   2.277   7.507 -0.0917  1.1711  1.3674
 2116TIP3    H227984   1.423   2.302   7.392 -1.9993  1.9744 -0.0885
 2117TIP3   OH227985   1.819   4.423   1.573  0.4175  0.1022  0.6090
 2117TIP3    H127986   1.803   4.511   1.537  0.2063  0.3663  1.3326
 2117TIP3    H227987   1.743   4.407   1.629  1.3809  0.2620  2.0116
 2118TIP3   OH227988   0.340   1.971   0.156  0.3971 -0.2661 -0.7235
 2118TIP3    H127989   0.408   2.019   0.109  2.3116 -1.4283  0.7043
 2118TIP3    H227990   0.368   1.879   0.151 -0.1733 -0.5947  1.2632
 2119TIP3   OH227991   6.189   4.573   8.066 -0.6097  0.2949 -0.6235
 2119TIP3    H127992   6.188   4.487   8.107 -0.3398 -0.6747 -2.5187
 2119TIP3    H227993   6.129   4.626   8.119  0.3383 -0.5967  1.4368
 2120TIP3   OH227994   1.929   4.333   8.724  0.1405  0.2047  0.0869
 2120TIP3    H127995   1.900   4.424   8.726 -0.1236  0.1151  0.3639
 2120TIP3    H227996   1.922   4.308   8.632  3.0682  1.3707 -0.5870
 2121TIP3   OH227997   5.277   6.138   1.551  0.0711 -0.2325 -0.0090
 2121TIP3    H127998   5.229   6.121   1.631 -1.1866  1.2987 -0.3832
 2121TIP3    H227999   5.213   6.128   1.481  0.5442  0.7664 -0.6172
 2122TIP3   OH228000   5.923   2.520   9.083 -0.0276  0.5362 -0.1353
 2122TIP3    H128001   6.009   2.487   9.056 -0.1768  0.7646 -0.9272
 2122TIP3    H228002   5.907   2.479   9.167  0.5182 -0.1135 -0.3369
 2123TIP3   OH228003   3.224   5.143   8.389  0.1621 -0.4558 -0.1942
 2123TIP3    H128004   3.241   5.236   8.377 -0.3551 -0.2929  0.2648
 2123TIP3    H228005   3.309   5.106   8.414  0.2768 -0.0240  0.0705
 2124TIP3   OH228006   0.410   2.947   8.834 -0.4122 -0.3021  0.3744
 2124TIP3    H128007   0.487   2.898   8.804 -0.5435 -0.0147 -0.4848
 2124TIP3    H228008   0.437   2.987   8.916  0.2670 -0.4306  0.2203
 2125TIP3   OH228009   5.932   4.750   8.980 -0.1417 -0.1253 -0.2517
 2125TIP3    H128010   6.008   4.809   8.978 -1.5851  1.8152 -0.5762
 2125TIP3    H228011   5.952   4.688   9.050  0.6240  1.9340  1.4865
 2126TIP3   OH228012   4.907   1.253   1.385 -0.5397 -0.0373 -0.4039
 2126TIP3    H128013   4.884   1.201   1.308 -3.2185 -0.4829  0.5809
 2126TIP3    H228014   4.864   1.337   1.370  1.4553  0.9748 -0.7151
 2127TIP3   OH228015   1.532   3.286   0.190  0.1230  0.6267  0.1322
 2127TIP3    H128016   1.520   3.228   0.265 -0.2458  0.1869 -0.2563
 2127TIP3    H228017   1.492   3.369   0.216 -0.7412  0.2194  0.1154
 2128TIP3   OH228018   3.098   3.120   1.581  0.4458 -0.1596  0.1596
 2128TIP3    H128019   3.089   3.120   1.486  0.4994 -0.9690  0.1418
 2128TIP3    H228020   3.191   3.103   1.596  0.3315 -0.6700  0.3453
 2129TIP3   OH228021   5.692   3.411   6.807  0.0657  0.5372  0.0516
 2129TIP3    H128022   5.692   3.418   6.712 -0.4552  0.0378  0.0113
 2129TIP3    H228023   5.606   3.377   6.829 -0.2737  1.8166  0.7979
 2130TIP3   OH228024   4.417   3.019   7.420 -0.9677  0.1410  0.7628
 2130TIP3    H128025   4.419   3.013   7.324  1.5365  2.4906  0.5237
 2130TIP3    H228026   4.419   3.113   7.438  0.9533 -0.2275  3.0606
 2131TIP3   OH228027   2.153   5.277   7.686 -0.1249  0.1271 -0.0728
 2131TIP3    H128028   2.196   5.347   7.637  0.1820 -0.8985 -1.3044
 2131TIP3    H228029   2.062   5.280   7.658  0.0521 -0.4636 -0.7396
 2132TIP3   OH228030   2.369   1.074   8.357  0.9531 -0.6034  0.1718
 2132TIP3    H128031   2.313   1.084   8.435  2.1715  0.0003  1.0000
 2132TIP3    H228032   2.359   1.157   8.310  1.5112 -0.3024  0.5742
 2133TIP3   OH228033   5.758   5.704   8.700 -1.2864 -0.3466 -0.0064
 2133TIP3    H128034   5.765   5.696   8.605  1.7759 -0.6771  0.1666
 2133TIP3    H228035   5.772   5.798   8.717 -3.7755  0.0933  0.0950
 2134TIP3   OH228036   1.648   4.048   0.487 -0.3401 -0.6904  0.6360
 2134TIP3    H128037   1.624   4.139   0.504 -1.3076 -0.9883  0.9599
 2134TIP3    H228038   1.696   4.051   0.404  1.7595  0.4032  1.7994
 2135TIP3   OH228039   5.825   1.823   8.619 -0.2665  0.0837  0.7062
 2135TIP3    H128040   5.765   1.750   8.613  0.8797 -0.8851  0.6425
 2135TIP3    H228041   5.882   1.801   8.693  1.4399 -0.1413 -0.6287
 2136TIP3   OH228042   5.122   5.874   0.039 -0.8129 -0.1437  0.2731
 2136TIP3    H128043   5.179   5.804   0.006 -2.2108 -1.0988 -0.2434
 2136TIP3    H228044   5.165   5.906   0.118  0.9192 -0.1356 -0.6313
 2137TIP3   OH228045   4.327   5.002   2.479  0.7326 -0.2931  0.2216
 2137TIP3    H128046   4.407   4.951   2.467  0.3504 -1.0446  0.7940
 2137TIP3    H228047   4.257   4.940   2.459  0.2862  0.3925 -0.3844
 2138TIP3   OH228048   5.639   6.489   7.937 -0.3407 -0.3844  0.3461
 2138TIP3    H128049   5.720   6.475   7.985  0.4696  0.1197 -0.8272
 2138TIP3    H228050   5.646   6.579   7.904 -1.1739 -0.4928 -0.1537
 2139TIP3   OH228051   4.306   3.808   0.258 -0.7143  0.4541 -0.0820
 2139TIP3    H128052   4.260   3.779   0.337 -0.4343  0.5197  0.1109
 2139TIP3    H228053   4.256   3.771   0.186 -1.1113  0.5928  0.1199
 2140TIP3   OH228054   1.383   3.143   7.280  0.7464 -0.5637  0.4860
 2140TIP3    H128055   1.325   3.216   7.302  0.0080 -0.6104 -1.1443
 2140TIP3    H228056   1.403   3.101   7.364  0.2562  0.8142  1.3220
 2141TIP3   OH228057   5.911   3.553   0.466  0.3362 -0.2161  0.0147
 2141TIP3    H128058   5.877   3.489   0.403  0.0523 -0.4226  0.3710
 2141TIP3    H228059   5.997   3.577   0.432  0.2278 -0.4001 -0.3968
 2142TIP3   OH228060   5.813   4.998   1.634 -0.1708 -0.5265  0.6163
 2142TIP3    H128061   5.742   5.057   1.610 -0.7226 -0.7347  1.6812
 2142TIP3    H228062   5.784   4.912   1.602  0.6687 -0.2316 -1.0049
 2143TIP3   OH228063   4.452   5.072   7.045  0.0985  0.2217  0.4044
 2143TIP3    H128064   4.544   5.087   7.063  0.0429  1.5921 -0.3283
 2143TIP3    H228065   4.449   5.050   6.952 -0.4258  1.6000  0.0699
 2144TIP3   OH228066   2.499   4.404   7.553 -0.0439 -0.1268  0.3339
 2144TIP3    H128067   2.505   4.436   7.643  0.3366 -0.0871  0.2933
 2144TIP3    H228068   2.455   4.319   7.561  0.2665 -0.2674  0.5903
 2145TIP3   OH228069   6.507   2.087   7.957 -0.4563 -0.1273 -0.4833
 2145TIP3    H128070   6.450   2.096   7.880 -1.1623 -1.6690 -0.1721
 2145TIP3    H228071   6.449   2.057   8.027  0.3658  0.2857  0.4006
 2146TIP3   OH228072   1.478   3.943   1.367 -0.1119  0.2741 -1.2391
 2146TIP3    H128073   1.431   3.907   1.292  0.5621 -1.0382 -1.0501
 2146TIP3    H228074   1.543   3.877   1.389 -0.3159  0.6063  0.5363
 2147TIP3   OH228075   2.171   4.131   2.041 -0.2472  0.6258 -0.3738
 2147TIP3    H128076   2.205   4.064   1.982  1.2875  0.8194  0.2295
 2147TIP3    H228077   2.240   4.198   2.043 -1.1642  1.5780  0.0649
 2148TIP3   OH228078   3.956   2.968   8.294 -0.1129 -0.1239 -0.1379
 2148TIP3    H128079   3.996   2.901   8.239  2.8292 -1.4031  3.2067
 2148TIP3    H228080   3.924   2.921   8.371 -0.5016  1.9830  1.0683
 2149TIP3   OH228081   5.964   6.185   8.668 -0.0094  0.3652 -0.2084
 2149TIP3    H128082   6.050   6.190   8.709  0.7947 -0.7493 -1.6944
 2149TIP3    H228083   5.945   6.275   8.640  0.4998  0.6764  0.4200
 2150TIP3   OH228084   1.019   5.348   8.352 -0.3642  0.6281  0.2573
 2150TIP3    H128085   1.012   5.404   8.429  2.2017  0.3201  0.7770
 2150TIP3    H228086   1.044   5.262   8.386  0.4463  0.3977 -0.8697
 2151TIP3   OH228087   5.611   5.156   1.552  0.0543  0.1826  0.5887
 2151TIP3    H128088   5.589   5.249   1.549 -1.4874 -0.1336  1.0828
 2151TIP3    H228089   5.564   5.118   1.479  1.6604 -0.0636 -0.3711
 2152TIP3   OH228090   6.164   1.901   0.614 -0.2429  0.1133  0.3345
 2152TIP3    H128091   6.184   1.826   0.670 -0.4185  0.7420  1.2579
 2152TIP3    H228092   6.226   1.969   0.642 -1.5370  1.0414  1.0646
 2153TIP3   OH228093   0.140   5.831   7.971  0.0815 -0.3611 -0.0462
 2153TIP3    H128094   0.192   5.776   7.912 -0.2482 -1.6918  0.8723
 2153TIP3    H228095   0.204   5.864   8.035 -0.0340 -1.3385  0.5971
 2154TIP3   OH228096   0.183   3.601   0.264 -0.7808 -0.3250  0.4278
 2154TIP3    H128097   0.227   3.683   0.242  0.1342 -0.1674  2.5137
 2154TIP3    H228098   0.095   3.627   0.291 -0.3891  0.0544  1.4018
 2155TIP3   OH228099   6.647   6.556   1.895  0.1611 -0.1456  0.6054
 2155TIP3    H128100   6.571   6.612   1.877  1.0197  1.0286  0.5076
 2155TIP3    H228101   6.632   6.522   1.983  0.6828  2.1166  1.6483
 2156TIP3   OH228102   6.204   5.680   0.792  0.3142  0.0509 -0.2376
 2156TIP3    H128103   6.138   5.724   0.846 -1.2159 -0.0195 -1.9633
 2156TIP3    H228104   6.268   5.749   0.773  0.4649  0.2723  0.9875
 2157TIP3   OH228105   5.404   6.734   2.424 -0.4161  0.5951  0.1597
 2157TIP3    H128106   5.394   6.685   2.505 -0.7222 -0.0675 -0.2757
 2157TIP3    H228107   5.494   6.767   2.427 -0.5848  0.9995  0.9973
 2158TIP3   OH228108   6.398   1.324   1.882 -0.1880 -0.5906 -0.0256
 2158TIP3    H128109   6.303   1.318   1.868 -0.5677  1.0377  1.4597
 2158TIP3    H228110   6.428   1.388   1.818 -0.4005  0.1293  0.5757
 2159TIP3   OH228111   5.372   4.122   7.459 -0.2384  0.3123  0.2004
 2159TIP3    H128112   5.347   4.113   7.551 -1.9475 -1.5694 -0.3551
 2159TIP3    H228113   5.304   4.178   7.421 -0.7589 -0.6390 -0.3083
 2160TIP3   OH228114   3.600   6.189   8.704 -0.1274 -0.3014  0.5857
 2160TIP3    H128115   3.668   6.171   8.639  0.7067  0.9931  1.0531
 2160TIP3    H228116   3.518   6.181   8.656  0.4132 -0.6492 -0.3034
 2161TIP3   OH228117   3.737   4.599   7.485 -0.5457  0.3749 -0.1049
 2161TIP3    H128118   3.671   4.556   7.430 -0.9025  1.8732 -0.9189
 2161TIP3    H228119   3.812   4.611   7.427  0.2632 -0.8061  0.6601
 2162TIP3   OH228120   3.986   3.216   1.181 -0.3184 -0.0540 -0.6650
 2162TIP3    H128121   3.897   3.195   1.208 -0.5250  0.6703 -0.7555
 2162TIP3    H228122   4.042   3.165   1.240 -0.7668  1.0329  0.7444
 2163TIP3   OH228123   0.232   3.061   2.134 -1.1162  0.3105 -0.2582
 2163TIP3    H128124   0.214   3.139   2.187  1.7885  0.2740  1.0149
 2163TIP3    H228125   0.230   2.989   2.197  0.6231  0.0185 -0.4849
 2164TIP3   OH228126   5.206   1.068   8.759  0.0094  0.6925 -0.3221
 2164TIP3    H128127   5.153   1.023   8.825 -1.0817  2.4228  0.0513
 2164TIP3    H228128   5.286   1.094   8.806  0.3799 -0.2893 -0.3859
 2165TIP3   OH228129   6.231   3.176   8.938 -0.1981 -0.1028  0.2938
 2165TIP3    H128130   6.251   3.163   8.845 -0.0387  0.6588  0.2237
 2165TIP3    H228131   6.316   3.178   8.981 -0.2654 -3.3147  0.8871
 2166TIP3   OH228132   0.368   3.815   8.486  0.2143  0.0200 -0.1936
 2166TIP3    H128133   0.347   3.770   8.568 -2.3075 -0.1209 -0.8374
 2166TIP3    H228134   0.347   3.751   8.418  1.9488  0.2523 -1.0042
 2167TIP3   OH228135   6.521   2.337   8.099  0.4815 -0.5861  0.4831
 2167TIP3    H128136   6.507   2.261   8.044  0.3347 -1.1127  1.2334
 2167TIP3    H228137   6.591   2.386   8.055 -1.1786  0.2483 -1.4120
 2168TIP3   OH228138   1.545   5.055   7.823 -0.1800  0.4331  0.0061
 2168TIP3    H128139   1.468   5.008   7.855  0.2119  0.0173  0.3533
 2168TIP3    H228140   1.618   4.995   7.841 -0.0748 -0.4916 -2.9420
 2169TIP3   OH228141   3.965   3.680   7.016 -0.2331 -1.2048  0.3140
 2169TIP3    H128142   4.029   3.750   7.000  1.8823 -3.1087 -0.1185
 2169TIP3    H228143   3.962   3.672   7.112  0.0166 -0.9443  0.3469
 2170TIP3   OH228144   2.501   3.076   1.507 -0.2890 -0.2707 -0.3532
 2170TIP3    H128145   2.548   3.039   1.582  0.7269 -1.2660 -1.4345
 2170TIP3    H228146   2.421   3.112   1.544  0.4371 -0.2426  1.2855
 2171TIP3   OH228147   3.833   2.329   6.374 -0.2231 -0.4795  0.7613
 2171TIP3    H128148   3.756   2.291   6.415 -1.8718 -0.4078 -1.9651
 2171TIP3    H228149   3.859   2.265   6.308  0.3905  0.6327 -0.1158
 2172TIP3   OH228150   1.056   1.537   0.334  0.6360 -0.0832  0.1849
 2172TIP3    H128151   1.012   1.562   0.416  1.6559 -0.1918  0.7876
 2172TIP3    H228152   1.040   1.443   0.326  0.9326 -0.1714  0.5359
 2173TIP3   OH228153   0.046   4.125   7.083 -0.3383 -0.0201  0.5560
 2173TIP3    H128154   0.041   4.030   7.098 -1.3882  0.0212  0.5223
 2173TIP3    H228155   0.134   4.139   7.046 -0.2867 -1.0171  0.2758
 2174TIP3   OH228156   6.482   4.359   7.735  0.1497  0.3769  0.6742
 2174TIP3    H128157   6.529   4.441   7.719 -1.4215  1.0611 -0.7255
 2174TIP3    H228158   6.550   4.292   7.733  1.4754  1.6223  1.8595
 2175TIP3   OH228159   5.557   6.265   0.573  0.6796 -0.0862 -0.2015
 2175TIP3    H128160   5.577   6.300   0.659 -0.4676  0.0664  0.0236
 2175TIP3    H228161   5.614   6.313   0.513  1.6126 -0.3247  0.4809
 2176TIP3   OH228162   5.034   4.193   7.757 -0.6416  0.3061 -0.1813
 2176TIP3    H128163   5.032   4.252   7.682 -0.0226 -1.7159 -1.8605
 2176TIP3    H228164   4.969   4.126   7.736  0.7151 -1.1904  0.3034
 2177TIP3   OH228165   0.819   3.178   8.820  0.6921  0.1571  0.8692
 2177TIP3    H128166   0.723   3.187   8.826  0.5716 -1.1116  1.0847
 2177TIP3    H228167   0.850   3.212   8.904  0.3474 -0.3527  1.2126
 2178TIP3   OH228168   6.742   5.440   2.345 -0.8954 -0.1704  0.4011
 2178TIP3    H128169   6.692   5.484   2.275 -2.1228 -1.1334  0.6332
 2178TIP3    H228170   6.703   5.353   2.351  0.0386 -0.5427  1.4408
 2179TIP3   OH228171   1.625   3.343   6.643 -0.2748 -0.1233  0.2558
 2179TIP3    H128172   1.539   3.323   6.678  0.5319 -1.9335  1.3768
 2179TIP3    H228173   1.668   3.395   6.712  0.4985 -1.7031  1.0219
 2180TIP3   OH228174   5.906   5.048   1.203 -0.1865 -0.6333 -0.4252
 2180TIP3    H128175   5.970   5.119   1.195 -0.6294 -0.2490 -0.6502
 2180TIP3    H228176   5.918   4.995   1.124 -1.2959  0.4198 -1.3448
 2181TIP3   OH228177   4.157   0.614   7.105  0.3850  0.4102  0.8008
 2181TIP3    H128178   4.133   0.620   7.013 -0.8018  1.7037  1.1637
 2181TIP3    H228179   4.218   0.686   7.119  1.5661 -0.5476  0.7661
 2182TIP3   OH228180   4.042   4.254   1.150  0.4755 -0.1062  0.6460
 2182TIP3    H128181   4.104   4.285   1.084  1.1253 -0.5739  1.0188
 2182TIP3    H228182   3.992   4.331   1.175 -1.9092 -0.4568 -2.5714
 2183TIP3   OH228183   5.089   4.330   8.234  0.4421 -0.4765 -0.4320
 2183TIP3    H128184   5.084   4.412   8.283 -0.4433  0.0745 -1.4010
 2183TIP3    H228185   5.082   4.262   8.301  0.1523  0.2473  0.2981
 2184TIP3   OH228186   1.249   3.508   0.580  0.0231  0.1653 -0.1487
 2184TIP3    H128187   1.173   3.477   0.630  0.9685  0.5945  1.6430
 2184TIP3    H228188   1.212   3.561   0.510 -1.4195 -1.4215 -0.6495
 2185TIP3   OH228189   5.695   4.148   0.690 -0.1356 -0.4707  0.3370
 2185TIP3    H128190   5.714   4.054   0.681  2.9070 -0.2588  2.7956
 2185TIP3    H228191   5.781   4.189   0.694 -1.3616  2.7567 -2.2919
 2186TIP3   OH228192   0.928   4.611   8.876 -0.0704  0.2795  0.1740
 2186TIP3    H128193   0.986   4.542   8.843  2.0248  1.4212  1.2508
 2186TIP3    H228194   0.959   4.627   8.965  0.0788  3.1336 -0.2998
 2187TIP3   OH228195   2.672   6.368   7.488 -0.1609  0.5009  0.3004
 2187TIP3    H128196   2.756   6.386   7.529  0.2648  0.8289 -0.7026
 2187TIP3    H228197   2.686   6.288   7.437 -0.9361 -0.4347  1.4699
 2188TIP3   OH228198   3.063   3.589   6.170 -0.0430  0.2485 -0.3732
 2188TIP3    H128199   2.991   3.585   6.107 -0.8541  1.0616  0.4515
 2188TIP3    H228200   3.094   3.680   6.166 -1.1889  0.7938  1.4896
 2189TIP3   OH228201   3.774   5.061   1.323  0.1666 -0.7015  0.3875
 2189TIP3    H128202   3.799   5.150   1.350 -1.0902 -0.7142  1.7197
 2189TIP3    H228203   3.800   5.006   1.397 -2.9301 -0.8092  1.5336
 2190TIP3   OH228204   2.436   6.448   0.796  0.2056  0.9606  0.0224
 2190TIP3    H128205   2.407   6.391   0.725  1.9500  0.3337 -0.2259
 2190TIP3    H228206   2.358   6.499   0.819 -1.1054 -0.6904 -0.5259
 2191TIP3   OH228207   0.239   1.800   0.327  0.2363 -0.3456 -0.3618
 2191TIP3    H128208   0.257   1.875   0.271 -1.9929  0.7999  0.3433
 2191TIP3    H228209   0.189   1.836   0.400 -1.9092 -2.6666 -0.5570
 2192TIP3   OH228210   4.149   3.082   0.319  0.3001  0.2582  0.1306
 2192TIP3    H128211   4.119   3.000   0.281  0.6616  0.2421 -0.1305
 2192TIP3    H228212   4.129   3.074   0.412  1.6475 -0.7559  0.3762
 2193TIP3   OH228213   6.169   1.516   8.320  0.5626  0.6020  0.2058
 2193TIP3    H128214   6.261   1.533   8.343  0.8293 -1.1878  0.5519
 2193TIP3    H228215   6.128   1.603   8.323  1.9520  1.2644  1.3595
 2194TIP3   OH228216   3.583   5.341   8.875 -0.4397 -0.1901 -0.8630
 2194TIP3    H128217   3.670   5.306   8.855 -0.0358  0.4990 -0.3781
 2194TIP3    H228218   3.601   5.420   8.927 -1.3167  0.6218 -1.7535
 2195TIP3   OH228219   1.274   4.713   1.499  0.1672 -0.2339 -0.5677
 2195TIP3    H128220   1.367   4.717   1.522  0.0370 -0.7965  0.0965
 2195TIP3    H228221   1.230   4.697   1.582 -0.4871 -0.4489 -0.9513
 2196TIP3   OH228222   1.523   0.837   0.387 -0.1594 -0.2171 -0.0424
 2196TIP3    H128223   1.522   0.772   0.457 -2.4595 -0.8267 -0.5557
 2196TIP3    H228224   1.497   0.918   0.430 -1.2514 -0.5233 -0.0936
 2197TIP3   OH228225   1.070   0.777   0.243 -0.7205  0.4929 -0.3513
 2197TIP3    H128226   0.997   0.838   0.235  0.2901  1.7850 -0.2126
 2197TIP3    H228227   1.122   0.792   0.163 -0.1577  0.2386 -0.0384
 2198TIP3   OH228228   3.624   5.389   1.835 -0.1304 -0.5357 -0.3772
 2198TIP3    H128229   3.540   5.343   1.826 -0.9944  0.7214  0.8658
 2198TIP3    H228230   3.653   5.370   1.924 -0.7302  1.6008  0.3342
 2199TIP3   OH228231   6.493   0.678   0.508  0.7012  0.0401  0.3132
 2199TIP3    H128232   6.455   0.662   0.594  1.0812 -0.6907  0.3506
 2199TIP3    H228233   6.507   0.591   0.471  0.1730  0.3441 -0.6551
 2200TIP3   OH228234   0.640   3.707   2.275 -0.5825 -0.1575  0.2593
 2200TIP3    H128235   0.555   3.707   2.319 -0.8599 -1.0918 -0.2428
 2200TIP3    H228236   0.704   3.714   2.345 -1.0773  2.2326  0.5637
 2201TIP3   OH228237   3.203   0.955   0.901 -0.1216 -0.4086  0.4912
 2201TIP3    H128238   3.275   0.902   0.867  1.4029  0.8191  1.6449
 2201TIP3    H228239   3.130   0.936   0.843  1.3297 -1.1566 -1.1950
 2202TIP3   OH228240   4.275   5.333   0.159 -1.0349  0.5195 -0.9768
 2202TIP3    H128241   4.303   5.320   0.068  1.0417  0.0685 -0.3202
 2202TIP3    H228242   4.281   5.246   0.198 -1.6899  0.7577 -0.3316
 2203TIP3   OH228243   0.299   4.422   0.450 -0.1598 -0.1003  0.3054
 2203TIP3    H128244   0.385   4.406   0.489 -0.0884 -1.4350 -0.3512
 2203TIP3    H228245   0.317   4.444   0.359 -0.5694 -1.9530 -0.2564
 2204TIP3   OH228246   1.161   1.157   0.914 -0.6162  0.4925  0.4219
 2204TIP3    H128247   1.151   1.133   1.006  0.5068 -1.0819  0.1789
 2204TIP3    H228248   1.094   1.105   0.869  2.1487 -2.8954 -0.1672
 2205TIP3   OH228249   2.631   5.181   1.513 -0.1858 -0.0794 -0.1875
 2205TIP3    H128250   2.714   5.155   1.553 -0.3502  0.3501  0.4441
 2205TIP3    H228251   2.645   5.169   1.419  2.0691  3.9068 -0.5871
 2206TIP3   OH228252   2.642   1.223   8.226 -0.1238  0.3192 -0.1412
 2206TIP3    H128253   2.595   1.239   8.308  1.1605  0.8158  0.5363
 2206TIP3    H228254   2.616   1.295   8.169 -0.1108  0.6555  0.2665
 2207TIP3   OH228255   3.013   0.919   9.052 -0.4066  0.1691  0.0730
 2207TIP3    H128256   2.968   0.855   9.107  0.2695 -0.4061 -0.0281
 2207TIP3    H228257   3.058   0.867   8.985  0.1725  0.7465 -0.0033
 2208TIP3   OH228258   3.113   6.316   7.573  0.0900 -0.2869  0.5838
 2208TIP3    H128259   3.074   6.243   7.524  0.8458 -0.5965  0.4264
 2208TIP3    H228260   3.038   6.358   7.615 -0.3904 -1.0256  0.5079
 2209TIP3   OH228261   6.159   2.885   1.496  0.1746  0.2083 -0.0513
 2209TIP3    H128262   6.072   2.901   1.532  0.4393  0.9818  0.2533
 2209TIP3    H228263   6.213   2.861   1.571 -0.2325 -2.4090 -0.4895
 2210TIP3   OH228264   6.324   1.612   8.627  0.0694  0.7003  0.1709
 2210TIP3    H128265   6.374   1.569   8.558  1.0123 -1.1796  1.9287
 2210TIP3    H228266   6.364   1.582   8.708 -3.5355 -0.4483  1.6995
 2211TIP3   OH228267   4.817   6.590   7.740  0.3235 -0.3489 -0.7424
 2211TIP3    H128268   4.875   6.563   7.811  1.3585  1.2288 -0.9478
 2211TIP3    H228269   4.848   6.541   7.664  0.9200 -0.0787 -0.6802
 2212TIP3   OH228270   6.613   1.271   7.802  0.1543 -0.0623 -0.0529
 2212TIP3    H128271   6.569   1.213   7.865 -0.7092  0.8951  0.2557
 2212TIP3    H228272   6.619   1.355   7.847 -0.9698  0.7937 -1.4142
 2213TIP3   OH228273   1.591   3.003   0.890  0.3631 -0.5602  0.1138
 2213TIP3    H128274   1.590   2.994   0.985 -1.3974  1.7088  0.4253
 2213TIP3    H228275   1.556   2.920   0.857 -1.8456 -0.3429  1.6755
 2214TIP3   OH228276   3.808   2.452   8.990  0.3260  0.4692 -0.2044
 2214TIP3    H128277   3.755   2.465   8.911  0.9302 -0.0643 -0.7132
 2214TIP3    H228278   3.752   2.483   9.062 -0.4241  0.5017 -0.7859
 2215TIP3   OH228279   5.967   6.302   7.576 -0.0467  0.4140 -0.2647
 2215TIP3    H128280   6.001   6.217   7.605  1.2360  0.3459 -1.8656
 2215TIP3    H228281   5.885   6.281   7.531  0.9265 -0.1838 -1.8419
 2216TIP3   OH228282   3.308   2.218   1.042  0.2006  0.7038  0.4106
 2216TIP3    H128283   3.323   2.143   0.984  2.1247 -0.0113  1.7416
 2216TIP3    H228284   3.296   2.292   0.982 -2.2279 -0.6567 -0.9605
 2217TIP3   OH228285   4.812   6.433   0.692  0.0199 -0.1655 -0.4629
 2217TIP3    H128286   4.800   6.338   0.689  0.8693 -0.3669  1.4114
 2217TIP3    H228287   4.756   6.466   0.621 -0.7611 -2.0033 -0.7617
 2218TIP3   OH228288   4.719   0.776   8.357 -0.5649  0.4322 -0.0128
 2218TIP3    H128289   4.734   0.702   8.416  0.0085  0.4443 -0.1361
 2218TIP3    H228290   4.687   0.846   8.413 -0.0351  0.4401  0.2850
 2219TIP3   OH228291   2.595   2.486   1.294 -0.8620  0.0800  0.2151
 2219TIP3    H128292   2.586   2.566   1.242 -0.9233 -0.7065 -1.0367
 2219TIP3    H228293   2.569   2.416   1.234  1.1236 -1.0631  0.6177
 2220TIP3   OH228294   1.997   1.861   8.280  0.1587  1.0573 -0.5964
 2220TIP3    H128295   2.064   1.845   8.346  0.1976  0.8343 -0.6894
 2220TIP3    H228296   1.961   1.948   8.303 -0.9373  0.3173  0.7016
 2221TIP3   OH228297   4.233   0.610   0.420  0.2590 -0.0014  0.0628
 2221TIP3    H128298   4.311   0.599   0.474 -0.2622  0.9465  1.0392
 2221TIP3    H228299   4.212   0.703   0.426  0.3829  0.2019 -2.0701
 2222TIP3   OH228300   3.594   0.457   8.777  0.2324  0.3643 -0.1181
 2222TIP3    H128301   3.610   0.371   8.815 -2.0127 -0.8907 -1.7362
 2222TIP3    H228302   3.635   0.519   8.838 -0.5536 -1.6558  2.6689
 2223TIP3   OH228303   1.236   1.112   8.344  0.3293  0.2036  0.0456
 2223TIP3    H128304   1.251   1.115   8.438 -1.1834  0.1717  0.3139
 2223TIP3    H228305   1.287   1.185   8.309 -2.3951  2.9976  1.4115
 2224TIP3   OH228306   3.128   3.542   8.147  0.5715  0.3645  0.0283
 2224TIP3    H128307   3.206   3.577   8.189  2.1932  0.4521 -2.7803
 2224TIP3    H228308   3.138   3.447   8.155 -0.6189  0.3536  2.1857
 2225TIP3   OH228309   1.283   6.609   2.281 -0.3741  0.0983 -0.4097
 2225TIP3    H128310   1.234   6.611   2.363  0.8513  0.0688  0.3486
 2225TIP3    H228311   1.289   6.700   2.254 -2.9991 -0.0653 -1.8869
 2226TIP3   OH228312   2.874   4.092   7.030 -0.3057 -0.0384  0.5809
 2226TIP3    H128313   2.808   4.023   7.035 -2.0655  1.5729  1.1716
 2226TIP3    H228314   2.941   4.066   7.093 -1.1232 -1.0081  1.0834
 2227TIP3   OH228315   1.178   4.274   8.473 -0.0384 -0.4446 -0.1426
 2227TIP3    H128316   1.104   4.286   8.532 -0.1143  1.6775 -0.6050
 2227TIP3    H228317   1.255   4.285   8.528 -0.0967 -0.1197 -0.1233
 2228TIP3   OH228318   6.603   1.072   8.526 -0.1391 -0.4493 -0.3148
 2228TIP3    H128319   6.589   1.166   8.521 -1.8594 -0.5732  1.1760
 2228TIP3    H228320   6.698   1.061   8.515  0.2910  1.5634  0.8811
 2229TIP3   OH228321   6.044   6.514   8.714  0.6725 -0.1684  0.4465
 2229TIP3    H128322   6.101   6.478   8.646 -0.9959 -1.2387 -0.4551
 2229TIP3    H228323   6.098   6.581   8.757  2.0153  0.1141 -1.5114
 2230TIP3   OH228324   4.915   2.988   1.121  0.1290  0.0720 -0.2054
 2230TIP3    H128325   4.926   3.082   1.136  3.0771 -0.3925  1.2199
 2230TIP3    H228326   4.826   2.969   1.150  0.4096  2.0011  2.2468
 2231TIP3   OH228327   0.412   3.749   1.331 -0.6135 -1.1641  0.0824
 2231TIP3    H128328   0.450   3.807   1.397  0.9409  0.0461 -1.7856
 2231TIP3    H228329   0.471   3.673   1.329 -0.4142 -1.0032 -0.2029
 2232TIP3   OH228330   4.521   4.662   8.937  0.3471 -0.3294  0.4562
 2232TIP3    H128331   4.580   4.601   8.981 -0.3844 -0.6148  1.0649
 2232TIP3    H228332   4.528   4.743   8.987  1.9875  0.4030 -0.8754
 2233TIP3   OH228333   0.604   1.543   8.229 -0.7981  0.5618 -0.4467
 2233TIP3    H128334   0.558   1.562   8.311  0.3370  1.1032  0.0831
 2233TIP3    H228335   0.542   1.491   8.179 -1.2259 -0.4876  1.0940
 2234TIP3   OH228336   2.412   5.374   1.541  0.1242 -0.0326  0.2976
 2234TIP3    H128337   2.430   5.468   1.547  0.2359  0.3656 -3.6673
 2234TIP3    H228338   2.498   5.333   1.543  0.0965 -0.0582  1.6624
 2235TIP3   OH228339   4.726   1.562   8.221 -0.2344  0.3570  0.5733
 2235TIP3    H128340   4.797   1.540   8.282 -1.1997  0.7789  1.9004
 2235TIP3    H228341   4.760   1.539   8.135  1.9797  1.6163  1.0262
 2236TIP3   OH228342   4.872   4.062   8.257 -0.2961  0.0842  0.2673
 2236TIP3    H128343   4.927   4.096   8.328 -0.9131  0.2126  0.6853
 2236TIP3    H228344   4.783   4.085   8.282 -0.6395 -0.9458  0.0543
 2237TIP3   OH228345   6.698   0.371   7.062  0.3209  0.2061 -0.2301
 2237TIP3    H128346   6.624   0.402   7.011 -0.8533 -2.6555 -0.4461
 2237TIP3    H228347   6.702   0.429   7.138 -1.6286  0.9140 -0.6288
 2238TIP3   OH228348   1.741   3.114   2.043  0.0123 -0.2237 -0.3790
 2238TIP3    H128349   1.766   3.183   1.981  1.5086 -1.2298 -0.9266
 2238TIP3    H228350   1.758   3.152   2.129 -0.3189  0.5086 -0.6249
 2239TIP3   OH228351   1.182   6.299   0.501  0.2052 -0.5717  0.6664
 2239TIP3    H128352   1.117   6.364   0.526 -0.0353  0.5102 -2.3583
 2239TIP3    H228353   1.130   6.224   0.472  0.2995 -0.1743 -0.5792
 2240TIP3   OH228354   1.890   1.356   8.030 -0.4059  0.1830 -0.1994
 2240TIP3    H128355   1.952   1.429   8.024 -0.8540  0.4761 -1.9968
 2240TIP3    H228356   1.946   1.279   8.037  0.0988  0.6012  0.6164
 2241TIP3   OH228357   1.632   3.367   7.643  0.2345 -1.1471 -0.1700
 2241TIP3    H128358   1.558   3.395   7.589  0.2304 -0.3768  0.2214
 2241TIP3    H228359   1.647   3.276   7.618  1.9287 -0.1336 -3.4418
 2242TIP3   OH228360   1.086   6.302   0.186  0.5190 -0.0362  0.6330
 2242TIP3    H128361   1.003   6.259   0.163  0.9828 -1.9429  2.1954
 2242TIP3    H228362   1.108   6.266   0.272  2.3486  1.3987  0.8253
 2243TIP3   OH228363   0.101   4.548   7.761  0.3279  0.4157  0.0443
 2243TIP3    H128364   0.104   4.643   7.774  0.6560  0.6806 -1.7099
 2243TIP3    H228365   0.007   4.527   7.763  0.2815  0.6361  1.1442
 2244TIP3   OH228366   4.003   4.125   0.354 -0.1601 -0.1150  0.7992
 2244TIP3    H128367   3.972   4.043   0.314  0.7013 -0.2843  0.4596
 2244TIP3    H228368   4.002   4.108   0.448  0.9788 -0.8832  0.6899
 2245TIP3   OH228369   0.230   5.969   1.315 -0.4968  0.2988 -0.0124
 2245TIP3    H128370   0.289   6.031   1.272 -0.2092  0.7099  0.9448
 2245TIP3    H228371   0.246   5.885   1.271  0.2709  0.5654 -0.2461
 2246TIP3   OH228372   2.080   6.608   1.099  0.2380  0.1432  0.0115
 2246TIP3    H128373   2.124   6.525   1.082 -0.5878 -0.0446 -1.3382
 2246TIP3    H228374   2.034   6.594   1.181  1.1954 -0.2673  0.4959
 2247TIP3   OH228375   5.434   4.098   0.805 -0.1100  0.7700  0.1663
 2247TIP3    H128376   5.499   4.138   0.747  1.0351 -0.6123  0.4313
 2247TIP3    H228377   5.485   4.069   0.881 -1.4822  2.0367  1.6672
 2248TIP3   OH228378   6.538   4.635   1.807  0.1172 -0.1343 -0.5924
 2248TIP3    H128379   6.585   4.579   1.869  1.8682  0.0137 -1.7082
 2248TIP3    H228380   6.604   4.698   1.777 -0.9829  0.5271 -1.7089
 2249TIP3   OH228381   0.826   1.704   8.586  0.2691 -0.2803 -0.2780
 2249TIP3    H128382   0.806   1.736   8.498  1.0185  1.4641  0.1598
 2249TIP3    H228383   0.870   1.776   8.629  0.9093 -1.4917  1.1961
 2250TIP3   OH228384   4.528   2.034   1.581  0.3936 -0.1679 -0.2508
 2250TIP3    H128385   4.594   2.088   1.539 -0.4761  0.8684 -0.3264
 2250TIP3    H228386   4.448   2.052   1.532 -0.8064  1.5394  2.1435
 2251TIP3   OH228387   4.368   0.474   6.571  0.1212  0.0177  0.7673
 2251TIP3    H128388   4.336   0.494   6.659  2.9832  0.7875  1.7508
 2251TIP3    H228389   4.413   0.555   6.543  0.9035 -0.8409 -0.5958
 2252TIP3   OH228390   3.324   3.722   6.410 -0.2214 -0.0270 -0.0780
 2252TIP3    H128391   3.287   3.636   6.431  1.0537 -0.4120  0.6637
 2252TIP3    H228392   3.247   3.779   6.405 -1.0564 -1.1020 -0.1202
 2253TIP3   OH228393   0.853   4.449   8.571 -0.1511 -0.5909  0.2092
 2253TIP3    H128394   0.881   4.392   8.643 -1.8338  0.4140  1.7334
 2253TIP3    H228395   0.933   4.492   8.542  0.6116 -1.1974  1.3173
 2254TIP3   OH228396   2.387   5.233   0.733  0.2975 -0.1297  0.0908
 2254TIP3    H128397   2.358   5.255   0.822 -0.2914  2.5706 -0.6766
 2254TIP3    H228398   2.305   5.224   0.684  0.6261  1.8142 -0.8713
 2255TIP3   OH228399   3.412   0.795   0.847  0.2220 -0.0570  0.0140
 2255TIP3    H128400   3.444   0.760   0.930 -1.0505  2.1848  1.5731
 2255TIP3    H228401   3.491   0.813   0.796  1.0643 -0.9597  0.9703
 2256TIP3   OH228402   1.362   6.683   1.677  0.3560  0.2294 -0.3606
 2256TIP3    H128403   1.449   6.707   1.708  0.3049  0.4826 -0.4112
 2256TIP3    H228404   1.359   6.712   1.586 -0.2043  1.3241 -0.0080
 2257TIP3   OH228405   0.293   1.082   8.247  0.7916 -0.4225 -0.1406
 2257TIP3    H128406   0.356   1.015   8.273  1.6795  1.3497  2.7979
 2257TIP3    H228407   0.334   1.165   8.271 -0.8248  1.1551 -2.3719
 2258TIP3   OH228408   5.456   6.732   0.243 -0.2640  0.3044  0.3350
 2258TIP3    H128409   5.476   6.824   0.224 -1.8747  0.3115 -1.5461
 2258TIP3    H228410   5.513   6.683   0.184  0.7112  0.0487  1.4514
 2259TIP3   OH228411   0.399   2.389   0.065 -0.1203 -0.4350  0.0315
 2259TIP3    H128412   0.381   2.439  -0.015 -1.4616  0.9340  1.1365
 2259TIP3    H228413   0.456   2.317   0.036  0.6021  0.8402 -1.8872
 2260TIP3   OH228414   4.390   5.012   7.882 -0.1288  0.3622  0.2195
 2260TIP3    H128415   4.354   5.086   7.930 -1.2008 -0.4237  0.6766
 2260TIP3    H228416   4.314   4.972   7.839  0.5453 -0.0160 -0.6553
 2261TIP3   OH228417   1.847   6.211   7.861  0.2480 -0.3152 -0.3862
 2261TIP3    H128418   1.757   6.178   7.862  0.2296 -0.3025  1.4132
 2261TIP3    H228419   1.901   6.132   7.859  0.1906 -0.3666 -0.0154
 2262TIP3   OH228420   2.883   3.295   0.380  0.3829  0.2861  0.2538
 2262TIP3    H128421   2.830   3.219   0.402 -0.1801  0.3415 -0.8374
 2262TIP3    H228422   2.835   3.369   0.416 -0.7632  0.4198 -1.4581
 2263TIP3   OH228423   5.152   0.094   1.365 -0.0641  0.4851 -0.3063
 2263TIP3    H128424   5.141   0.104   1.270 -1.4147 -0.5378 -0.2799
 2263TIP3    H228425   5.098   0.019   1.388  2.6206 -1.2456  0.8258
 2264TIP3   OH228426   3.619   5.798   0.426 -0.3088 -0.1908  0.2022
 2264TIP3    H128427   3.524   5.803   0.412 -0.2195  0.1170 -0.3102
 2264TIP3    H228428   3.655   5.867   0.370  0.2927 -0.9161 -0.3208
 2265TIP3   OH228429   6.646   3.935   1.274 -0.4387  0.4500  0.5335
 2265TIP3    H128430   6.739   3.916   1.281 -0.7789 -1.5073  0.3636
 2265TIP3    H228431   6.617   3.947   1.364 -0.3393 -0.7243  0.7313
 2266TIP3   OH228432   6.713   1.949   8.600 -0.3073 -0.1152 -0.7565
 2266TIP3    H128433   6.802   1.952   8.566 -0.3744  0.4841 -0.8998
 2266TIP3    H228434   6.711   1.873   8.658 -0.2880 -1.4342 -2.4021
 2267TIP3   OH228435   5.880   3.232   8.635 -0.2550  0.0220  0.2985
 2267TIP3    H128436   5.813   3.221   8.567 -0.2280  1.7687 -0.0554
 2267TIP3    H228437   5.875   3.151   8.687 -1.7042 -0.4536 -0.5263
 2268TIP3   OH228438   1.569   1.277   8.610  0.2762  0.4290 -0.6890
 2268TIP3    H128439   1.557   1.245   8.699 -0.0576 -1.4367 -1.3428
 2268TIP3    H228440   1.480   1.285   8.575  0.3971  1.3331 -0.7989
 2269TIP3   OH228441   5.486   4.295   7.726  0.2976  0.0957  0.3620
 2269TIP3    H128442   5.411   4.300   7.667  0.1018 -0.8340  0.5091
 2269TIP3    H228443   5.507   4.386   7.746 -0.8791  0.3708  0.4407
 2270TIP3   OH228444   1.110   3.414   0.835 -0.2558 -0.0389  0.4119
 2270TIP3    H128445   1.120   3.397   0.929 -0.5461  0.5371  0.5554
 2270TIP3    H228446   1.041   3.354   0.807 -0.6116  0.2272  0.7068
 2271TIP3   OH228447   5.061   6.480   8.240  0.1876  0.0035 -0.7211
 2271TIP3    H128448   5.034   6.493   8.331  1.7232  0.7814 -0.3437
 2271TIP3    H228449   5.066   6.385   8.229  0.7608 -0.0961  0.2622
 2272TIP3   OH228450   3.200   5.643   8.852  0.1184 -0.0093 -0.2450
 2272TIP3    H128451   3.214   5.736   8.869  2.3572 -0.6487  2.0169
 2272TIP3    H228452   3.193   5.603   8.938  1.1715 -2.1705 -1.0714
 2273TIP3   OH228453   5.028   3.443   8.378  0.5589 -0.3702  0.4113
 2273TIP3    H128454   5.037   3.376   8.310  0.5296  0.6234 -0.6120
 2273TIP3    H228455   5.084   3.515   8.348 -0.1454  0.4380  0.9781
 2274TIP3   OH228456   4.311   3.740   8.489 -0.1332  0.2068  0.5032
 2274TIP3    H128457   4.368   3.752   8.565 -0.0789  0.3066  0.4468
 2274TIP3    H228458   4.287   3.648   8.491  0.6419 -0.0106  0.1022
 2275TIP3   OH228459   6.533   0.230   1.752  0.3634 -0.2075 -0.0424
 2275TIP3    H128460   6.484   0.286   1.812  1.9747  0.7372  0.4515
 2275TIP3    H228461   6.577   0.291   1.693  1.1488 -1.0065 -0.2981
 2276TIP3   OH228462   1.683   1.022   8.775  0.0888 -0.4331  0.1239
 2276TIP3    H128463   1.630   1.012   8.696  0.4283  3.0395 -0.7054
 2276TIP3    H228464   1.624   1.065   8.838  0.8308 -0.0599  0.5714
 2277TIP3   OH228465   3.132   3.266   8.082  0.6622 -0.3376  0.3370
 2277TIP3    H128466   3.189   3.324   8.032  0.2162 -1.4295 -1.5350
 2277TIP3    H228467   3.049   3.266   8.034  0.8600 -3.0072 -0.1553
 2278TIP3   OH228468   2.534   5.666   1.456 -0.5922  0.5735  0.6381
 2278TIP3    H128469   2.511   5.712   1.375  0.2425  0.5660  0.3936
 2278TIP3    H228470   2.530   5.734   1.523  1.3805  1.2349  0.1647
 2279TIP3   OH228471   1.443   5.699   8.138  0.6697  0.3897 -0.7223
 2279TIP3    H128472   1.455   5.610   8.105 -2.1748  0.5379 -2.4301
 2279TIP3    H228473   1.532   5.734   8.141  1.7405 -2.0081 -1.4050
 2280TIP3   OH228474   4.653   4.148   8.646  0.4248  0.0703  0.0706
 2280TIP3    H128475   4.644   4.085   8.717  1.6139 -0.1482  0.0445
 2280TIP3    H228476   4.726   4.203   8.672  0.5165  0.3360 -0.7263
 2281TIP3   OH228477   6.184   0.710   8.559  0.9181 -0.4238 -0.8845
 2281TIP3    H128478   6.223   0.630   8.594 -0.9709 -0.5256  1.1666
 2281TIP3    H228479   6.236   0.781   8.597  1.6156 -0.6181 -1.4522
 2282TIP3   OH228480   0.702   2.971   0.667 -0.1952 -0.1306  0.1337
 2282TIP3    H128481   0.792   2.987   0.638 -0.5513 -0.6562 -1.3783
 2282TIP3    H228482   0.710   2.950   0.760  1.0890  1.1661  0.3517
 2283TIP3   OH228483   2.650   3.068   8.887 -0.3889  0.0129 -0.1673
 2283TIP3    H128484   2.627   3.056   8.980  2.4541 -3.7641  0.2563
 2283TIP3    H228485   2.585   3.016   8.840  0.0651 -0.7442  0.0238
 2284TIP3   OH228486   1.129   4.704   1.733 -0.5334 -0.3789  0.0250
 2284TIP3    H128487   1.122   4.712   1.828  0.1479  0.8169 -0.0135
 2284TIP3    H228488   1.050   4.747   1.700  0.2234  1.0493  0.0067
 2285TIP3   OH228489   2.607   3.842   0.291 -0.9693  0.0142 -0.2336
 2285TIP3    H128490   2.631   3.803   0.375 -0.7020  2.9613  1.1775
 2285TIP3    H228491   2.519   3.808   0.273 -0.2277 -2.2625  0.1334
 2286TIP3   OH228492   2.349   3.698   0.913  0.0176 -0.3347 -0.0554
 2286TIP3    H128493   2.261   3.735   0.917  0.8541  2.0140 -1.3003
 2286TIP3    H228494   2.399   3.747   0.978  0.6507 -0.9851 -0.0366
 2287TIP3   OH228495   5.871   0.619   8.153  0.0137 -0.3235  0.0556
 2287TIP3    H128496   5.918   0.536   8.167  0.1591  0.0091  1.7652
 2287TIP3    H228497   5.937   0.678   8.117 -0.0471 -0.8742 -1.0160
 2288TIP3   OH228498   5.268   3.762   8.071  0.1354  0.5077 -0.0665
 2288TIP3    H128499   5.292   3.842   8.024 -0.8652  0.9940  0.2448
 2288TIP3    H228500   5.281   3.783   8.163  0.6604  0.0320 -0.0243
 2289TIP3   OH228501   1.034   2.622   2.408 -0.0012 -0.4426 -0.0225
 2289TIP3    H128502   0.951   2.628   2.362 -0.7582  1.2204  1.4555
 2289TIP3    H228503   1.022   2.551   2.472  0.1745 -1.0472 -0.6514
 2290TIP3   OH228504   1.499   1.198   8.873 -0.1391 -0.0080  0.0412
 2290TIP3    H128505   1.523   1.262   8.940 -0.6528  0.1357  0.0961
 2290TIP3    H228506   1.403   1.200   8.871 -0.1284  0.3686 -1.0585
 2291TIP3   OH228507   6.150   5.045   0.603 -0.0240 -0.5167 -0.2443
 2291TIP3    H128508   6.152   5.125   0.656 -1.2111 -0.6149 -0.0348
 2291TIP3    H228509   6.242   5.029   0.582  0.1581  1.4988 -1.2025
 2292TIP3   OH228510   1.664   3.049   7.299  0.8035  0.0944  0.3676
 2292TIP3    H128511   1.709   3.120   7.344 -0.0348  2.1588 -1.8410
 2292TIP3    H228512   1.584   3.089   7.265 -0.9928 -2.5713  1.1553
 2293TIP3   OH228513   4.971   0.009   2.152  0.0950 -0.7341  0.2688
 2293TIP3    H128514   5.038   0.067   2.115 -0.0938 -1.0509 -0.5998
 2293TIP3    H228515   4.980   0.018   2.247 -0.4131  1.2882  0.1722
 2294TIP3   OH228516   0.502   5.629   8.466 -0.3006 -0.0434  0.1320
 2294TIP3    H128517   0.586   5.673   8.453  0.3051 -0.9650  0.8264
 2294TIP3    H228518   0.495   5.619   8.561  0.0473 -2.3168 -0.0276
 2295TIP3   OH228519   4.534   5.325   1.737 -0.1319 -0.0160 -0.0125
 2295TIP3    H128520   4.522   5.261   1.807  0.5679 -0.1738 -0.0274
 2295TIP3    H228521   4.628   5.322   1.718  0.2699  2.2363  1.1887
 2296TIP3   OH228522   6.683   4.128   8.723 -0.1797 -0.1118  0.1991
 2296TIP3    H128523   6.643   4.129   8.636  0.4695  2.4851 -0.1328
 2296TIP3    H228524   6.610   4.143   8.783 -0.5441 -1.3577  0.0982
 2297TIP3   OH228525   5.010   1.307   7.916  0.1831 -0.5664  0.4989
 2297TIP3    H128526   5.034   1.237   7.855 -0.7207  0.5001 -1.1700
 2297TIP3    H228527   5.058   1.384   7.885 -2.6292  0.7869 -0.9071
 2298TIP3   OH228528   5.002   0.115   7.307 -0.1568  0.3630 -0.1797
 2298TIP3    H128529   5.020   0.066   7.227 -0.2978  1.1740 -0.7140
 2298TIP3    H228530   5.024   0.205   7.285 -0.3348  0.6145  0.6559
 2299TIP3   OH228531   6.680   0.438   0.521 -0.1289 -0.5334 -0.1863
 2299TIP3    H128532   6.601   0.385   0.519  0.2282 -1.1594  1.3071
 2299TIP3    H228533   6.703   0.450   0.428 -0.8685 -2.0009 -0.5861
 2300TIP3   OH228534   5.664   5.588   8.147 -0.7564  0.1985 -0.0226
 2300TIP3    H128535   5.709   5.554   8.069 -2.4387 -1.6967 -0.2384
 2300TIP3    H228536   5.689   5.681   8.150  1.9566 -0.4137 -0.9163
 2301TIP3   OH228537   0.074   2.163   1.210 -0.2261  0.5377  0.1101
 2301TIP3    H128538   0.132   2.238   1.201  1.2950 -0.6466 -0.4626
 2301TIP3    H228539   0.063   2.152   1.305  1.6038 -0.0041  0.2872
 2302TIP3   OH228540   3.890   2.073   8.658  0.2562  0.9890 -0.3001
 2302TIP3    H128541   3.940   2.008   8.609 -1.2493 -0.9565  0.6010
 2302TIP3    H228542   3.904   2.155   8.610  0.9082 -0.3049 -2.4694
 2303TIP3   OH228543   4.073   5.823   0.316  0.2552  0.4371  0.1943
 2303TIP3    H128544   4.126   5.902   0.310  0.2640  0.4478  0.3893
 2303TIP3    H228545   4.068   5.790   0.227 -0.5678  1.1940 -0.0549
 2304TIP3   OH228546   4.663   3.784   7.513  0.1714  0.8187  0.2341
 2304TIP3    H128547   4.615   3.864   7.494  2.6632  2.3347 -0.2130
 2304TIP3    H228548   4.704   3.800   7.598  0.0394 -0.3260  0.5306
 2305TIP3   OH228549   2.768   1.183   7.121 -0.3028 -0.1186 -0.1689
 2305TIP3    H128550   2.742   1.239   7.195  1.6602  1.2326 -0.4143
 2305TIP3    H228551   2.826   1.239   7.069  2.8062 -2.6820  0.2146
 2306TIP3   OH228552   4.361   1.229   1.114 -0.1326  0.1629  0.3319
 2306TIP3    H128553   4.388   1.308   1.161  0.2055  0.5447 -0.4870
 2306TIP3    H228554   4.305   1.261   1.043  0.4644 -0.2721 -0.3498
 2307TIP3   OH228555   2.536   2.151   0.515  1.2303 -0.4595  0.1647
 2307TIP3    H128556   2.544   2.241   0.482 -1.6530 -0.6032 -1.2398
 2307TIP3    H228557   2.492   2.160   0.599  0.1812 -0.5637 -0.3589
 2308TIP3   OH228558   4.569   0.936   8.583  0.4576 -0.0629  0.0086
 2308TIP3    H128559   4.623   0.974   8.653 -1.7779 -0.9651  2.3556
 2308TIP3    H228560   4.511   1.007   8.556  0.1794 -0.1903  0.2728
 2309TIP3   OH228561   1.225   3.115   8.239 -0.1407 -0.0988  0.1223
 2309TIP3    H128562   1.285   3.071   8.179 -0.1948  2.2939 -1.8399
 2309TIP3    H228563   1.179   3.179   8.185 -1.9592  0.5469  2.2765
 2310TIP3   OH228564   5.953   2.940   1.662  0.3157  0.4238  0.6083
 2310TIP3    H128565   5.997   2.946   1.747 -0.2961  0.7226  0.9058
 2310TIP3    H228566   5.911   3.025   1.651 -0.5922 -0.0219  0.5444
 2311TIP3   OH228567   1.115   2.964   8.982 -0.1198  0.2978  0.8785
 2311TIP3    H128568   1.066   2.883   8.998  0.5030  0.0006  1.3568
 2311TIP3    H228569   1.102   2.982   8.889 -0.9142  0.0817  0.9432
 2312TIP3   OH228570   3.400   6.351   6.170 -0.3607  0.5616 -0.5765
 2312TIP3    H128571   3.345   6.383   6.241 -0.3965 -0.3226 -0.1894
 2312TIP3    H228572   3.417   6.428   6.116 -1.5064  0.9630 -0.3954
 2313TIP3   OH228573   3.414   6.148   7.410  0.1765  0.1254 -0.5864
 2313TIP3    H128574   3.330   6.171   7.371 -0.1239 -1.9116 -1.2666
 2313TIP3    H228575   3.439   6.066   7.367  0.4790 -1.5679  2.5069
 2314TIP3   OH228576   4.194   6.325   9.008 -0.0245 -0.3898 -0.0958
 2314TIP3    H128577   4.197   6.320   8.912  1.2390 -0.9220 -0.0399
 2314TIP3    H228578   4.251   6.254   9.038 -0.7892 -0.5384  1.0675
 2315TIP3   OH228579   4.049   3.305   6.386  0.1435  0.2842 -0.2994
 2315TIP3    H128580   4.040   3.265   6.472 -0.2921  0.5240 -0.2300
 2315TIP3    H228581   4.086   3.391   6.403 -0.6810  0.6432 -0.2738
 2316TIP3   OH228582   5.829   3.608   6.574  0.2790  0.0483 -0.2589
 2316TIP3    H128583   5.746   3.568   6.552  0.5505 -0.4380 -0.4086
 2316TIP3    H228584   5.811   3.702   6.575 -0.0380  0.0158 -1.3110
 2317TIP3   OH228585   5.969   5.856   8.283 -0.0636 -0.2130  0.6234
 2317TIP3    H128586   5.972   5.772   8.236  1.3562  0.3962 -0.4144
 2317TIP3    H228587   6.036   5.910   8.241 -1.3329  1.6577  0.8904
 2318TIP3   OH228588   5.566   4.758   1.171  0.3940 -0.1397  0.4893
 2318TIP3    H128589   5.555   4.678   1.223  1.7130 -0.5593  0.1568
 2318TIP3    H228590   5.661   4.767   1.161  0.1847  0.0948 -1.5888
 2319TIP3   OH228591   3.369   2.374   7.032  0.4075 -0.2160  0.1321
 2319TIP3    H128592   3.340   2.418   6.951  0.4766  0.4172  0.4438
 2319TIP3    H228593   3.443   2.427   7.062  1.1313 -1.1292 -0.0125
 2320TIP3   OH228594   6.402   0.859   8.868  0.3215 -0.4591  0.1026
 2320TIP3    H128595   6.366   0.770   8.875  0.0622 -0.5044 -1.3977
 2320TIP3    H228596   6.473   0.851   8.804 -0.8931  0.7201 -1.4801
 2321TIP3   OH228597   2.426   2.052   8.188  0.3425 -0.2505 -0.6080
 2321TIP3    H128598   2.405   1.971   8.142 -2.0169 -0.9274  1.4552
 2321TIP3    H228599   2.443   2.025   8.278 -1.7644  1.5894  0.4294
 2322TIP3   OH228600   6.594   4.571   1.314 -1.1404 -0.4877 -0.5184
 2322TIP3    H128601   6.566   4.558   1.405  0.1784  1.7561  0.2871
 2322TIP3    H228602   6.641   4.654   1.315  0.8011 -1.4217 -2.8364
 2323TIP3   OH228603   1.842   1.502   1.216  0.2158  0.2283  0.0688
 2323TIP3    H128604   1.787   1.557   1.161 -0.2582  0.5735  0.8697
 2323TIP3    H228605   1.811   1.413   1.200  0.6417  0.2350 -0.8398
 2324TIP3   OH228606   3.313   1.909   1.245  0.4311  0.0195 -0.5596
 2324TIP3    H128607   3.395   1.899   1.293  0.5394  1.5104 -0.3752
 2324TIP3    H228608   3.330   1.979   1.183  0.2364 -1.7591 -2.7275
 2325TIP3   OH228609   4.659   3.664   1.885 -0.2149 -0.1520  0.0677
 2325TIP3    H128610   4.738   3.689   1.837  0.4701 -1.8310  0.2459
 2325TIP3    H228611   4.690   3.643   1.973 -0.9689 -0.2025  0.3315
 2326TIP3   OH228612   2.941   5.706   8.235  0.7259  0.2237 -0.6573
 2326TIP3    H128613   2.897   5.684   8.153  0.1751  0.2598 -0.3752
 2326TIP3    H228614   2.916   5.635   8.295 -1.6157  1.8729  0.4705
 2327TIP3   OH228615   5.695   4.758   8.332  0.7392  0.7948 -0.1081
 2327TIP3    H128616   5.744   4.677   8.348 -0.3588  0.4023  1.6306
 2327TIP3    H228617   5.660   4.781   8.418 -1.0665  1.7254 -1.0456
 2328TIP3   OH228618   3.624   0.991   1.109  0.2322 -0.1502 -0.3567
 2328TIP3    H128619   3.607   0.897   1.103 -0.7997 -0.0844  1.1034
 2328TIP3    H228620   3.538   1.031   1.121  0.6612  0.9944 -0.8793
 2329TIP3   OH228621   2.049   2.625   0.936 -0.1624  0.2322  0.5696
 2329TIP3    H128622   2.042   2.537   0.899  0.4479  0.3905  0.0646
 2329TIP3    H228623   2.096   2.676   0.870  0.4857  0.6538  1.3319
 2330TIP3   OH228624   2.334   6.340   0.577  0.7394  0.0953 -0.1763
 2330TIP3    H128625   2.371   6.270   0.522 -0.0051  0.0580 -0.6517
 2330TIP3    H228626   2.260   6.373   0.526  0.4079  0.4812  0.5413
 2331TIP3   OH228627   2.177   1.764   0.648 -0.3294  0.0116  0.1545
 2331TIP3    H128628   2.156   1.773   0.555  0.6472  0.4806 -0.0363
 2331TIP3    H228629   2.271   1.744   0.649 -0.3407 -0.0190  1.0388
 2332TIP3   OH228630   4.988   3.269   1.209  0.3103 -0.8109  0.1318
 2332TIP3    H128631   5.082   3.266   1.226  0.2697  1.2350  0.9994
 2332TIP3    H228632   4.959   3.352   1.246 -1.7362 -1.0753 -0.7091
 2333TIP3   OH228633   2.657   2.035   6.766 -0.3450 -0.0807  0.5202
 2333TIP3    H128634   2.707   1.954   6.752 -1.9143 -0.8741 -0.7557
 2333TIP3    H228635   2.566   2.006   6.774 -1.1497  1.6469 -1.4658
 2334TIP3   OH228636   1.010   3.739   8.724 -0.3360  0.0735  0.4834
 2334TIP3    H128637   1.037   3.681   8.653 -0.5964  0.6810 -0.1251
 2334TIP3    H228638   1.036   3.827   8.694 -0.0914  0.2895  1.3124
 2335TIP3   OH228639   5.418   3.765   0.526 -0.3414 -0.8059 -0.3367
 2335TIP3    H128640   5.493   3.757   0.467  0.1301  0.0110  0.1270
 2335TIP3    H228641   5.366   3.837   0.489 -0.3464 -0.6740 -0.0759
 2336TIP3   OH228642   1.600   1.626   1.805  0.1817  0.4937 -0.6243
 2336TIP3    H128643   1.593   1.713   1.766 -2.9698  0.8339  0.4767
 2336TIP3    H228644   1.627   1.641   1.895  0.1469  0.2610 -0.5727
 2337TIP3   OH228645   6.730   4.981   0.051  0.0985  0.4899 -0.3437
 2337TIP3    H128646   6.765   4.903   0.008  0.4069 -1.1166  2.5525
 2337TIP3    H228647   6.648   4.998   0.005 -0.5511 -2.2664 -0.4158
 2338TIP3   OH228648   2.766   4.069   8.567  0.3106  0.5026 -0.2002
 2338TIP3    H128649   2.673   4.050   8.555  0.1742  0.9913  0.0762
 2338TIP3    H228650   2.775   4.162   8.544  0.5698  0.6863  0.6100
 2339TIP3   OH228651   4.816   0.950   0.991 -0.1165 -0.9971  0.4928
 2339TIP3    H128652   4.831   0.876   0.932  2.8078 -0.2265  0.1032
 2339TIP3    H228653   4.904   0.979   1.015 -1.1879  0.1175  3.5235
 2340TIP3   OH228654   1.574   5.056   0.349 -0.0169 -0.1351  0.0700
 2340TIP3    H128655   1.615   4.975   0.318 -0.3569 -0.0586 -0.6059
 2340TIP3    H228656   1.480   5.041   0.338 -0.1021  0.1975  0.3329
 2341TIP3   OH228657   5.698   4.744   1.579  0.4594 -0.0591  0.1147
 2341TIP3    H128658   5.722   4.782   1.495  0.8428 -2.7314 -1.0946
 2341TIP3    H228659   5.630   4.679   1.558  0.2635 -0.5176  1.9267
 2342TIP3   OH228660   6.656   3.079   7.685  0.0396  0.1849 -0.3003
 2342TIP3    H128661   6.645   2.987   7.708 -0.0071  0.3150  0.2042
 2342TIP3    H228662   6.569   3.117   7.695  0.3782  0.6384  1.1125
 2343TIP3   OH228663   0.039   4.390   0.551 -0.0491 -0.3980 -0.8761
 2343TIP3    H128664   0.007   4.475   0.521 -0.8977 -0.6807 -0.8189
 2343TIP3    H228665   0.128   4.384   0.518 -0.1370  0.3249 -1.2577
 2344TIP3   OH228666   3.481   6.524   7.405 -0.3394  0.1540  0.0424
 2344TIP3    H128667   3.418   6.520   7.477 -0.3873  0.6616  0.0351
 2344TIP3    H228668   3.451   6.598   7.351 -0.8902 -0.8453 -1.0611
 2345TIP3   OH228669   4.160   0.119   2.785  0.2025 -0.0246  0.2260
 2345TIP3    H128670   4.160   0.032   2.744 -0.5835 -0.3831  0.9559
 2345TIP3    H228671   4.101   0.110   2.860 -4.9135  2.6174 -2.9422
 2346TIP3   OH228672   0.012   6.564   7.985  0.2073  0.6064 -0.8265
 2346TIP3    H128673   0.081   6.545   8.049  1.4084  1.4920 -1.7961
 2346TIP3    H228674   0.025   6.656   7.963 -0.0633  0.2896 -2.4428
 2347TIP3   OH228675   2.839   1.950   8.652  0.0111 -0.4490  0.4443
 2347TIP3    H128676   2.813   1.921   8.740 -0.3272 -2.1276 -0.1778
 2347TIP3    H228677   2.920   1.902   8.635  1.1420  1.3160  0.5591
 2348TIP3   OH228678   0.318   5.707   1.541 -0.5952 -0.1719  0.5264
 2348TIP3    H128679   0.346   5.625   1.499  0.8895  0.9002 -0.6983
 2348TIP3    H228680   0.398   5.758   1.550 -1.6856  1.7789 -0.1632
 2349TIP3   OH228681   5.834   5.423   8.623 -0.1110 -0.0259  0.2893
 2349TIP3    H128682   5.813   5.503   8.574  1.5990 -0.8291 -1.8928
 2349TIP3    H228683   5.898   5.452   8.689 -0.3635  0.5849  0.2737
 2350TIP3   OH228684   1.586   3.674   0.073  0.1159 -0.0057  0.3037
 2350TIP3    H128685   1.493   3.652   0.073  0.0068  0.2561 -2.3113
 2350TIP3    H228686   1.591   3.755   0.126 -1.1347  0.0354  0.3970
 2351TIP3   OH228687   4.890   4.842   7.294  0.5119 -0.1759  0.2401
 2351TIP3    H128688   4.890   4.928   7.253  2.1471 -0.2143  0.0836
 2351TIP3    H228689   4.798   4.824   7.314  0.1398  1.5473  0.1826
 2352TIP3   OH228690   3.254   0.449   2.015 -1.0762  0.7088 -0.5216
 2352TIP3    H128691   3.301   0.497   2.083 -0.3228 -0.7632  0.0553
 2352TIP3    H228692   3.296   0.476   1.933 -1.0525  1.4441 -0.2740
 2353TIP3   OH228693   4.464   1.909   8.380  0.2102  0.1752  0.1466
 2353TIP3    H128694   4.551   1.942   8.404 -0.3516  2.0559 -0.2422
 2353TIP3    H228695   4.405   1.945   8.446 -0.8102  2.2602 -1.7881
 2354TIP3   OH228696   4.345   6.112   9.012  0.2588 -0.0317  0.0471
 2354TIP3    H128697   4.397   6.059   8.952  0.5179  0.0141  0.2286
 2354TIP3    H228698   4.306   6.049   9.074  0.6414 -0.0058  0.3195
 2355TIP3   OH228699   6.389   2.287   6.227  0.1837  0.5249 -0.5428
 2355TIP3    H128700   6.463   2.331   6.270  1.2344 -1.1188 -0.5391
 2355TIP3    H228701   6.315   2.301   6.286  1.6212 -1.8628  2.0964
 2356TIP3   OH228702   2.444   2.590   6.174  0.0055  0.1340 -0.0880
 2356TIP3    H128703   2.489   2.543   6.244  0.2035 -0.3355 -0.5201
 2356TIP3    H228704   2.512   2.645   6.134  0.1419 -0.3715 -0.5659
 2357TIP3   OH228705   1.455   0.697   1.917  0.1446  0.0990 -0.1746
 2357TIP3    H128706   1.486   0.609   1.897  1.5308  0.6910 -0.8381
 2357TIP3    H228707   1.502   0.721   1.997 -0.5806  0.0706  0.2645
 2358TIP3   OH228708   4.556   6.711   7.522 -0.1105 -0.4757 -0.1474
 2358TIP3    H128709   4.583   6.621   7.541 -0.7870 -0.6383  0.0754
 2358TIP3    H228710   4.618   6.740   7.455  2.2599  0.0698  2.1067
 2359TIP3   OH228711   0.936   6.420   1.673 -0.3864  0.5236  0.3291
 2359TIP3    H128712   0.977   6.505   1.689 -0.1306  0.5380 -0.3666
 2359TIP3    H228713   0.849   6.441   1.639 -2.0228  0.5278  4.0102
 2360TIP3   OH228714   2.195   2.567   7.612 -0.1966 -0.2062  0.1608
 2360TIP3    H128715   2.258   2.595   7.546  0.7888 -0.8724  0.7958
 2360TIP3    H228716   2.127   2.521   7.563  1.2992 -2.0682 -0.2786
 2361TIP3   OH228717   4.110   0.939   1.473 -0.7534  0.2027  0.5066
 2361TIP3    H128718   4.078   0.853   1.497  0.7185 -0.6514 -0.4134
 2361TIP3    H228719   4.169   0.923   1.399 -0.9883  2.0790 -0.1532
 2362TIP3   OH228720   2.858   6.351   7.704  0.7690  0.3963 -0.0377
 2362TIP3    H128721   2.869   6.264   7.743  1.7601  0.2348 -0.6582
 2362TIP3    H228722   2.857   6.411   7.779 -0.2252 -0.1600  0.4148
 2363TIP3   OH228723   0.260   5.017   1.296 -0.0457 -0.0973  0.6758
 2363TIP3    H128724   0.347   4.985   1.318 -0.8291 -2.0099  1.2618
 2363TIP3    H228725   0.219   4.944   1.249 -1.0050  1.1170 -0.4655
 2364TIP3   OH228726   5.607   5.751   1.646  0.2374  0.0038 -0.1433
 2364TIP3    H128727   5.562   5.753   1.731  0.6662  1.3445  0.0848
 2364TIP3    H228728   5.558   5.813   1.592 -0.1435 -0.9867 -0.9391
 2365TIP3   OH228729   6.728   4.703   7.168 -0.1826  0.4685  0.2691
 2365TIP3    H128730   6.725   4.743   7.081 -2.8098  0.8972  0.4807
 2365TIP3    H228731   6.795   4.635   7.161 -0.6033  0.2266 -2.2081
 2366TIP3   OH228732   3.201   1.722   8.096  0.2571  0.2771  0.0325
 2366TIP3    H128733   3.118   1.688   8.127 -0.9784  0.4177 -2.8451
 2366TIP3    H228734   3.261   1.648   8.100 -0.6995 -0.5234 -0.2006
 2367TIP3   OH228735   6.294   3.464   8.732  0.0480 -0.1742 -0.0874
 2367TIP3    H128736   6.313   3.376   8.764 -0.8969 -0.6570 -0.7736
 2367TIP3    H228737   6.281   3.516   8.810  0.3014 -0.7250  0.3307
 2368TIP3   OH228738   1.640   4.386   1.243 -0.0103  0.3249  0.4380
 2368TIP3    H128739   1.599   4.372   1.328 -0.4824  0.8702  0.3076
 2368TIP3    H228740   1.648   4.299   1.205 -0.6175  0.1712  0.6662
 2369TIP3   OH228741   3.739   3.638   0.329  0.0754  0.0552 -0.3754
 2369TIP3    H128742   3.777   3.726   0.322 -0.2103  0.1547 -0.6536
 2369TIP3    H228743   3.714   3.615   0.239  0.6921 -0.5510 -0.4004
 2370TIP3   OH228744   4.862   1.534   7.215  0.3976 -0.6127 -0.7798
 2370TIP3    H128745   4.767   1.535   7.232  0.4379 -0.2497 -0.5840
 2370TIP3    H228746   4.869   1.547   7.121  0.1922 -2.1829 -1.0429
 2371TIP3   OH228747   3.167   6.375   1.077  0.8554  0.2411  0.5933
 2371TIP3    H128748   3.078   6.395   1.048  0.3563  0.3514  2.1086
 2371TIP3    H228749   3.182   6.435   1.150  1.7980 -0.4487  0.9781
 2372TIP3   OH228750   3.215   0.765   7.683 -0.8577  0.2331 -0.3057
 2372TIP3    H128751   3.272   0.812   7.623  1.4144  1.8216  2.7699
 2372TIP3    H228752   3.222   0.674   7.656  0.4276  0.8033 -2.1143
 2373TIP3   OH228753   1.248   6.259   0.897 -0.1798  0.5652  0.0206
 2373TIP3    H128754   1.249   6.197   0.969 -0.4278 -0.6499 -0.9860
 2373TIP3    H228755   1.161   6.248   0.857  0.8184 -0.6425 -1.9759
 2374TIP3   OH228756   5.613   2.778   0.097  0.2303  0.3575  0.1415
 2374TIP3    H128757   5.707   2.796   0.096  0.5319 -1.1063 -0.6713
 2374TIP3    H228758   5.591   2.763   0.005 -0.0195 -2.8896  0.6250
 2375TIP3   OH228759   4.078   3.377   8.716 -0.0829  0.4753 -0.1830
 2375TIP3    H128760   4.131   3.324   8.775  1.1056 -0.2452 -1.7932
 2375TIP3    H228761   3.989   3.371   8.750  0.0290 -2.4597 -0.1650
 2376TIP3   OH228762   1.568   4.757   9.060  0.2393  0.0809  0.5521
 2376TIP3    H128763   1.483   4.792   9.087 -0.0649 -0.7518  0.7194
 2376TIP3    H228764   1.580   4.679   9.114  1.3516  0.4633  0.8888
 2377TIP3   OH228765   0.911   5.765   8.730 -0.4390 -0.1203  0.0717
 2377TIP3    H128766   0.880   5.766   8.821  0.1294  1.7882  0.2857
 2377TIP3    H228767   0.991   5.713   8.732 -0.3772 -0.0043  0.6704
 2378TIP3   OH228768   5.503   4.199   0.500 -0.5434  0.4247  0.2506
 2378TIP3    H128769   5.554   4.262   0.450 -3.6335  1.8413 -1.3958
 2378TIP3    H228770   5.564   4.166   0.566  2.5828  1.4793 -1.8842
 2379TIP3   OH228771   2.748   2.356   1.760 -0.2394  0.2394  0.0192
 2379TIP3    H128772   2.812   2.285   1.751  0.0464  0.4585  0.3018
 2379TIP3    H228773   2.687   2.325   1.827 -1.6067 -0.8306 -1.6295
 2380TIP3   OH228774   6.295   0.662   0.708 -0.4904  0.5899  0.1325
 2380TIP3    H128775   6.280   0.755   0.723 -1.1801  0.3564  0.9210
 2380TIP3    H228776   6.317   0.627   0.794  1.5355  0.3306 -0.4296
 2381TIP3   OH228777   4.103   5.915   1.672 -0.0476  0.2247 -0.0858
 2381TIP3    H128778   4.186   5.963   1.673  0.9543 -1.4041 -0.9208
 2381TIP3    H228779   4.111   5.852   1.743 -1.9061  2.0496  1.8893
 2382TIP3   OH228780   5.664   0.147   2.346  0.3413 -0.2999  0.0884
 2382TIP3    H128781   5.681   0.225   2.292 -0.9690 -1.0232 -1.4332
 2382TIP3    H228782   5.734   0.148   2.412  1.1821  1.3784 -0.7682
 2383TIP3   OH228783   5.082   6.162   7.580 -0.1835 -0.0905  0.3960
 2383TIP3    H128784   5.003   6.160   7.527 -0.2191 -1.1682  0.4776
 2383TIP3    H228785   5.072   6.090   7.642  0.5278  0.2249  0.9000
 2384TIP3   OH228786   3.413   4.844   0.689 -0.2740 -0.2623 -0.3375
 2384TIP3    H128787   3.350   4.845   0.761 -1.4609  0.4143 -1.3239
 2384TIP3    H228788   3.479   4.909   0.714 -0.0862 -0.7984  0.6033
 2385TIP3   OH228789   1.180   5.968   2.006  0.0362  0.1589  0.3409
 2385TIP3    H128790   1.275   5.954   2.011 -0.2772 -1.9574  1.6849
 2385TIP3    H228791   1.165   6.048   2.055  1.2792  1.5899 -1.4780
 2386TIP3   OH228792   4.918   0.610   0.112  0.1358  0.5372 -0.0613
 2386TIP3    H128793   4.946   0.654   0.032  0.0960 -1.3049 -1.1614
 2386TIP3    H228794   4.960   0.658   0.182  0.2854  2.1370 -1.1986
 2387TIP3   OH228795   6.505   1.751   0.536 -0.3777  0.1528 -0.3106
 2387TIP3    H128796   6.582   1.703   0.564  0.0815  1.4091  0.6742
 2387TIP3    H228797   6.467   1.786   0.616 -2.7194 -1.4517 -0.6170
 2388TIP3   OH228798   0.911   1.275   0.012  0.2450 -0.0589  0.5110
 2388TIP3    H128799   0.957   1.192   0.024  1.4374  0.6846  1.3003
 2388TIP3    H228800   0.977   1.342   0.032 -0.4956  1.0977 -0.7719
 2389TIP3   OH228801   2.817   2.841   0.809 -0.2033  0.2263  0.2904
 2389TIP3    H128802   2.852   2.805   0.891  0.0848 -1.6044 -0.5963
 2389TIP3    H228803   2.895   2.861   0.757 -0.3947 -0.8126 -0.4210
 2390TIP3   OH228804   3.465   2.382   9.034  0.2611 -0.0243 -0.0198
 2390TIP3    H128805   3.405   2.337   8.974  1.4933 -1.6718 -0.0976
 2390TIP3    H228806   3.506   2.450   8.981 -1.6426  1.2675  0.0923
 2391TIP3   OH228807   6.444   5.820   7.083 -0.5217 -0.2973  0.3238
 2391TIP3    H128808   6.390   5.758   7.131  0.6952 -1.5879  0.0897
 2391TIP3    H228809   6.532   5.808   7.120 -0.4065  1.9852  0.9470
 2392TIP3   OH228810   6.013   0.401   8.139  0.7019  0.4379 -0.1419
 2392TIP3    H128811   6.081   0.335   8.154  1.0043  0.5398 -1.0165
 2392TIP3    H228812   6.000   0.401   8.044  0.2438  1.1790 -0.0833
 2393TIP3   OH228813   4.954   0.989   7.259 -0.4170  0.0964  0.2560
 2393TIP3    H128814   4.960   1.013   7.167 -0.1714 -1.9530 -0.3122
 2393TIP3    H228815   5.001   0.906   7.266 -1.6855 -0.5559  1.9136
 2394TIP3   OH228816   6.152   2.388   2.362  0.1433 -0.0683 -0.6162
 2394TIP3    H128817   6.145   2.340   2.445 -0.7866 -1.4494 -1.4564
 2394TIP3    H228818   6.185   2.474   2.387 -0.1256 -0.4495  1.1917
 2395TIP3   OH228819   2.715   4.606   1.260 -0.2546 -0.4856  0.1797
 2395TIP3    H128820   2.720   4.615   1.355  3.1574 -1.6516  0.2294
 2395TIP3    H228821   2.765   4.679   1.225 -0.4278 -0.7543 -0.6658
 2396TIP3   OH228822   2.270   6.047   7.862 -0.2023 -0.4668  0.2513
 2396TIP3    H128823   2.221   6.102   7.923 -1.5273 -1.3086 -0.0028
 2396TIP3    H228824   2.261   6.091   7.777  0.3240 -0.1151  0.3711
 2397TIP3   OH228825   1.938   0.393   1.566  0.5804  0.1980 -0.1299
 2397TIP3    H128826   1.949   0.335   1.490  1.1207  1.5880 -1.1646
 2397TIP3    H228827   2.023   0.390   1.610  0.3534 -0.3933  0.2900
 2398TIP3   OH228828   4.990   0.893   2.204  0.2175  0.1362  0.8862
 2398TIP3    H128829   5.030   0.807   2.217  0.0707 -0.1143 -0.1993
 2398TIP3    H228830   5.064   0.953   2.201  0.6195 -0.3913 -1.6449
 2399TIP3   OH228831   1.060   1.362   1.501 -0.3505 -0.1607 -0.5010
 2399TIP3    H128832   1.038   1.323   1.586  0.0794 -2.6843 -1.4604
 2399TIP3    H228833   0.982   1.411   1.476 -1.4491 -1.4584  0.2539
 2400TIP3   OH228834   1.107   5.074   0.842  0.2276 -0.0812 -0.5697
 2400TIP3    H128835   1.015   5.064   0.817  0.5051 -0.4543 -1.4985
 2400TIP3    H228836   1.107   5.065   0.937 -0.7108  0.0561 -0.5441
 2401TIP3   OH228837   5.859   2.764   7.538  0.1407  0.0731 -0.0507
 2401TIP3    H128838   5.896   2.848   7.511 -0.7381 -0.2831 -2.5913
 2401TIP3    H228839   5.884   2.755   7.630  1.3571  2.4952 -0.0837
 2402TIP3   OH228840   4.079   0.155   1.588 -0.0840 -0.2315 -0.5217
 2402TIP3    H128841   4.102   0.066   1.612 -3.1004 -0.9522  0.1194
 2402TIP3    H228842   3.984   0.156   1.589 -0.1634  2.9849 -0.6092
 2403TIP3   OH228843   3.831   4.063   1.587 -0.0221 -0.2400  0.3840
 2403TIP3    H128844   3.878   4.003   1.528  0.5683  0.4802  0.0983
 2403TIP3    H228845   3.792   4.006   1.653  3.4215 -0.7650  2.2125
 2404TIP3   OH228846   2.285   6.166   7.405  0.2209 -0.2473  0.0290
 2404TIP3    H128847   2.367   6.206   7.376  0.8222 -0.0666  1.8467
 2404TIP3    H228848   2.234   6.239   7.441  0.5327 -0.7543  1.6179
 2405TIP3   OH228849   6.244   4.985   0.208 -0.1905 -0.2350  0.7769
 2405TIP3    H128850   6.326   4.935   0.212  1.0675  1.5721 -0.8959
 2405TIP3    H228851   6.250   5.034   0.126 -0.3556  4.2702  3.1677
 2406TIP3   OH228852   1.305   6.038   8.139 -0.0324  0.1549 -0.5322
 2406TIP3    H128853   1.355   6.076   8.211 -1.3533 -0.7170  0.9167
 2406TIP3    H228854   1.370   5.992   8.086  0.8477 -0.0022  0.6464
 2407TIP3   OH228855   4.386   4.852   0.850 -0.0272  0.1894 -0.4481
 2407TIP3    H128856   4.465   4.906   0.856  0.0414 -0.0261  1.2566
 2407TIP3    H228857   4.418   4.762   0.863 -0.6285  0.2029  1.6151
 2408TIP3   OH228858   1.755   5.217   0.838  0.8990 -0.3734 -0.4101
 2408TIP3    H128859   1.836   5.244   0.880  1.2221  0.3855 -1.4763
 2408TIP3    H228860   1.783   5.158   0.767  0.4475 -0.8529 -0.1941
 2409TIP3   OH228861   3.167   1.180   2.409 -0.1359  0.4664 -0.2404
 2409TIP3    H128862   3.075   1.189   2.434  0.0019  1.2408  0.0298
 2409TIP3    H228863   3.204   1.119   2.473 -0.2748  0.7979  0.1571
 2410TIP3   OH228864   0.234   2.669   1.425 -0.6880  0.2903 -0.1775
 2410TIP3    H128865   0.183   2.684   1.345 -1.1461  0.1468  0.0842
 2410TIP3    H228866   0.324   2.662   1.394 -0.8746  0.1032 -0.6985
 2411TIP3   OH228867   5.800   4.543   8.483 -0.2494  0.0475  0.0758
 2411TIP3    H128868   5.807   4.594   8.564 -0.3345  0.2829 -0.0675
 2411TIP3    H228869   5.880   4.489   8.483 -0.4764 -0.3031  0.5575
 2412TIP3   OH228870   6.246   4.292   9.126  0.2491 -0.2646  0.5431
 2412TIP3    H128871   6.224   4.259   9.214  0.3546 -2.7073 -0.2604
 2412TIP3    H228872   6.162   4.304   9.083  0.2259 -0.7311  0.4478
 2413TIP3   OH228873   5.092   6.146   1.054  0.1395  0.7969 -0.5160
 2413TIP3    H128874   5.036   6.221   1.034 -0.5557  0.5473  0.4303
 2413TIP3    H228875   5.033   6.071   1.055  0.6415  0.3944 -0.3819
 2414TIP3   OH228876   6.522   6.276   6.925  0.3902 -0.0597  0.0148
 2414TIP3    H128877   6.523   6.180   6.926 -1.8381 -0.1463  1.0428
 2414TIP3    H228878   6.471   6.298   6.847  0.4649  0.2637  0.0583
 2415TIP3   OH228879   3.197   0.202   1.546 -0.0574  0.7267 -0.2999
 2415TIP3    H128880   3.127   0.138   1.532  0.4036  0.1507 -0.0185
 2415TIP3    H228881   3.155   0.287   1.532 -0.6464  0.3599 -0.8235
 2416TIP3   OH228882   2.741   4.151   0.057 -0.1193 -0.3454  0.0158
 2416TIP3    H128883   2.807   4.141   0.125 -0.9684 -1.5174  0.6992
 2416TIP3    H228884   2.783   4.206  -0.009  1.0833 -0.0388  1.0034
 2417TIP3   OH228885   0.824   5.914   2.426  0.0843 -0.6414 -0.0203
 2417TIP3    H128886   0.875   5.902   2.507 -0.3815  2.5593  0.9088
 2417TIP3    H228887   0.889   5.944   2.362 -0.1156  0.6258  0.3403
 2418TIP3   OH228888   6.089   6.717   1.702 -0.7296  0.0516  1.1738
 2418TIP3    H128889   6.156   6.750   1.642 -2.3696  2.2012  0.3918
 2418TIP3    H228890   6.083   6.624   1.683  1.0332  0.0743  0.3011
 2419TIP3   OH228891   0.462   2.166   8.804 -0.3954  0.6477 -0.1833
 2419TIP3    H128892   0.545   2.135   8.767 -1.4748 -1.1106 -1.2797
 2419TIP3    H228893   0.419   2.211   8.732 -0.9131  0.4838  0.0168
 2420TIP3   OH228894   6.488   1.056   1.875  0.8265  0.1505  0.7006
 2420TIP3    H128895   6.411   1.008   1.906 -0.2953  1.9939  0.9084
 2420TIP3    H228896   6.458   1.146   1.865  2.5205  0.5994 -0.8998
 2421TIP3   OH228897   1.325   5.677   8.895  0.6040 -0.4468 -0.3118
 2421TIP3    H128898   1.365   5.751   8.941 -0.2463 -0.2532  0.1328
 2421TIP3    H228899   1.386   5.604   8.910  1.0377 -0.0425 -0.0648
 2422TIP3   OH228900   2.090   5.455   8.804 -0.0171  0.3448  0.1121
 2422TIP3    H128901   2.174   5.440   8.849  0.6959  1.8528 -0.6464
 2422TIP3    H228902   2.025   5.455   8.875  0.4016 -2.0846  0.5813
 2423TIP3   OH228903   3.721   2.407   0.339  0.2462 -0.1654  0.1060
 2423TIP3    H128904   3.648   2.426   0.280  0.5714  1.2392  0.1163
 2423TIP3    H228905   3.798   2.437   0.291  0.5966  0.2643  0.9334
 2424TIP3   OH228906   0.683   1.362   0.893  0.4862  0.4850  0.5731
 2424TIP3    H128907   0.604   1.387   0.845  0.2782 -1.3128 -0.0953
 2424TIP3    H228908   0.652   1.335   0.979  0.4439  0.3977  0.5308
 2425TIP3   OH228909   0.415   6.511   1.083  0.2212 -0.0685  0.2258
 2425TIP3    H128910   0.485   6.469   1.033 -0.1165  0.2321 -0.5174
 2425TIP3    H228911   0.409   6.460   1.164 -0.6458 -1.9201 -0.9286
 2426TIP3   OH228912   4.538   0.571   1.257 -0.4117 -0.5048  0.0137
 2426TIP3    H128913   4.448   0.564   1.289 -1.5285  2.9156 -1.8939
 2426TIP3    H228914   4.583   0.624   1.323 -1.0163  1.2823 -0.9438
 2427TIP3   OH228915   2.419   0.434   1.083 -0.3894 -0.1701  0.3620
 2427TIP3    H128916   2.452   0.523   1.097  1.1930 -0.7715  0.6245
 2427TIP3    H228917   2.441   0.387   1.163 -0.1261 -1.1045 -0.2462
 2428TIP3   OH228918   0.513   6.642   0.689 -0.0796 -0.2331  0.1480
 2428TIP3    H128919   0.570   6.646   0.612 -1.5696  0.3942 -0.9739
 2428TIP3    H228920   0.479   6.553   0.689 -0.6500 -0.0262 -0.3814
 2429TIP3   OH228921   1.959   3.373   6.615 -0.1073 -0.0861  0.0549
 2429TIP3    H128922   1.987   3.329   6.695  0.4639 -0.1189 -0.1645
 2429TIP3    H228923   2.037   3.417   6.583 -0.3399 -0.0629 -0.4840
 2430TIP3   OH228924   4.062   2.773   8.128  0.0276  0.0097  0.3696
 2430TIP3    H128925   4.014   2.706   8.080 -0.0182  0.2218  0.1154
 2430TIP3    H228926   4.140   2.789   8.077  0.0446  0.1414  0.4360
 2431TIP3   OH228927   2.728   1.868   0.819 -0.1540 -0.2915  0.2349
 2431TIP3    H128928   2.641   1.905   0.836 -1.4925 -2.5441 -1.2101
 2431TIP3    H228929   2.717   1.774   0.830  1.9589 -0.7070 -0.6339
 2432TIP3   OH228930   4.059   0.300   2.313 -0.5612 -0.2450 -0.3384
 2432TIP3    H128931   4.071   0.270   2.403 -0.5140  0.8035  0.0217
 2432TIP3    H228932   3.964   0.312   2.304 -0.5606 -0.2916 -0.4026
 2433TIP3   OH228933   1.934   3.858   1.355 -0.1665 -0.2538 -0.0103
 2433TIP3    H128934   1.845   3.828   1.370  0.1198  0.1373  3.2619
 2433TIP3    H228935   1.924   3.945   1.316 -1.0631 -1.5102 -2.8241
 2434TIP3   OH228936   5.044   0.815   0.270 -0.1301  0.4915 -0.1125
 2434TIP3    H128937   5.063   0.879   0.338  0.9388  0.9662 -0.8340
 2434TIP3    H228938   5.075   0.856   0.189 -0.5053 -0.4493 -0.7444
 2435TIP3   OH228939   1.099   2.393   7.079 -0.1563  0.6209 -0.2923
 2435TIP3    H128940   1.133   2.353   6.998  1.1918  0.5723  0.2828
 2435TIP3    H228941   1.012   2.425   7.054  0.5748  1.3897 -2.0049
 2436TIP3   OH228942   4.318   1.806   8.177  0.0463  0.1203  0.2252
 2436TIP3    H128943   4.229   1.812   8.212  0.6868 -1.4597  2.2850
 2436TIP3    H228944   4.371   1.856   8.239  0.7193  0.5809 -0.6881
 2437TIP3   OH228945   2.436   3.455   7.166 -0.0749 -0.2760  0.0250
 2437TIP3    H128946   2.531   3.448   7.180  0.2543 -0.7309 -2.0989
 2437TIP3    H228947   2.427   3.510   7.088 -1.7038  1.6308  1.4313
 2438TIP3   OH228948   2.210   2.958   7.926  0.0995  0.4226  0.2392
 2438TIP3    H128949   2.298   2.923   7.936 -0.2096 -0.3804  0.3048
 2438TIP3    H228950   2.155   2.898   7.977 -0.5673  0.5187 -0.3501
 2439TIP3   OH228951   5.028   5.471   8.741  0.7511 -0.1296 -0.2671
 2439TIP3    H128952   5.113   5.433   8.764  0.4698 -0.1748  0.7096
 2439TIP3    H228953   4.997   5.513   8.821  0.4451  1.0316 -0.9642
 2440TIP3   OH228954   2.158   2.273   1.728  0.1025  0.1264  0.1024
 2440TIP3    H128955   2.167   2.272   1.824  3.2101 -0.4221 -0.1035
 2440TIP3    H228956   2.248   2.272   1.695 -0.8367 -1.9235 -2.8520
 2441TIP3   OH228957   0.649   6.350   7.374 -0.5218  0.1843  0.6479
 2441TIP3    H128958   0.616   6.415   7.313 -0.2980  0.6130  0.9815
 2441TIP3    H228959   0.653   6.395   7.458 -1.9719 -0.7344  1.2576
 2442TIP3   OH228960   6.288   2.116   0.356 -1.2365  0.1256  0.0872
 2442TIP3    H128961   6.331   2.201   0.345  0.8688 -0.9568 -0.5557
 2442TIP3    H228962   6.293   2.098   0.450 -1.7560  0.7265  0.2342
 2443TIP3   OH228963   1.105   5.988   7.626 -0.0291 -0.2266 -0.0410
 2443TIP3    H128964   1.143   5.925   7.565  0.1701 -0.3330  0.1925
 2443TIP3    H228965   1.150   5.972   7.709  1.9803  1.9880 -0.5804
 2444TIP3   OH228966   6.346   2.442   6.581 -0.2175  0.3290  0.4522
 2444TIP3    H128967   6.371   2.483   6.664 -1.5183  3.2534 -0.4844
 2444TIP3    H228968   6.253   2.424   6.591 -0.0617 -0.7142  0.1379
 2445TIP3   OH228969   6.310   3.623   8.094  0.1068 -0.1530 -0.0342
 2445TIP3    H128970   6.362   3.679   8.037 -0.8524 -0.1532 -0.9426
 2445TIP3    H228971   6.235   3.678   8.119  0.0635 -0.4502  0.5149
 2446TIP3   OH228972   0.281   6.272   2.080 -0.0008 -0.1897 -0.1003
 2446TIP3    H128973   0.374   6.287   2.099 -0.2927  3.0265 -0.7169
 2446TIP3    H228974   0.236   6.346   2.120 -2.3489 -1.6335  0.0892
 2447TIP3   OH228975   1.230   4.739   7.273 -0.4580  1.0610 -0.1043
 2447TIP3    H128976   1.226   4.644   7.279 -1.1792  1.1998  3.4531
 2447TIP3    H228977   1.227   4.757   7.179 -1.3832 -2.3579 -0.8533
 2448TIP3   OH228978   5.976   4.134   1.624 -0.0240 -0.6391 -0.5847
 2448TIP3    H128979   6.035   4.061   1.604  0.2472 -0.9591  1.1903
 2448TIP3    H228980   5.888   4.101   1.602  0.1965 -1.0986 -0.7875
 2449TIP3   OH228981   5.904   3.830   8.486 -0.0600 -0.0796 -0.2119
 2449TIP3    H128982   5.859   3.913   8.467 -1.1858 -0.4084  0.8724
 2449TIP3    H228983   5.997   3.850   8.474 -0.4170  0.8635 -1.6654
 2450TIP3   OH228984   3.153   1.332   0.932 -0.0239 -0.1658  0.6344
 2450TIP3    H128985   3.206   1.411   0.920  3.2146 -2.1785  0.6305
 2450TIP3    H228986   3.124   1.336   1.023  1.8491  0.0879  1.2631
 2451TIP3   OH228987   6.122   3.633   0.301  0.1703 -0.3800  0.0871
 2451TIP3    H128988   6.184   3.584   0.246 -0.1580  0.4592 -1.0839
 2451TIP3    H228989   6.175   3.701   0.343  0.1788 -0.1055 -0.3584
 2452TIP3   OH228990   1.711   1.033   7.482 -0.1721  0.2364  0.2328
 2452TIP3    H128991   1.749   1.082   7.555  0.5827 -0.7803  0.5409
 2452TIP3    H228992   1.707   1.096   7.410 -0.7263  1.1884  1.0852
 2453TIP3   OH228993   6.671   1.527   0.254 -0.0575  0.0648 -0.6686
 2453TIP3    H128994   6.661   1.494   0.164 -0.7326 -0.4417 -0.4175
 2453TIP3    H228995   6.698   1.618   0.243 -0.7815  0.2075 -1.3976
 2454TIP3   OH228996   4.665   3.762   7.809  1.2313  0.1404  0.2131
 2454TIP3    H128997   4.638   3.679   7.847  0.6034  0.3552  0.2605
 2454TIP3    H228998   4.725   3.800   7.874 -0.0013  0.6024  1.1233
 2455TIP3   OH228999   1.442   0.919   7.830 -0.0635 -0.3014 -0.0038
 2455TIP3    H129000   1.408   0.993   7.780 -2.1950 -0.3649  1.2170
 2455TIP3    H229001   1.366   0.861   7.841  1.1701 -1.9096  0.4251
 2456TIP3   OH229002   1.310   6.573   0.816 -0.4044 -0.1440  1.1480
 2456TIP3    H129003   1.242   6.614   0.764  1.1073 -0.2742 -1.0866
 2456TIP3    H229004   1.290   6.479   0.812  0.1925 -0.2511 -0.0816
 2457TIP3   OH229005   5.433   0.556   7.149  0.0316 -0.1935 -0.4546
 2457TIP3    H129006   5.491   0.608   7.204  0.2597  0.0798 -0.9437
 2457TIP3    H229007   5.481   0.545   7.067 -0.2071 -0.7897 -0.5191
 2458TIP3   OH229008   3.781   0.688   8.544  0.0221  0.1850 -0.4145
 2458TIP3    H129009   3.710   0.626   8.525 -0.2009  0.3951 -0.2841
 2458TIP3    H229010   3.843   0.677   8.472  0.0172 -0.2347 -0.3593
 2459TIP3   OH229011   0.037   0.286   8.146  0.3065 -0.1260  0.1495
 2459TIP3    H129012   0.110   0.228   8.126 -0.5635 -1.5780  1.0316
 2459TIP3    H229013   0.054   0.316   8.235 -0.2113 -0.5621  0.4026
 2460TIP3   OH229014   2.297   4.364   0.839  0.0950  0.3417  0.4024
 2460TIP3    H129015   2.303   4.326   0.926  0.3510  1.6492  0.9799
 2460TIP3    H229016   2.324   4.455   0.851 -2.7677  1.3937 -0.4812
 2461TIP3   OH229017   1.743   3.619   7.650 -0.2298 -0.5350 -0.1716
 2461TIP3    H129018   1.784   3.629   7.564  1.0814  0.2930  0.5069
 2461TIP3    H229019   1.710   3.530   7.651  2.3589 -1.5870 -0.4961
 2462TIP3   OH229020   2.649   2.803   7.093 -0.0025 -0.1420  0.0031
 2462TIP3    H129021   2.599   2.823   7.014  0.1396 -0.1592 -0.0922
 2462TIP3    H229022   2.627   2.873   7.155 -1.8740 -1.3164  0.7607
 2463TIP3   OH229023   0.883   3.568   2.466  0.0037 -0.0565 -0.3645
 2463TIP3    H129024   0.804   3.585   2.518  1.1819 -0.9704  1.8180
 2463TIP3    H229025   0.940   3.643   2.484  2.0698 -2.1903  3.1274
 2464TIP3   OH229026   2.117   1.220   7.108 -0.0700  0.3652  0.0466
 2464TIP3    H129027   2.102   1.258   7.195 -2.3930  0.0581 -0.1569
 2464TIP3    H229028   2.103   1.293   7.047 -1.9501 -0.1783 -0.2148
 2465TIP3   OH229029   2.730   3.826   1.563  0.1165 -0.0273  0.3464
 2465TIP3    H129030   2.723   3.839   1.658  1.2819  0.3146  0.3978
 2465TIP3    H229031   2.762   3.736   1.554  1.2482  0.3569  0.3429
 2466TIP3   OH229032   4.995   5.222   1.298  0.5789 -0.4611 -0.7755
 2466TIP3    H129033   4.989   5.145   1.355 -0.5047 -0.3133 -0.6659
 2466TIP3    H229034   5.026   5.188   1.214 -2.0696 -1.4352 -1.4554
 2467TIP3   OH229035   3.782   1.651   7.076 -0.1657 -0.3234 -0.6832
 2467TIP3    H129036   3.856   1.653   7.137 -2.3037  2.0020  2.1177
 2467TIP3    H229037   3.809   1.706   7.003  0.9479  0.3820  0.2273
 2468TIP3   OH229038   1.502   4.600   2.423  0.1997 -0.3921 -0.2219
 2468TIP3    H129039   1.408   4.596   2.439 -0.1786  1.7334 -1.4419
 2468TIP3    H229040   1.533   4.671   2.480  0.4666  0.9675 -1.9778
 2469TIP3   OH229041   0.042   1.731   8.975  0.5468  0.1613  0.1003
 2469TIP3    H129042   0.027   1.816   9.016  0.3477  0.8036 -1.2332
 2469TIP3    H229043   0.135   1.731   8.953  0.3110  0.5341 -0.9403
 2470TIP3   OH229044   3.448   2.486   1.005 -0.4974  0.1400 -0.2065
 2470TIP3    H129045   3.402   2.524   0.930 -2.1750  0.1635  0.7705
 2470TIP3    H229046   3.414   2.534   1.080 -2.7893 -3.1774  1.1149
 2471TIP3   OH229047   6.128   5.852   7.590 -0.7781 -0.1552 -0.6066
 2471TIP3    H129048   6.118   5.795   7.514 -0.2075 -0.1389 -0.6967
 2471TIP3    H229049   6.191   5.807   7.646  0.2972  0.7389 -1.0409
 2472TIP3   OH229050   3.399   0.391   7.321 -0.3848  0.6847 -0.4787
 2472TIP3    H129051   3.484   0.392   7.364 -0.8012 -1.8025  0.5356
 2472TIP3    H229052   3.403   0.466   7.260  3.1562 -0.2923 -1.7369
 2473TIP3   OH229053   0.016   5.128   8.602 -0.4002 -0.0696 -0.1078
 2473TIP3    H129054  -0.033   5.106   8.681  1.0332 -1.4710  0.4626
 2473TIP3    H229055   0.077   5.196   8.629 -2.2148  1.9975 -0.9253
 2474TIP3   OH229056   5.999   0.183   8.783 -0.6483  0.3187 -0.4476
 2474TIP3    H129057   6.040   0.109   8.829 -0.9036 -0.3450 -1.2708
 2474TIP3    H229058   5.977   0.149   8.697  0.0222  1.6047 -1.1726
 2475TIP3   OH229059   3.847   1.280   1.427 -0.4183 -0.2448 -0.2210
 2475TIP3    H129060   3.820   1.367   1.456  0.1640 -0.1205 -0.0364
 2475TIP3    H229061   3.795   1.263   1.349 -0.3239  0.3942 -0.4306
 2476TIP3   OH229062   3.010   6.581   0.972  0.2214  0.5527 -0.1371
 2476TIP3    H129063   3.062   6.661   0.967  1.4263 -0.2636 -1.0508
 2476TIP3    H229064   3.007   6.549   0.883 -4.7582  2.2979 -0.9531
 2477TIP3   OH229065   5.318   6.493   1.871  0.0156  0.0656  0.4982
 2477TIP3    H129066   5.304   6.487   1.965  2.0345 -0.0244  0.8396
 2477TIP3    H229067   5.407   6.528   1.862  0.2203 -0.7840 -1.3485
 2478TIP3   OH229068   1.449   5.629   7.398 -0.0206 -0.3736 -0.7932
 2478TIP3    H129069   1.493   5.656   7.478  0.3071 -2.0347 -0.3747
 2478TIP3    H229070   1.385   5.563   7.426 -0.9017  0.0414 -1.7296
 2479TIP3   OH229071   5.591   1.938   1.495 -0.1089 -0.0886  0.5035
 2479TIP3    H129072   5.676   1.978   1.516 -0.6376  1.2750  0.1289
 2479TIP3    H229073   5.611   1.844   1.486  1.6274  0.3630 -0.9670
 2480TIP3   OH229074   1.234   5.349   7.869 -0.0323  0.5716 -0.2374
 2480TIP3    H129075   1.183   5.303   7.803 -1.0134  1.1850  0.0679
 2480TIP3    H229076   1.168   5.386   7.928  0.8042  0.0924  1.0498
 2481TIP3   OH229077   5.579   5.667   0.888  0.0294  0.3561 -0.8866
 2481TIP3    H129078   5.660   5.628   0.919 -0.4063 -0.5320 -0.8385
 2481TIP3    H229079   5.590   5.672   0.793 -0.0660 -0.2467 -0.9309
 2482TIP3   OH229080   1.865   6.449   7.040 -0.4088  0.0158  0.5991
 2482TIP3    H129081   1.888   6.528   6.991  1.1300 -0.2384  0.8728
 2482TIP3    H229082   1.809   6.481   7.111  1.4865  1.1232  1.6617
 2483TIP3   OH229083   5.725   0.026   8.176  0.0304  0.5611 -0.1937
 2483TIP3    H129084   5.747  -0.056   8.132 -0.6694  0.4935 -0.4187
 2483TIP3    H229085   5.640   0.051   8.141 -2.4685 -1.4677  3.7961
 2484TIP3   OH229086   3.162   2.006   7.417 -0.2552  0.1112  0.1062
 2484TIP3    H129087   3.240   1.971   7.460  0.6723 -0.8528 -2.2075
 2484TIP3    H229088   3.179   2.100   7.412  0.8335 -0.0894 -0.4281
 2485TIP3   OH229089   5.761   4.646   0.955 -0.1952 -0.7960 -0.0581
 2485TIP3    H129090   5.701   4.594   0.901  1.1894 -1.8084 -0.6653
 2485TIP3    H229091   5.797   4.584   1.018  0.5537 -0.3196 -0.0021
 2486TIP3   OH229092   4.952   0.674   7.587  0.0445 -0.0095 -0.5106
 2486TIP3    H129093   4.977   0.582   7.595  0.9743  0.3275  0.7095
 2486TIP3    H229094   4.934   0.686   7.494 -1.7904 -1.8443 -0.4663
 2487TIP3   OH229095   1.702   4.769   8.118  0.4628 -0.2405  0.1038
 2487TIP3    H129096   1.618   4.814   8.115  1.2799  1.3166 -0.5678
 2487TIP3    H229097   1.681   4.677   8.102 -0.9074  0.4254 -2.3562
 2488TIP3   OH229098   1.875   0.640   1.645 -0.0802 -0.2767  0.1510
 2488TIP3    H129099   1.800   0.614   1.699 -0.0110 -0.6599  0.0612
 2488TIP3    H229100   1.903   0.559   1.602  0.3541 -0.1238  0.1433
 2489TIP3   OH229101   4.274   6.122   0.831  0.0972 -0.0164  0.1804
 2489TIP3    H129102   4.368   6.127   0.813 -0.2862  0.7027 -1.8552
 2489TIP3    H229103   4.246   6.043   0.785 -0.5958  0.7935 -0.8149
 2490TIP3   OH229104   1.282   3.200   7.765 -0.0980  0.4882 -0.3689
 2490TIP3    H129105   1.209   3.183   7.824  0.3513  0.3141  0.1510
 2490TIP3    H229106   1.313   3.287   7.788 -0.8845  1.0654 -1.4043
 2491TIP3   OH229107   5.160   3.313   8.682 -0.0552  0.0353 -0.2271
 2491TIP3    H129108   5.209   3.390   8.652  0.3601  0.2311  0.9083
 2491TIP3    H229109   5.145   3.262   8.603  1.4270  0.2996 -0.7126
 2492TIP3   OH229110   4.153   1.569   1.708  0.0273 -0.1598 -0.2330
 2492TIP3    H129111   4.187   1.495   1.658 -0.1019  0.0010 -0.5592
 2492TIP3    H229112   4.223   1.635   1.704 -0.0608 -0.0731 -0.3679
 2493TIP3   OH229113   6.122   1.311   1.863  0.3862 -0.3332  0.1896
 2493TIP3    H129114   6.033   1.279   1.872  0.2437  0.0225  0.0533
 2493TIP3    H229115   6.135   1.369   1.938 -0.2956  1.4509 -1.0032
 2494TIP3   OH229116   5.814   3.701   0.707 -0.3129  0.1293 -0.8813
 2494TIP3    H129117   5.786   3.610   0.716 -0.6167  0.3077  0.2025
 2494TIP3    H229118   5.900   3.696   0.665 -0.0679 -0.7021 -0.3160
 2495TIP3   OH229119   6.100   0.945   1.195 -0.0718  0.2034 -0.7253
 2495TIP3    H129120   6.118   0.991   1.277 -0.2490 -1.7979  0.5005
 2495TIP3    H229121   6.143   0.998   1.128 -0.5273  2.2897  0.5382
 2496TIP3   OH229122   6.306   6.357   6.702 -0.1077  0.1523  0.8929
 2496TIP3    H129123   6.215   6.337   6.726 -0.4302 -1.4083 -1.2467
 2496TIP3    H229124   6.331   6.285   6.644  1.3976  2.1549 -1.1484
 2497TIP3   OH229125   3.556   6.322   8.264 -0.1259 -0.3136  0.2557
 2497TIP3    H129126   3.617   6.365   8.203 -0.5555  0.1150  0.1162
 2497TIP3    H229127   3.607   6.252   8.304 -0.2140 -1.5316 -1.6285
 2498TIP3   OH229128   0.542   5.816   6.666  0.1130 -0.0474  0.1745
 2498TIP3    H129129   0.525   5.734   6.620 -1.6177  0.4033 -0.0428
 2498TIP3    H229130   0.636   5.830   6.655  0.6215 -2.3707  0.8887
 2499TIP3   OH229131   0.695   6.321   0.728 -0.8621 -0.0422 -0.0900
 2499TIP3    H129132   0.613   6.342   0.682  0.4824  0.5365 -2.3965
 2499TIP3    H229133   0.727   6.242   0.684  0.4372  0.4587 -0.0819
 2500TIP3   OH229134   3.839   3.305   8.836 -0.3136 -0.5367 -0.0097
 2500TIP3    H129135   3.837   3.291   8.931  2.3658 -2.3764 -0.0843
 2500TIP3    H229136   3.764   3.256   8.803 -0.2528 -1.3951  1.0477
 2501TIP3   OH229137   4.692   1.142   1.536 -0.5130  0.0864  0.2513
 2501TIP3    H129138   4.676   1.110   1.447  1.6883 -0.5854  0.0426
 2501TIP3    H229139   4.657   1.231   1.536 -0.7721  0.0084 -1.2114
 2502TIP3   OH229140   0.956   4.460   7.244  0.2228 -0.3278  0.1551
 2502TIP3    H129141   0.922   4.541   7.207  1.8881  0.1854 -0.3368
 2502TIP3    H229142   0.919   4.390   7.189 -0.3815  0.1687 -0.0720
 2503TIP3   OH229143   3.019   1.293   8.006  0.0254  0.5551 -0.2620
 2503TIP3    H129144   2.987   1.257   8.088 -1.2649  0.0721 -0.9533
 2503TIP3    H229145   2.952   1.355   7.978 -0.4026 -0.5165 -1.7745
 2504TIP3   OH229146   5.454   5.536   2.366  0.2882  0.1923 -0.9606
 2504TIP3    H129147   5.517   5.607   2.360  1.2836 -0.6854 -1.1610
 2504TIP3    H229148   5.440   5.524   2.460  0.9147 -0.0379 -0.8959
 2505TIP3   OH229149   4.908   1.535   1.393 -0.1002 -0.0571  0.1819
 2505TIP3    H129150   4.985   1.576   1.354  0.9776  1.1803  3.2547
 2505TIP3    H229151   4.834   1.586   1.361  0.6105  0.3282 -0.8888
 2506TIP3   OH229152   3.333   4.655   7.604  0.0415 -0.0968  0.1215
 2506TIP3    H129153   3.297   4.744   7.607 -1.9993 -0.8879  0.2433
 2506TIP3    H229154   3.350   4.640   7.511 -0.3351  0.1503  0.0105
 2507TIP3   OH229155   4.659   6.073   1.637 -0.6859 -0.2314  0.2540
 2507TIP3    H129156   4.580   6.118   1.609 -1.4214  0.6236  3.3075
 2507TIP3    H229157   4.629   6.009   1.701  1.0462  0.3107  1.7121
 2508TIP3   OH229158   2.404   6.422   7.470 -0.2435 -0.6333  0.3936
 2508TIP3    H129159   2.496   6.395   7.473 -1.2608 -4.7645  0.3368
 2508TIP3    H229160   2.380   6.432   7.562  0.2584  0.6337  0.4032
 2509TIP3   OH229161   1.568   1.294   0.595  0.0690 -0.3494 -0.8786
 2509TIP3    H129162   1.608   1.349   0.527  1.5273 -0.4896 -0.1809
 2509TIP3    H229163   1.638   1.234   0.620 -0.5073 -0.4191  0.6158
 2510TIP3   OH229164   1.216   4.056   0.171 -0.3525 -0.7995 -0.6344
 2510TIP3    H129165   1.289   4.118   0.180  0.4152 -1.9318  1.9954
 2510TIP3    H229166   1.249   3.989   0.111  0.1780 -0.4909 -0.6924
 2511TIP3   OH229167   4.973   6.534   7.947 -0.0819  0.2414 -0.0653
 2511TIP3    H129168   5.019   6.524   8.030 -2.2262  0.4999  1.2436
 2511TIP3    H229169   5.029   6.491   7.883  2.8028  2.1139  1.0368
 2512TIP3   OH229170   6.323   3.906   8.221  0.8436 -0.6078  0.0662
 2512TIP3    H129171   6.405   3.934   8.180 -0.5206 -0.5369 -2.8305
 2512TIP3    H229172   6.254   3.932   8.160 -1.6965  1.6298  3.4715
 2513TIP3   OH229173   2.129   3.060   9.051 -0.2102 -0.1980  0.2073
 2513TIP3    H129174   2.150   3.154   9.047  2.2908 -0.5678  2.3664
 2513TIP3    H229175   2.090   3.048   9.137  0.5274 -1.3052  0.4014
 2514TIP3   OH229176   0.906   3.735   1.610 -0.5856  0.8002 -0.2060
 2514TIP3    H129177   0.932   3.661   1.666  2.1464  2.4184  0.8455
 2514TIP3    H229178   0.842   3.783   1.662 -1.1078  0.1245 -0.2024
 2515TIP3   OH229179   2.212   2.876   6.876  0.0301  0.4102 -0.5400
 2515TIP3    H129180   2.225   2.810   6.807 -1.6570 -0.8569  0.2732
 2515TIP3    H229181   2.224   2.960   6.831  1.1681 -0.4144 -1.8616
 2516TIP3   OH229182   1.955   4.047   1.795 -0.5262 -0.0700 -0.2344
 2516TIP3    H129183   1.958   4.140   1.816  2.5284 -0.0363 -0.4628
 2516TIP3    H229184   2.046   4.018   1.798 -1.3078 -2.9148 -0.8587
 2517TIP3   OH229185   2.530   1.698   6.762 -0.6002  0.1754  0.7187
 2517TIP3    H129186   2.605   1.752   6.736  0.3092  0.4892  3.5799
 2517TIP3    H229187   2.465   1.712   6.694  1.3190  1.2130 -1.0165
 2518TIP3   OH229188   6.029   4.750   1.435 -0.1921  0.3902  0.4918
 2518TIP3    H129189   6.002   4.710   1.518 -1.5286 -1.7540 -0.8677
 2518TIP3    H229190   5.953   4.800   1.407 -0.9762 -1.4137 -0.8400
 2519TIP3   OH229191   3.571   1.353   8.270  0.3065 -0.2855 -0.0754
 2519TIP3    H129192   3.594   1.291   8.201 -0.6335 -1.4872  0.6413
 2519TIP3    H229193   3.506   1.307   8.323 -0.9607  1.5780  0.0983
 2520TIP3   OH229194   2.480   2.466   8.244 -0.2088 -0.0983  0.2119
 2520TIP3    H129195   2.505   2.415   8.167 -0.9856 -0.3717  0.1318
 2520TIP3    H229196   2.556   2.521   8.263  0.1338 -0.3203 -0.5088
 2521TIP3   OH229197   0.933   6.246   6.681 -0.1584 -0.1981 -0.0961
 2521TIP3    H129198   0.961   6.156   6.698 -0.8548 -0.3928  0.0407
 2521TIP3    H229199   0.974   6.298   6.751  0.8792 -0.2822 -0.6241
 2522TIP3   OH229200   5.531   5.027   7.899 -0.1924 -1.1737  0.4525
 2522TIP3    H129201   5.445   5.069   7.898  2.2912  5.0625  0.6395
 2522TIP3    H229202   5.560   5.032   7.990  1.4371 -0.2008 -0.0736
 2523TIP3   OH229203   1.097   6.160   7.976  0.0947  0.1346 -0.3567
 2523TIP3    H129204   1.165   6.112   8.023 -0.0272  0.7754  0.5055
 2523TIP3    H229205   1.035   6.093   7.947 -0.9826 -0.1422  2.3057
 2524TIP3   OH229206   3.104   0.233   0.700  0.1330  0.1296 -0.0583
 2524TIP3    H129207   3.075   0.181   0.775  0.0511 -2.0712 -1.5239
 2524TIP3    H229208   3.109   0.322   0.733 -1.6230 -0.4773  2.0815
 2525TIP3   OH229209   4.284   6.593   8.598 -0.5340 -0.4607  0.4289
 2525TIP3    H129210   4.331   6.595   8.681  1.1145  0.4051 -0.4642
 2525TIP3    H229211   4.214   6.658   8.608 -0.0682 -0.0392  0.9916
 2526TIP3   OH229212   5.190   2.070   8.234 -0.1813  0.6542 -0.3374
 2526TIP3    H129213   5.203   1.976   8.237  1.2516  0.8581  0.3842
 2526TIP3    H229214   5.117   2.082   8.173  0.3826 -0.8439 -1.3687
 2527TIP3   OH229215   2.480   1.982   8.457  0.3659 -0.5180  0.2148
 2527TIP3    H129216   2.571   1.956   8.473  0.6258  0.5333  0.4708
 2527TIP3    H229217   2.483   2.077   8.449 -0.7006 -0.4857  0.1286
 2528TIP3   OH229218   5.513   1.958   7.987  0.2449  0.0831 -0.3371
 2528TIP3    H129219   5.422   1.944   8.011 -0.2784 -0.2929 -2.3230
 2528TIP3    H229220   5.555   1.990   8.067 -1.6951  0.5996  0.5254
 2529TIP3   OH229221   2.986   1.945   0.819 -0.5825  0.1405  0.1631
 2529TIP3    H129222   2.991   1.885   0.893 -1.8831  0.4078  0.4978
 2529TIP3    H229223   2.900   1.930   0.781 -0.9384  1.7658  0.2482
 2530TIP3   OH229224   4.853   3.087   8.181  0.1545  0.0785  0.1870
 2530TIP3    H129225   4.918   3.018   8.195  1.0490  1.1119  1.2930
 2530TIP3    H229226   4.806   3.093   8.264 -0.2501  0.4835 -0.0672
 2531TIP3   OH229227   2.871   4.406   2.002  0.0948 -0.0703  0.6315
 2531TIP3    H129228   2.816   4.422   2.078 -1.3822  0.9775 -0.6047
 2531TIP3    H229229   2.960   4.421   2.033 -0.6161  2.7788  1.5970
 2532TIP3   OH229230   6.169   3.922   0.125  0.5445 -0.1816  0.3109
 2532TIP3    H129231   6.150   3.835   0.090 -2.0852  0.9908 -1.4838
 2532TIP3    H229232   6.249   3.949   0.079  0.1646 -0.8290 -0.7677
 2533TIP3   OH229233   2.102   4.989   0.747 -0.2685  0.5596  0.4720
 2533TIP3    H129234   2.148   5.037   0.677 -0.6382 -0.6065 -0.6141
 2533TIP3    H229235   2.172   4.954   0.802  0.1073  0.1803 -0.2277
 2534TIP3   OH229236   5.047   3.814   0.583 -0.1905 -0.0102  0.3002
 2534TIP3    H129237   5.130   3.850   0.616 -0.0384  0.9370 -1.0162
 2534TIP3    H229238   4.980   3.869   0.623 -0.0766  0.2656  0.1226
 2535TIP3   OH229239   2.468   5.301   2.269 -0.3123 -0.1945  0.5696
 2535TIP3    H129240   2.405   5.229   2.272 -1.0538  0.4797  1.4947
 2535TIP3    H229241   2.550   5.262   2.299 -0.3268 -1.0070 -0.3855
 2536TIP3   OH229242   4.791   5.864   8.105  0.4775 -0.6093 -0.4750
 2536TIP3    H129243   4.717   5.868   8.164  1.8773  1.9860  1.2804
 2536TIP3    H229244   4.753   5.841   8.020 -2.4862  1.5847  0.1259
 2537TIP3   OH229245   4.025   1.366   0.484 -0.3221  0.2736  0.0512
 2537TIP3    H129246   4.053   1.430   0.419  0.3920 -0.5960 -0.5377
 2537TIP3    H229247   3.988   1.294   0.432  0.1922 -0.4040  0.5984
 2538TIP3   OH229248   4.045   3.142   6.954  0.3515 -0.2430 -0.2808
 2538TIP3    H129249   4.022   3.133   7.047  1.4641 -1.5826 -0.1051
 2538TIP3    H229250   3.961   3.141   6.909 -0.1760 -0.2672  0.6632
 2539TIP3   OH229251   3.142   3.714   7.804 -0.4399 -0.3585  0.1587
 2539TIP3    H129252   3.116   3.754   7.721 -0.8885 -0.4167  0.2686
 2539TIP3    H229253   3.209   3.650   7.780 -0.5384 -0.3454 -0.1552
 2540TIP3   OH229254   4.404   4.662   8.104 -0.1128 -0.3703  0.2503
 2540TIP3    H129255   4.457   4.730   8.144 -1.5133  0.9755 -0.1014
 2540TIP3    H229256   4.418   4.585   8.159  1.2180  0.2900  0.8678
 2541TIP3   OH229257   1.871   2.556   8.796 -0.1816 -0.8525 -0.0656
 2541TIP3    H129258   1.901   2.473   8.832 -0.4855 -0.4963  1.0529
 2541TIP3    H229259   1.788   2.573   8.839 -2.0451 -1.7700 -3.0216
 2542TIP3   OH229260   5.358   0.870   1.219  0.5403  0.6504 -0.2824
 2542TIP3    H129261   5.279   0.837   1.261 -1.0154  2.3191 -1.7527
 2542TIP3    H229262   5.370   0.814   1.142 -0.0059  1.2271 -0.7942
 2543TIP3   OH229263   2.716   5.064   6.579 -0.3341  0.3042  0.3283
 2543TIP3    H129264   2.711   5.160   6.572 -0.1165  0.2287 -1.0221
 2543TIP3    H229265   2.649   5.042   6.644 -1.4952  1.2590 -0.4927
 2544TIP3   OH229266   4.208   3.991   8.384 -0.5420  0.3333  0.4612
 2544TIP3    H129267   4.283   4.041   8.417  0.3881  0.9475 -2.3365
 2544TIP3    H229268   4.226   3.901   8.411  1.1730  0.4906 -0.0157
 2545TIP3   OH229269   4.780   4.770   0.427 -0.5021 -0.1574  0.0013
 2545TIP3    H129270   4.728   4.709   0.375  0.1778 -0.6243 -0.1408
 2545TIP3    H229271   4.752   4.755   0.517 -1.0980  0.0771 -0.1420
 2546TIP3   OH229272   6.215   6.355   7.899 -0.1399 -0.1151 -0.2777
 2546TIP3    H129273   6.191   6.436   7.854  1.7987  1.0623  0.6700
 2546TIP3    H229274   6.297   6.376   7.945 -0.9125 -1.8505  2.0986
 2547TIP3   OH229275   5.133   4.940   8.246 -0.7915  0.1820 -0.2210
 2547TIP3    H129276   5.149   4.866   8.304  0.6643  0.5372 -0.1231
 2547TIP3    H229277   5.197   4.930   8.176 -0.2105  1.6114  0.0717
 2548TIP3   OH229278   5.300   3.541   1.081  0.1064  0.0452  0.1742
 2548TIP3    H129279   5.255   3.616   1.041 -0.0727 -0.2938 -0.2691
 2548TIP3    H229280   5.299   3.474   1.013  1.2200  0.0067  0.1884
 2549TIP3   OH229281   1.004   3.529   1.350  0.3629  0.3466  0.6000
 2549TIP3    H129282   0.922   3.578   1.360 -0.1642 -0.3927  0.0010
 2549TIP3    H229283   1.043   3.531   1.437 -0.2350  0.8091  0.8703
 2550TIP3   OH229284   0.925   0.153   8.951  0.7040  0.0278  0.4743
 2550TIP3    H129285   0.864   0.224   8.935 -1.3351 -1.5239  0.9754
 2550TIP3    H229286   0.980   0.184   9.023  0.1850  1.2488  0.3673
 2551TIP3   OH229287   0.127   1.025   0.295  0.4440 -0.1827 -0.3505
 2551TIP3    H129288   0.052   1.008   0.237  0.7611 -0.1895 -0.7645
 2551TIP3    H229289   0.111   1.113   0.329 -0.0623 -0.4237  0.0409
 2552TIP3   OH229290   0.977   0.134   0.886  0.4076 -0.0083  0.3599
 2552TIP3    H129291   1.002   0.090   0.804  0.7864  1.0049 -0.0867
 2552TIP3    H229292   1.026   0.216   0.884 -0.3148  0.4474  1.1630
 2553TIP3   OH229293   2.120   3.689   7.284 -0.5024 -0.1890  0.4616
 2553TIP3    H129294   2.174   3.763   7.255 -0.5614 -0.1272  0.5073
 2553TIP3    H229295   2.040   3.697   7.232  0.0003 -0.9741 -0.4761
 2554TIP3   OH229296   0.626   5.206   0.945 -1.3739  0.0406 -0.2430
 2554TIP3    H129297   0.573   5.127   0.956 -2.1548  0.5010 -0.6472
 2554TIP3    H229298   0.591   5.268   1.010 -0.9498  0.1553 -0.1174
 2555TIP3   OH229299   3.272   5.215   7.055  0.5201 -0.2941 -0.0629
 2555TIP3    H129300   3.254   5.283   6.991 -1.2532 -1.1229 -0.5031
 2555TIP3    H229301   3.363   5.230   7.081  0.4194  1.7186 -0.7261
 2556TIP3   OH229302   3.817   5.188   1.798  0.2012  0.0152  0.0011
 2556TIP3    H129303   3.888   5.187   1.863  0.3731  1.0668 -0.1502
 2556TIP3    H229304   3.777   5.275   1.808  1.1234  0.7612 -2.2341
 2557TIP3   OH229305   2.109   6.063   8.817  0.3164 -0.0364 -0.2570
 2557TIP3    H129306   2.112   6.138   8.758 -1.3741  1.8478  1.8736
 2557TIP3    H229307   2.107   5.987   8.758  0.5140  1.6124 -2.5421
 2558TIP3   OH229308   1.460   5.905   1.405  0.7828  0.8151  0.3203
 2558TIP3    H129309   1.371   5.929   1.431  0.6230  0.0489  0.4901
 2558TIP3    H229310   1.491   5.980   1.354  0.1189  1.1770  0.4434
 2559TIP3   OH229311   5.032   4.463   8.006  0.9841  0.7314 -0.1095
 2559TIP3    H129312   4.973   4.397   7.969 -0.1731  2.8551 -2.3179
 2559TIP3    H229313   5.073   4.419   8.081 -1.5778 -1.6412  0.0622
 2560TIP3   OH229314   2.640   1.931   8.044  0.0541 -0.4480  0.3954
 2560TIP3    H129315   2.604   1.991   8.108 -0.2604  0.8637 -0.9441
 2560TIP3    H229316   2.659   1.851   8.093 -1.8526 -0.1315  1.7323
 2561TIP3   OH229317   0.538   0.548   7.852  0.5750 -0.1450 -0.0919
 2561TIP3    H129318   0.617   0.495   7.861  0.8084  0.3067  0.5778
 2561TIP3    H229319   0.466   0.485   7.856  0.9075 -0.7750 -2.3213
 2562TIP3   OH229320   1.098   2.477   1.611  0.0354 -0.1887  0.5446
 2562TIP3    H129321   1.073   2.554   1.559  0.6944 -0.2911  0.0618
 2562TIP3    H229322   1.194   2.477   1.608  0.0985 -0.0244  2.0189
 2563TIP3   OH229323   5.464   5.441   9.112  0.6834  0.0903  0.2723
 2563TIP3    H129324   5.464   5.346   9.100  0.6082  0.2273 -0.9204
 2563TIP3    H229325   5.508   5.455   9.195  2.2876 -0.8986 -0.3660
 2564TIP3   OH229326   2.100   4.380   7.318 -0.0967  0.5895 -0.4448
 2564TIP3    H129327   2.077   4.359   7.408  0.1345 -0.3392 -0.5925
 2564TIP3    H229328   2.109   4.295   7.275 -1.5588  1.0149 -1.6871
 2565TIP3   OH229329   2.525   1.816   7.022 -0.0753  0.5390  0.1195
 2565TIP3    H129330   2.436   1.841   7.048 -0.2575 -0.0415  0.0783
 2565TIP3    H229331   2.514   1.779   6.935  0.2190  0.5176  0.0917
 2566TIP3   OH229332   5.706   2.484   1.598 -0.0062 -0.2083  0.1341
 2566TIP3    H129333   5.719   2.507   1.507 -1.2405 -1.3665 -0.3683
 2566TIP3    H229334   5.612   2.492   1.612  0.0350 -1.0552  1.0058
 2567TIP3   OH229335   4.277   6.517   7.371 -0.0983 -0.1516 -0.0566
 2567TIP3    H129336   4.233   6.439   7.407  0.4728  0.4158  2.0174
 2567TIP3    H229337   4.363   6.485   7.345 -0.0264 -0.3110  0.3672
 2568TIP3   OH229338   0.557   3.223   8.427 -0.3437 -0.6045  0.3409
 2568TIP3    H129339   0.549   3.315   8.402  0.7536 -0.3276  0.9574
 2568TIP3    H229340   0.503   3.176   8.364 -0.9126  0.4577  0.0134
 2569TIP3   OH229341   2.334   6.033   0.843 -0.6963 -0.4660 -0.4326
 2569TIP3    H129342   2.349   5.944   0.812  0.0945  0.1362 -1.9375
 2569TIP3    H229343   2.282   6.074   0.774 -0.9149  0.2791  0.1629
 2570TIP3   OH229344   1.917   6.580   0.782  0.1103  0.2367 -0.3439
 2570TIP3    H129345   1.912   6.675   0.769  0.1810  0.1743 -0.8491
 2570TIP3    H229346   1.867   6.564   0.862 -0.8738  0.5741 -0.8667
 2571TIP3   OH229347   2.515   4.823   0.658 -0.3809  0.2463 -0.3493
 2571TIP3    H129348   2.592   4.779   0.621  0.9579  0.9452  1.4022
 2571TIP3    H229349   2.541   4.916   0.662 -0.5175  0.2446  1.9749
 2572TIP3   OH229350   1.152   5.355   9.125 -0.0979 -0.2118 -0.1698
 2572TIP3    H129351   1.227   5.308   9.162 -0.5869 -0.0986  1.0421
 2572TIP3    H229352   1.076   5.301   9.149 -0.5313  0.4286 -0.0519
 2573TIP3   OH229353   3.914   5.507   8.027  0.1418 -0.1076 -0.3246
 2573TIP3    H129354   3.820   5.514   8.007 -0.4214  1.4190  2.4706
 2573TIP3    H229355   3.917   5.478   8.118  2.4258 -0.0596 -0.3345
 2574TIP3   OH229356   6.010   5.363   0.265  0.1490  0.5848 -0.2484
 2574TIP3    H129357   5.945   5.343   0.332  0.5335  0.7090  0.1643
 2574TIP3    H229358   6.007   5.458   0.257 -2.2307  0.4428 -2.7577
 2575TIP3   OH229359   2.996   2.664   8.251 -0.2256 -0.1558 -0.1465
 2575TIP3    H129360   3.031   2.671   8.162  1.9806 -0.2314  0.6758
 2575TIP3    H229361   3.022   2.746   8.293 -0.3372 -0.5726  0.7439
 2576TIP3   OH229362   3.037   2.952   8.343  0.2935  0.0998  0.2969
 2576TIP3    H129363   2.965   2.968   8.282  1.0450  0.6173 -0.4854
 2576TIP3    H229364   3.008   2.991   8.425 -0.5033 -0.1029  0.1172
 2577TIP3   OH229365   5.519   4.680   7.168 -0.4139  0.2218  0.1776
 2577TIP3    H129366   5.570   4.761   7.177  1.5134 -0.4935 -2.9344
 2577TIP3    H229367   5.551   4.623   7.237  1.9261  0.3835 -0.6964
 2578TIP3   OH229368   6.297   1.718   0.792 -0.0923  0.2650 -0.7116
 2578TIP3    H129369   6.263   1.636   0.829 -0.3467  1.0364  0.8497
 2578TIP3    H229370   6.335   1.764   0.867  1.0026  1.1187 -1.7540
 2579TIP3   OH229371   3.315   5.845   2.208 -0.2542 -0.1881  0.1830
 2579TIP3    H129372   3.230   5.806   2.190 -0.5631  0.1787  0.8212
 2579TIP3    H229373   3.358   5.783   2.267  0.1648 -0.6608 -0.5988
 2580TIP3   OH229374   5.944   2.813   7.204 -0.5809 -0.1601 -0.4899
 2580TIP3    H129375   5.965   2.907   7.211 -1.5906  0.0456 -0.0141
 2580TIP3    H229376   6.008   2.771   7.261 -1.8503  0.5338  1.5875
 2581TIP3   OH229377   4.357   1.271   7.688 -0.0262 -0.1811 -0.1280
 2581TIP3    H129378   4.370   1.274   7.783  0.7597 -1.7227 -0.1546
 2581TIP3    H229379   4.353   1.363   7.661 -0.9246  0.2851  1.4672
 2582TIP3   OH229380   0.018   2.554   8.820  0.5839 -0.1143  0.1399
 2582TIP3    H129381   0.085   2.613   8.854  0.5156  0.8668 -1.3509
 2582TIP3    H229382  -0.063   2.585   8.859  0.5432  0.8459 -0.6577
 2583TIP3   OH229383   0.347   2.629   1.078  0.3867  0.4693 -0.1937
 2583TIP3    H129384   0.282   2.694   1.105  0.1351  0.0928  0.1095
 2583TIP3    H229385   0.342   2.628   0.983  1.7846  2.3407 -0.3497
 2584TIP3   OH229386   1.281   0.479   7.267 -0.2414  0.2376  0.3078
 2584TIP3    H129387   1.365   0.501   7.228 -0.5456  1.8268  0.4968
 2584TIP3    H229388   1.300   0.406   7.325  1.2707  1.3536  1.2875
 2585TIP3   OH229389   3.461   3.512   1.039 -0.4892  0.1493 -0.4866
 2585TIP3    H129390   3.370   3.502   1.010 -1.2545  0.4708  1.6464
 2585TIP3    H229391   3.504   3.433   1.008 -1.6215 -0.2656 -1.0778
 2586TIP3   OH229392   3.305   3.545   6.774 -0.8313  0.4125  0.2505
 2586TIP3    H129393   3.333   3.538   6.865 -3.3332  0.7833  1.1347
 2586TIP3    H229394   3.210   3.558   6.779 -1.1724 -0.3694 -2.4490
 2587TIP3   OH229395   5.788   5.662   8.420 -0.1254  0.4050  0.3097
 2587TIP3    H129396   5.827   5.746   8.394  2.0640 -0.5694  0.2584
 2587TIP3    H229397   5.746   5.630   8.340  1.3527  0.2403 -0.4376
 2588TIP3   OH229398   4.622   0.794   8.829 -0.5120 -0.3966  0.1087
 2588TIP3    H129399   4.685   0.724   8.813  1.3250  0.8389  1.5499
 2588TIP3    H229400   4.626   0.848   8.749 -1.2636 -1.3835 -0.6250
 2589TIP3   OH229401   5.733   0.447   7.336 -0.0611  0.3881  0.0074
 2589TIP3    H129402   5.814   0.396   7.330 -0.7957 -0.6733 -1.7052
 2589TIP3    H229403   5.745   0.503   7.413  3.1749  1.8139 -1.3428
 2590TIP3   OH229404   5.077   1.037   1.015 -0.3797  0.1914 -0.0135
 2590TIP3    H129405   5.161   1.078   0.995 -0.2177  1.3174  2.6055
 2590TIP3    H229406   5.083   1.013   1.107 -1.6127 -3.1325 -0.6734
 2591TIP3   OH229407   1.427   3.787   1.687  0.8367 -0.4384  0.3955
 2591TIP3    H129408   1.337   3.810   1.667  0.0833 -1.7947  2.0093
 2591TIP3    H229409   1.475   3.870   1.681 -0.6234  0.4213  0.1631
 2592TIP3   OH229410   2.898   4.251   8.951 -0.3283  0.4186  0.0891
 2592TIP3    H129411   2.959   4.324   8.954 -0.5788  0.7332 -1.6547
 2592TIP3    H229412   2.944   4.183   8.902 -1.7539  1.0858 -2.3185
 2593TIP3   OH229413   0.768   6.441   1.445 -0.0583  0.2735  0.4420
 2593TIP3    H129414   0.698   6.399   1.395  0.2905 -0.3140  0.4292
 2593TIP3    H229415   0.788   6.521   1.397 -0.7383  0.4568  0.4616
 2594TIP3   OH229416   2.097   1.338   0.403  0.5802 -0.5533 -0.8704
 2594TIP3    H129417   2.173   1.362   0.455 -0.6617  0.9298  0.3668
 2594TIP3    H229418   2.034   1.303   0.466 -1.8264  3.2944 -0.7924
 2595TIP3   OH229419   1.733   2.815   7.434 -0.2497 -0.4826 -0.7847
 2595TIP3    H129420   1.741   2.903   7.398  0.4119 -0.0685  0.3337
 2595TIP3    H229421   1.823   2.787   7.451 -0.4820 -1.1544 -0.6083
 2596TIP3   OH229422   0.281   3.516   7.945  0.1640  0.1791  0.1739
 2596TIP3    H129423   0.186   3.519   7.957  0.4388  0.4759  3.0185
 2596TIP3    H229424   0.313   3.475   8.025  2.4713  0.3555 -0.6064
 2597TIP3   OH229425   0.656   1.686   7.220  0.7178 -0.4203 -0.5262
 2597TIP3    H129426   0.679   1.748   7.289 -0.7042 -0.5627  0.1083
 2597TIP3    H229427   0.630   1.740   7.146  1.1453 -0.2702 -0.5705
 2598TIP3   OH229428   2.962   3.688   0.715 -0.2368 -0.2292 -0.4736
 2598TIP3    H129429   3.043   3.721   0.675  0.6431  0.1455  1.5035
 2598TIP3    H229430   2.912   3.767   0.736 -1.0967 -0.4567 -1.5691
 2599TIP3   OH229431   6.454   1.122   0.155  0.5640  0.2816  0.3615
 2599TIP3    H129432   6.401   1.081   0.086  2.3443 -0.5731 -0.5649
 2599TIP3    H229433   6.391   1.141   0.225 -0.8894 -1.0682 -0.4964
 2600TIP3   OH229434   5.139   0.082   1.077  0.2189  0.1317 -0.0298
 2600TIP3    H129435   5.211   0.131   1.038 -0.0001  0.3090 -0.2124
 2600TIP3    H229436   5.174  -0.006   1.090  0.1612 -0.0604 -1.0473
 2601TIP3   OH229437   4.171   3.991   1.692 -0.0359  0.1969 -0.5130
 2601TIP3    H129438   4.155   4.056   1.759  2.5247  2.5208 -1.9342
 2601TIP3    H229439   4.087   3.981   1.647 -1.2586  0.1142  1.6819
 2602TIP3   OH229440   2.082   0.804   9.052 -0.4181 -0.1354  0.0825
 2602TIP3    H129441   1.994   0.812   9.014  0.3194  2.2877 -1.3411
 2602TIP3    H229442   2.109   0.894   9.069  1.0091 -0.9199  2.5027
 2603TIP3   OH229443   3.826   5.769   7.786  0.1827 -0.3253 -0.6000
 2603TIP3    H129444   3.750   5.729   7.829 -0.3220  1.9919  0.8433
 2603TIP3    H229445   3.861   5.830   7.851  2.4953 -0.3316 -1.7285
 2604TIP3   OH229446   1.753   3.575   8.511  0.3607 -0.0360  0.4399
 2604TIP3    H129447   1.714   3.661   8.527  1.5914  0.3171  1.7040
 2604TIP3    H229448   1.830   3.594   8.458  0.1165 -0.4883 -0.0943
 2605TIP3   OH229449   1.213   0.234   7.849 -0.2533 -0.0937 -0.7716
 2605TIP3    H129450   1.159   0.286   7.790  1.1327 -0.0112 -2.0209
 2605TIP3    H229451   1.274   0.188   7.792  1.2360  0.0780  0.6072
 2606TIP3   OH229452   0.519   3.984   8.821  0.1205  0.3788 -0.0891
 2606TIP3    H129453   0.471   3.983   8.904  0.6250 -1.9881  0.2467
 2606TIP3    H229454   0.463   3.935   8.760  0.4403  0.8119 -0.7542
 2607TIP3   OH229455   1.154   4.709   1.140 -0.6240 -0.7855 -0.1700
 2607TIP3    H129456   1.166   4.763   1.218 -1.6825 -2.7807  1.4613
 2607TIP3    H229457   1.062   4.718   1.118 -0.7933 -1.8207  0.0641
 2608TIP3   OH229458   0.270   1.758   8.313  0.1537  0.0372  0.5504
 2608TIP3    H129459   0.238   1.672   8.286 -0.8394  0.5393  0.0522
 2608TIP3    H229460   0.351   1.740   8.361 -0.1065 -1.1738  0.5643
 2609TIP3   OH229461   5.133   2.899   8.643  0.3391 -0.0940  0.6953
 2609TIP3    H129462   5.180   2.949   8.577 -0.1114 -0.6134 -0.0355
 2609TIP3    H229463   5.051   2.946   8.656 -0.2699 -0.8317 -0.3002
 2610TIP3   OH229464   5.700   4.548   2.295 -0.0745  0.6463  0.0632
 2610TIP3    H129465   5.615   4.518   2.263  0.5482  0.3653 -1.4283
 2610TIP3    H229466   5.754   4.469   2.295  0.1412  0.7795  1.2222
 2611TIP3   OH229467   3.423   0.058   7.437 -0.4728 -0.2477  0.8816
 2611TIP3    H129468   3.387   0.103   7.360  0.2572 -0.8088  0.1909
 2611TIP3    H229469   3.346   0.022   7.482 -0.9170  0.1565  0.4612
 2612TIP3   OH229470   2.535   2.080   1.255  0.5959 -0.8472  0.5674
 2612TIP3    H129471   2.609   2.116   1.304 -1.7340  2.6095  1.8924
 2612TIP3    H229472   2.476   2.046   1.322 -0.8734  0.3375 -0.0644
 2613TIP3   OH229473   6.643   4.139   7.856 -0.1879  0.5216  0.3692
 2613TIP3    H129474   6.730   4.178   7.867 -0.0293  0.1870  0.3354
 2613TIP3    H229475   6.627   4.094   7.939 -0.9414  1.7578  0.9154
 2614TIP3   OH229476   6.266   2.084   0.985  0.3928  0.1850 -0.0017
 2614TIP3    H129477   6.309   2.001   0.961  2.2726  0.8108  0.9729
 2614TIP3    H229478   6.196   2.058   1.044 -0.8871 -0.9077 -1.8699
 2615TIP3   OH229479   4.777   6.150   9.057 -0.0157  0.2113 -0.4708
 2615TIP3    H129480   4.776   6.127   9.150  0.9920 -0.2412 -0.5518
 2615TIP3    H229481   4.725   6.230   9.050 -0.9696 -0.3283  0.3194
 2616TIP3   OH229482   3.679   0.210   0.196  0.0954  0.5871  0.4352
 2616TIP3    H129483   3.734   0.239   0.268  1.1182 -0.0259 -0.0777
 2616TIP3    H229484   3.591   0.204   0.234  0.9361 -1.8622  2.3149
 2617TIP3   OH229485   3.300   5.831   0.593  0.1988  0.5404 -0.0197
 2617TIP3    H129486   3.248   5.845   0.514  3.0420 -0.7204 -2.2859
 2617TIP3    H229487   3.332   5.918   0.616  0.3031  0.7657 -0.9805
 2618TIP3   OH229488   3.162   3.850   6.118  0.8685  0.4512  0.1027
 2618TIP3    H129489   3.171   3.904   6.039  1.0728 -1.8566 -1.5707
 2618TIP3    H229490   3.125   3.909   6.183 -2.1915  1.8309 -2.5724
 2619TIP3   OH229491   3.756   3.923   8.527  0.1178  0.0110 -0.5055
 2619TIP3    H129492   3.768   3.852   8.591  0.6702  0.6463  0.1127
 2619TIP3    H229493   3.834   3.977   8.536 -1.2077  1.8988  0.5737
 2620TIP3   OH229494   3.805   3.996   9.107  0.1025 -0.5845 -0.4231
 2620TIP3    H129495   3.780   4.002   9.015  1.8929  0.5144 -0.8739
 2620TIP3    H229496   3.826   4.086   9.132 -1.1413 -0.7242  1.3308
 2621TIP3   OH229497   4.438   2.316   0.971  0.1420 -0.0682  0.4705
 2621TIP3    H129498   4.468   2.269   0.894 -2.0831  0.9784 -1.1204
 2621TIP3    H229499   4.447   2.409   0.949 -0.6686  0.2568  1.3846
 2622TIP3   OH229500   4.980   6.574   8.795 -0.2670  0.3321 -0.0591
 2622TIP3    H129501   4.983   6.484   8.828  2.6030 -0.0029 -0.9701
 2622TIP3    H229502   4.957   6.626   8.872  0.4466 -0.9616  1.0773
 2623TIP3   OH229503   5.592   1.977   1.214  0.1379  0.4656  0.4528
 2623TIP3    H129504   5.500   2.003   1.213 -0.2235 -0.1352  4.0620
 2623TIP3    H229505   5.610   1.959   1.307  2.9700 -2.6954 -0.5368
 2624TIP3   OH229506   0.011   3.549   1.092 -1.1368 -0.1226 -0.2677
 2624TIP3    H129507  -0.018   3.568   1.181  1.6746 -1.3977  1.0674
 2624TIP3    H229508   0.104   3.573   1.092 -1.0051 -0.3620 -2.8164
 2625TIP3   OH229509   1.406   4.393   0.033 -0.5327 -0.3580  0.4097
 2625TIP3    H129510   1.467   4.453   0.076 -0.8347 -1.3170  2.2802
 2625TIP3    H229511   1.456   4.355  -0.040  0.6136 -0.0250  1.0090
 2626TIP3   OH229512   1.819   5.658   2.151 -0.9532  0.1501  0.0989
 2626TIP3    H129513   1.725   5.640   2.154 -0.9651 -0.0153 -0.8915
 2626TIP3    H229514   1.833   5.696   2.064 -0.2743  1.1989  0.6588
 2627TIP3   OH229515   5.148   2.279   1.331 -0.2901 -0.0478 -0.6112
 2627TIP3    H129516   5.081   2.261   1.398 -1.5810  0.4110 -1.7238
 2627TIP3    H229517   5.192   2.358   1.363 -1.7490  0.9177 -0.8734
 2628TIP3   OH229518   2.526   5.419   8.600  0.0024 -0.4497 -0.5005
 2628TIP3    H129519   2.535   5.474   8.523  1.4885  0.3044  0.1740
 2628TIP3    H229520   2.549   5.477   8.673 -2.0143 -0.9448  0.6013
 2629TIP3   OH229521   4.311   5.854   0.035 -0.0702 -0.3907  0.0158
 2629TIP3    H129522   4.299   5.759   0.045 -2.0213 -0.3581 -1.3556
 2629TIP3    H229523   4.405   5.865   0.022  0.1752 -2.1592  0.0497
 2630TIP3   OH229524   4.716   0.251   7.438  0.6732  0.2650  0.0347
 2630TIP3    H129525   4.670   0.317   7.387  0.0957 -0.5895 -0.5805
 2630TIP3    H229526   4.806   0.284   7.445  0.4920  0.9108 -0.6090
 2631TIP3   OH229527   3.744   6.286   0.918  0.2677  0.7555 -0.2119
 2631TIP3    H129528   3.771   6.241   0.998  1.8191  1.7765 -0.1214
 2631TIP3    H229529   3.767   6.225   0.847 -0.2461  0.2447  0.0544
 2632TIP3   OH229530   5.417   2.908   8.483  0.3540 -0.3908 -0.7756
 2632TIP3    H129531   5.428   2.852   8.406 -1.4111 -0.4728 -1.0204
 2632TIP3    H229532   5.341   2.963   8.461 -0.0753 -0.2876  0.8264
 2633TIP3   OH229533   0.871   0.197   1.274  0.2070 -0.7643 -0.1200
 2633TIP3    H129534   0.894   0.263   1.340  0.6313  0.0286 -1.0258
 2633TIP3    H229535   0.788   0.161   1.304 -1.5455  2.1773 -0.9560
 2634TIP3   OH229536   4.949   0.340   9.124 -0.2765  0.2392  0.1919
 2634TIP3    H129537   4.918   0.269   9.179 -1.8103  0.2043 -0.6527
 2634TIP3    H229538   4.945   0.418   9.180 -1.3938  0.1323  0.2817
 2635TIP3   OH229539   5.933   5.656   0.290  0.1403 -0.3128 -0.0332
 2635TIP3    H129540   5.983   5.709   0.353  2.4062 -0.1003 -1.8749
 2635TIP3    H229541   5.842   5.665   0.318  0.6426  2.8720  0.9567
 2636TIP3   OH229542   6.391   3.354   1.243 -0.0734 -0.4309  0.0361
 2636TIP3    H129543   6.326   3.420   1.218  1.7392  0.7364 -2.0977
 2636TIP3    H229544   6.460   3.405   1.286  1.1937 -0.9372 -1.3174
 2637TIP3   OH229545   2.184   1.458   6.932  0.1822 -0.1258 -0.1331
 2637TIP3    H129546   2.231   1.441   6.850  1.2693  1.6436  0.0695
 2637TIP3    H229547   2.121   1.526   6.910  0.7338  0.6308  0.5546
 2638TIP3   OH229548   5.602   6.121   1.036  0.2026  0.1528  0.5315
 2638TIP3    H129549   5.597   6.213   1.062 -1.7312  0.0767  0.5819
 2638TIP3    H229550   5.652   6.079   1.106  1.7027  1.2520  0.1638
 2639TIP3   OH229551   0.135   1.646   7.907  0.3289 -0.2831  0.3905
 2639TIP3    H129552   0.059   1.680   7.858  0.1059 -0.0894  0.8623
 2639TIP3    H229553   0.178   1.725   7.940  1.0663 -0.3604 -0.3448
 2640TIP3   OH229554   6.477   5.580   0.207 -0.2150  0.7749 -0.2346
 2640TIP3    H129555   6.442   5.526   0.278  1.2654  2.8752  2.3046
 2640TIP3    H229556   6.420   5.656   0.204  1.0099  1.7649  0.3576
 2641TIP3   OH229557   0.178   0.305   1.483  0.0279 -0.4621  0.5299
 2641TIP3    H129558   0.196   0.389   1.441  2.8574 -1.8201 -1.2384
 2641TIP3    H229559   0.181   0.324   1.577  0.2015  1.4698  0.1652
 2642TIP3   OH229560   2.686   3.310   8.772  0.1888 -0.1104 -0.3295
 2642TIP3    H129561   2.676   3.221   8.807  2.3014 -0.0876  0.4824
 2642TIP3    H229562   2.726   3.298   8.686  3.6807  0.0506  1.1277
 2643TIP3   OH229563   3.990   5.213   1.451 -0.0752 -0.2860 -0.2746
 2643TIP3    H129564   3.965   5.152   1.520 -1.8096 -0.4147 -0.9604
 2643TIP3    H229565   4.042   5.280   1.495 -1.6991  0.0014  1.3054
 2644TIP3   OH229566   5.821   3.749   0.970 -0.3225  0.6372  1.1091
 2644TIP3    H129567   5.894   3.805   0.995  0.3218  0.1633  0.3297
 2644TIP3    H229568   5.826   3.742   0.875  0.5457 -1.9119  1.2548
 2645TIP3   OH229569   5.306   1.030   0.404 -0.3760  0.3103 -0.4728
 2645TIP3    H129570   5.386   0.987   0.374 -0.3298  0.2039 -0.1969
 2645TIP3    H229571   5.335   1.118   0.429 -0.5113  0.5850 -1.2575
 2646TIP3   OH229572   1.581   0.619   8.396 -0.0729  0.0970 -0.1126
 2646TIP3    H129573   1.505   0.676   8.397  0.2174  0.5206 -1.1336
 2646TIP3    H229574   1.557   0.547   8.337  0.0968 -0.0825  0.0326
 2647TIP3   OH229575   5.080   0.857   1.910  0.0243 -0.2236  0.1004
 2647TIP3    H129576   5.026   0.935   1.907 -0.0492 -0.2743  0.0869
 2647TIP3    H229577   5.024   0.787   1.877  0.2576 -0.1848 -0.3897
 2648TIP3   OH229578   1.069   1.859   1.838  0.3021  0.1870  0.4149
 2648TIP3    H129579   1.122   1.800   1.891 -0.4954  1.0246  2.2529
 2648TIP3    H229580   1.065   1.940   1.890 -1.2509  0.7560 -0.5323
 2649TIP3   OH229581   2.307   2.807   7.161 -0.1435  0.8716  0.0251
 2649TIP3    H129582   2.263   2.877   7.209  0.6275  1.6396 -0.3596
 2649TIP3    H229583   2.299   2.832   7.069 -0.9314 -0.1894 -0.2173
 2650TIP3   OH229584   0.781   3.279   1.589 -0.1982 -0.4662  0.1446
 2650TIP3    H129585   0.770   3.311   1.499  1.7667  0.1687  0.0632
 2650TIP3    H229586   0.695   3.246   1.614 -1.1495  0.6292 -1.4640
 2651TIP3   OH229587   3.430   2.758   8.722  0.0551  0.2338 -0.0699
 2651TIP3    H129588   3.368   2.735   8.652  1.5091 -1.3553 -0.9085
 2651TIP3    H229589   3.409   2.849   8.743 -3.0245 -0.4314  0.2083
 2652TIP3   OH229590   0.571   3.339   0.568  0.5390  0.4185 -0.4555
 2652TIP3    H129591   0.568   3.255   0.523  1.0515  0.4871 -0.6286
 2652TIP3    H229592   0.664   3.361   0.571  0.5240  0.3241  0.8236
 2653TIP3   OH229593   5.686   2.497   8.935 -0.7182 -0.3328 -0.4262
 2653TIP3    H129594   5.767   2.529   8.974 -1.4216 -0.0663  0.8643
 2653TIP3    H229595   5.676   2.409   8.971 -1.6953  0.1471  0.5193
 2654TIP3   OH229596   2.871   4.663   8.835 -0.3201 -0.3259 -0.1562
 2654TIP3    H129597   2.816   4.736   8.808 -0.1215  0.2386  0.9351
 2654TIP3    H229598   2.955   4.678   8.790 -0.7163 -0.6464 -1.0253
 2655TIP3   OH229599   4.991   2.820   1.503  0.0883 -0.1855  0.1977
 2655TIP3    H129600   4.941   2.790   1.427  1.1672 -0.4720 -0.4225
 2655TIP3    H229601   5.066   2.866   1.466  1.0044 -0.9360  1.0573
 2656TIP3   OH229602   1.737   4.112   0.211 -0.1301  0.4011 -0.0132
 2656TIP3    H129603   1.764   4.202   0.226  2.2386 -0.3011  0.3624
 2656TIP3    H229604   1.712   4.109   0.119 -1.9882  1.7917  0.3878
 2657TIP3   OH229605   2.333   6.278   7.726  0.4466  0.2711 -0.3053
 2657TIP3    H129606   2.312   6.343   7.793 -1.1129 -0.4640 -0.0275
 2657TIP3    H229607   2.275   6.301   7.653 -1.0696 -1.5287  0.2715
 2658TIP3   OH229608   2.591   6.546   8.831  0.5852  0.4325  0.4704
 2658TIP3    H129609   2.613   6.481   8.764  1.7901  0.7932  0.4992
 2658TIP3    H229610   2.546   6.616   8.783  1.1728  0.5476  0.0734
 2659TIP3   OH229611   2.370   0.707   0.829 -0.1493  0.4318  0.0907
 2659TIP3    H129612   2.406   0.637   0.774 -0.0305  0.7793 -0.2822
 2659TIP3    H229613   2.418   0.701   0.911  0.2613  0.4455 -0.1499
 2660TIP3   OH229614   6.668   1.679   8.718 -0.8033  0.2132 -0.5396
 2660TIP3    H129615   6.670   1.712   8.807  1.3786 -0.6213 -0.2037
 2660TIP3    H229616   6.596   1.615   8.717  0.3704 -1.2130  1.2227
 2661TIP3   OH229617   6.558   1.780   8.386 -0.3089 -0.2090 -0.0913
 2661TIP3    H129618   6.626   1.780   8.454  0.4767 -2.3011 -0.7963
 2661TIP3    H229619   6.595   1.834   8.316  0.4545 -0.9462 -0.2749
 2662TIP3   OH229620   5.872   4.007   7.574  0.6228  0.5010  0.0336
 2662TIP3    H129621   5.801   3.997   7.510  0.9039 -0.5591 -0.1316
 2662TIP3    H229622   5.839   4.071   7.637 -0.0539  0.8163 -0.6275
 2663TIP3   OH229623   3.842   6.082   0.723  0.2854 -0.4002  0.3033
 2663TIP3    H129624   3.895   6.135   0.663 -1.1090 -0.7886 -1.3430
 2663TIP3    H229625   3.892   6.001   0.734  0.6217 -0.2744 -0.2555
 2664TIP3   OH229626   4.080   6.488   0.650  0.0173 -0.0189 -0.4251
 2664TIP3    H129627   4.047   6.430   0.581  0.8492  0.7260 -1.4942
 2664TIP3    H229628   4.170   6.506   0.625  0.1046  0.8782  0.4624
 2665TIP3   OH229629   2.453   5.307   8.974 -0.2864  0.3879 -0.5404
 2665TIP3    H129630   2.405   5.378   8.931 -1.0745  0.0825 -0.1854
 2665TIP3    H229631   2.493   5.348   9.051  1.6796  1.0865 -1.8620
 2666TIP3   OH229632   4.926   6.502   7.512  0.1541 -0.3665 -0.2468
 2666TIP3    H129633   4.869   6.552   7.454  1.4993  3.1773  1.2521
 2666TIP3    H229634   5.007   6.491   7.463  0.1962 -0.2044 -0.2129
 2667TIP3   OH229635   1.278   3.050   1.332 -0.4183  0.0661  0.3072
 2667TIP3    H129636   1.318   3.111   1.395  1.3227 -0.6175 -0.0836
 2667TIP3    H229637   1.311   3.078   1.247 -1.4407 -0.0368 -0.1404
 2668TIP3   OH229638   2.403   5.903   8.700  0.0911 -0.1460 -0.3865
 2668TIP3    H129639   2.321   5.859   8.724 -1.1868  1.9197 -0.7503
 2668TIP3    H229640   2.397   5.917   8.606  0.9067 -0.0206 -0.4310
 2669TIP3   OH229641   1.134   1.019   1.827 -0.3898  0.3821 -0.2294
 2669TIP3    H129642   1.105   0.928   1.829 -1.0664  0.5856 -0.7218
 2669TIP3    H229643   1.164   1.036   1.917 -0.1694 -0.3463 -0.1540
 2670TIP3   OH229644   0.181   2.462   7.743 -0.0535  0.0701 -0.0571
 2670TIP3    H129645   0.251   2.444   7.680 -0.8091  0.1183 -0.9408
 2670TIP3    H229646   0.226   2.492   7.822  1.1606 -3.4593  0.7467
 2671TIP3   OH229647   2.050   6.541   2.318  0.3762 -0.0167 -0.6348
 2671TIP3    H129648   1.974   6.525   2.262 -0.6258  0.6921  0.4552
 2671TIP3    H229649   2.072   6.455   2.354 -0.2719 -0.1585 -0.5522
 2672TIP3   OH229650   4.721   0.295   1.596  0.0616  0.1564  0.3154
 2672TIP3    H129651   4.761   0.382   1.595 -1.0704  0.7163 -1.8167
 2672TIP3    H229652   4.762   0.249   1.523  0.3689 -1.0069  1.1849
 2673TIP3   OH229653   1.307   3.645   0.984  0.0295 -0.3382 -0.4447
 2673TIP3    H129654   1.384   3.589   0.997 -0.0450  0.0804  2.1991
 2673TIP3    H229655   1.233   3.589   1.006 -0.1686  0.2535  0.4314
 2674TIP3   OH229656   0.942   5.771   7.748 -0.6052  0.4279  0.4919
 2674TIP3    H129657   0.956   5.743   7.658  1.8101 -0.7241  1.1465
 2674TIP3    H229658   1.022   5.818   7.771 -1.5837  1.5552  1.7572
 2675TIP3   OH229659   5.296   1.974   0.786  0.2576 -0.4911  0.0290
 2675TIP3    H129660   5.272   2.067   0.782 -1.4786 -0.9649 -1.8118
 2675TIP3    H229661   5.221   1.928   0.751  1.2098 -2.6123  0.6219
 2676TIP3   OH229662   0.850   6.056   7.577 -1.0974 -0.1054 -0.2112
 2676TIP3    H129663   0.926   6.008   7.610 -1.5919 -1.5116 -1.0189
 2676TIP3    H229664   0.868   6.066   7.483 -1.9353 -0.5160 -0.4194
 2677TIP3   OH229665   5.912   6.038   1.897  0.0278  0.6456 -0.0916
 2677TIP3    H129666   5.897   6.047   1.803  0.2771  0.0398 -0.1978
 2677TIP3    H229667   5.824   6.027   1.934 -0.0766  0.9661 -0.2439
 2678TIP3   OH229668   3.500   4.055   9.054 -0.0866  0.4814  0.1841
 2678TIP3    H129669   3.566   3.992   9.027  0.3493  1.3742 -0.8934
 2678TIP3    H229670   3.425   4.001   9.082 -0.0087 -0.5179 -1.4193
 2679TIP3   OH229671   0.083   1.295   7.434  0.5303  0.2737 -0.3051
 2679TIP3    H129672   0.158   1.353   7.444  1.5449 -1.0867  0.3390
 2679TIP3    H229673   0.023   1.321   7.504  0.6836  0.9501 -0.4234
 2680TIP3   OH229674   5.868   2.776   1.329  0.5795  0.4542  0.3632
 2680TIP3    H129675   5.832   2.865   1.335  1.6024  0.8194  1.8740
 2680TIP3    H229676   5.913   2.763   1.413  1.1754 -1.1796 -0.1641
 2681TIP3   OH229677   2.677   3.011   1.800  0.0761 -0.1619 -0.0786
 2681TIP3    H129678   2.647   2.972   1.882  0.5114 -0.3050  0.0166
 2681TIP3    H229679   2.773   3.013   1.808  0.2480 -1.7666 -1.2994
 2682TIP3   OH229680   3.452   0.773   1.330  0.0671  0.2625  0.4994
 2682TIP3    H129681   3.491   0.835   1.392  0.7622  0.7610 -0.4038
 2682TIP3    H229682   3.358   0.788   1.336  0.2680  2.0864 -0.3729
 2683TIP3   OH229683   2.874   0.665   1.394  0.0864  0.1231 -0.4695
 2683TIP3    H129684   2.821   0.692   1.469  0.2745 -0.7739  0.0093
 2683TIP3    H229685   2.877   0.569   1.400 -1.9695 -0.2391 -3.0149
 2684TIP3   OH229686   2.378   5.070   8.047  0.4846 -0.2333 -0.3007
 2684TIP3    H129687   2.290   5.039   8.023  0.4643 -0.3387 -0.0929
 2684TIP3    H229688   2.405   5.125   7.974 -0.3951  1.0706  0.3115
 2685TIP3   OH229689   0.360   6.324   8.409 -0.4627  0.0878 -0.2678
 2685TIP3    H129690   0.380   6.238   8.371 -0.3427 -0.0470  0.1011
 2685TIP3    H229691   0.268   6.318   8.434 -0.6780  0.3445 -0.9844
 2686TIP3   OH229692   3.741   4.256   8.806 -0.5054  0.3942 -0.4620
 2686TIP3    H129693   3.762   4.281   8.896 -1.4514  0.6567 -0.3104
 2686TIP3    H229694   3.719   4.163   8.810 -4.2955  1.1753  0.2884
 2687TIP3   OH229695   4.111   2.912   8.967  1.1627 -0.1248 -0.0460
 2687TIP3    H129696   4.074   2.841   9.021  0.0343 -0.5305 -1.3119
 2687TIP3    H229697   4.182   2.871   8.919  0.8869 -0.2640 -0.3393
 2688TIP3   OH229698   3.306   3.187   9.081 -0.0659  0.2000  0.3899
 2688TIP3    H129699   3.354   3.203   9.162  2.3744 -2.5115 -0.3587
 2688TIP3    H229700   3.220   3.158   9.109  0.3616  0.3959  1.9797
 2689TIP3   OH229701   3.638   0.785   8.040  0.5648  0.0671 -0.1443
 2689TIP3    H129702   3.647   0.713   7.978  0.5484  0.7178 -0.9252
 2689TIP3    H229703   3.564   0.836   8.007  1.5920  1.3384 -0.5456
 2690TIP3   OH229704   2.654   3.740   7.935 -0.4911  0.3464 -0.3257
 2690TIP3    H129705   2.632   3.648   7.946 -0.4468  0.3001 -0.6063
 2690TIP3    H229706   2.740   3.750   7.975 -1.6624  0.8759  2.2526
 2691TIP3   OH229707   3.715   1.515   1.609  0.0357 -0.2113  0.1495
 2691TIP3    H129708   3.692   1.496   1.700 -0.7459  0.2917  0.0705
 2691TIP3    H229709   3.631   1.518   1.563  0.3304  0.6113 -0.3737
 2692TIP3   OH229710   3.894   2.534   0.181 -0.1809 -0.1510 -0.3953
 2692TIP3    H129711   3.895   2.605   0.245 -4.7304  2.0142 -2.2282
 2692TIP3    H229712   3.926   2.575   0.100 -0.1620 -1.0309 -0.8404
 2693TIP3   OH229713   4.634   3.222   6.871 -0.4770  0.2667  0.2292
 2693TIP3    H129714   4.569   3.159   6.903  1.3478 -1.4873  0.6596
 2693TIP3    H229715   4.696   3.231   6.944  0.2869  1.1617 -0.5102
 2694TIP3   OH229716   0.012   5.707   8.278 -0.0934  0.2135  0.6711
 2694TIP3    H129717   0.036   5.797   8.254 -0.8540  0.2445 -0.0123
 2694TIP3    H229718   0.093   5.669   8.311  0.4633  0.8711  0.1012
 2695TIP3   OH229719   4.863   3.729   1.724  0.3270 -0.3035  0.3423
 2695TIP3    H129720   4.955   3.738   1.747  0.7323 -1.3783 -0.7291
 2695TIP3    H229721   4.852   3.787   1.648 -0.5647  1.8651  2.0280
 2696TIP3   OH229722   4.152   5.525   7.027  0.1828  0.4209  0.2797
 2696TIP3    H129723   4.105   5.604   6.998 -0.1599  0.3841  0.7209
 2696TIP3    H229724   4.102   5.494   7.103  0.9517  0.3968  0.7825
 2697TIP3   OH229725   5.493   5.890   0.321 -0.2155 -0.4157 -0.4156
 2697TIP3    H129726   5.403   5.903   0.352  0.0542  1.4571 -0.2597
 2697TIP3    H229727   5.495   5.934   0.236 -0.1721 -2.9849 -1.8141
 2698TIP3   OH229728   5.707   0.227   8.913  0.0418 -0.9977 -1.0693
 2698TIP3    H129729   5.750   0.278   8.845  0.6798  2.1194  1.4075
 2698TIP3    H229730   5.614   0.248   8.903 -0.0592 -1.8309 -1.9283
 2699TIP3   OH229731   4.890   6.213   8.774  0.3839  0.9721 -0.5368
 2699TIP3    H129732   4.898   6.223   8.869 -0.5290 -1.9290 -0.0579
 2699TIP3    H229733   4.979   6.222   8.741  0.7317  1.8921  0.5764
 2700TIP3   OH229734   3.979   0.860   6.243  0.1585  0.2115 -0.0380
 2700TIP3    H129735   3.985   0.907   6.327  0.4056  0.5660 -0.2521
 2700TIP3    H229736   3.892   0.819   6.245  0.3898 -0.2813  0.6509
 2701TIP3   OH229737   5.164   3.036   8.943  0.1374 -0.2419  0.0904
 2701TIP3    H129738   5.168   2.971   9.013  0.0497  0.9183  1.2018
 2701TIP3    H229739   5.143   2.985   8.865 -2.0650 -1.3324  1.2826
 2702TIP3   OH229740   1.259   2.146   7.915  0.1812  0.3728  0.1674
 2702TIP3    H129741   1.280   2.093   7.992  0.2927 -0.1344 -0.2114
 2702TIP3    H229742   1.342   2.188   7.892 -0.2667  2.2035  1.5628
 2703TIP3   OH229743   6.547   5.853   1.954  0.1295 -0.4506 -0.0513
 2703TIP3    H129744   6.634   5.872   1.918  0.4563 -1.6847  0.0209
 2703TIP3    H229745   6.560   5.858   2.049 -0.2083  0.6531 -0.0504
 2704TIP3   OH229746   2.013   3.026   6.678 -0.5259  0.3001 -0.4902
 2704TIP3    H129747   1.917   3.021   6.679 -0.4746 -1.9941 -0.9301
 2704TIP3    H229748   2.039   2.968   6.606  1.2106  0.4672 -0.0443
 2705TIP3   OH229749   2.980   4.068   0.405 -0.4525 -0.1141 -1.0440
 2705TIP3    H129750   2.907   4.130   0.394 -0.4971 -0.1697 -1.0643
 2705TIP3    H229751   3.058   4.123   0.411 -0.8537  0.3123  3.5437
 2706TIP3   OH229752   2.618   4.501   8.651 -0.2463  0.0038  0.0886
 2706TIP3    H129753   2.570   4.583   8.636 -0.4770 -0.4469 -1.9398
 2706TIP3    H229754   2.579   4.465   8.731 -1.9771  0.5878 -0.4501
 2707TIP3   OH229755   4.361   2.333   8.284  0.6188 -0.3774  0.6446
 2707TIP3    H129756   4.393   2.406   8.337  0.1541 -0.3580  0.9053
 2707TIP3    H229757   4.267   2.350   8.274  0.7295 -0.2904 -0.3361
 2708TIP3   OH229758   3.086   0.078   7.918  0.5251 -0.4997  0.1168
 2708TIP3    H129759   3.170   0.037   7.936  0.8147 -0.3346 -0.7992
 2708TIP3    H229760   3.046   0.090   8.004  1.7228  0.0139  0.6252
 2709TIP3   OH229761   0.937   2.175   0.615 -0.1694 -0.1627 -0.1348
 2709TIP3    H129762   0.844   2.153   0.615 -0.3524  0.3919 -2.1495
 2709TIP3    H229763   0.964   2.163   0.524  1.6949 -0.1354  0.3858
 2710TIP3   OH229764   3.180   0.098   8.357  0.1544 -0.5304  0.0112
 2710TIP3    H129765   3.162   0.183   8.316  0.0444 -0.7035 -0.3023
 2710TIP3    H229766   3.241   0.055   8.297 -1.0486 -1.3430 -0.6779
 2711TIP3   OH229767   6.541   5.191   8.955 -0.0785 -0.2371  0.8387
 2711TIP3    H129768   6.485   5.240   8.895  1.3742  0.5826  0.0959
 2711TIP3    H229769   6.535   5.237   9.038 -2.5843 -1.7282  1.5949
 2712TIP3   OH229770   3.096   6.640   6.958  0.2840  0.7026 -0.4551
 2712TIP3    H129771   3.041   6.715   6.979  0.4278  0.6361  0.2030
 2712TIP3    H229772   3.035   6.567   6.949  0.3093  0.4198  1.2678
 2713TIP3   OH229773   3.049   5.091   8.940  0.1358  0.1221  0.1601
 2713TIP3    H129774   3.121   5.073   9.001  0.0241  2.2914  1.0265
 2713TIP3    H229775   2.972   5.095   8.996 -0.5315 -1.1674 -0.6256
 2714TIP3   OH229776   5.587   4.223   1.274 -0.0087  0.8369  0.0374
 2714TIP3    H129777   5.574   4.318   1.285 -0.5529  0.6559  1.0669
 2714TIP3    H229778   5.527   4.183   1.337  0.8780 -0.1859  0.2612
 2715TIP3   OH229779   2.808   3.396   6.854 -0.2773 -0.5545  0.3858
 2715TIP3    H129780   2.877   3.355   6.801  0.3581  0.9333 -0.0110
 2715TIP3    H229781   2.731   3.395   6.797  0.2856  0.6271 -0.4514
 2716TIP3   OH229782   3.989   4.627   7.811 -0.5488  0.5890 -0.1430
 2716TIP3    H129783   3.930   4.700   7.830 -0.2099  2.0103 -3.7762
 2716TIP3    H229784   4.076   4.659   7.835 -0.6647  0.4142  0.5286
 2717TIP3   OH229785   3.585   5.239   7.883 -0.2980  0.3964  0.3279
 2717TIP3    H129786   3.595   5.211   7.974  2.0582 -1.8483 -0.5252
 2717TIP3    H229787   3.507   5.193   7.852  0.3389 -0.8577  0.5341
 2718TIP3   OH229788   3.050   3.677   1.001 -0.3076 -0.3886 -0.0846
 2718TIP3    H129789   3.064   3.770   1.013 -1.7790 -0.2220  0.5260
 2718TIP3    H229790   3.006   3.670   0.916  0.7946 -0.6383 -0.6468
 2719TIP3   OH229791   0.800   2.733   7.462 -0.0430 -0.3051 -0.0042
 2719TIP3    H129792   0.789   2.673   7.388  3.4825 -1.9103  0.5869
 2719TIP3    H229793   0.762   2.687   7.536  3.6176 -2.6208  0.6804
 2720TIP3   OH229794   2.535   5.113   0.369 -0.0949  0.6040  0.1971
 2720TIP3    H129795   2.577   5.036   0.332 -0.2642 -0.3280  1.8517
 2720TIP3    H229796   2.450   5.083   0.400 -0.6578  1.7335 -0.1828
 2721TIP3   OH229797   6.464   2.407   7.258  0.6040 -0.2337 -0.1777
 2721TIP3    H129798   6.508   2.418   7.342  1.6111  3.1092 -1.0171
 2721TIP3    H229799   6.405   2.333   7.272  1.8350 -0.7827  2.9586
 2722TIP3   OH229800   2.099   1.961   6.311 -0.8638 -0.0317  0.3740
 2722TIP3    H129801   2.147   1.897   6.260 -2.2797  0.7294 -2.0791
 2722TIP3    H229802   2.147   1.966   6.394 -0.3442 -3.7075  0.4442
 2723TIP3   OH229803   2.017   4.259   8.238 -0.5897 -0.2633  0.0077
 2723TIP3    H129804   2.074   4.336   8.240 -0.4394 -0.3675  2.0846
 2723TIP3    H229805   2.069   4.192   8.193 -1.0069  0.9864 -2.5076
 2724TIP3   OH229806   5.064   1.806   0.694 -0.2798  0.1838 -0.0243
 2724TIP3    H129807   5.085   1.719   0.660  2.1724 -0.5025  2.7626
 2724TIP3    H229808   5.041   1.857   0.617  2.5769 -1.7647 -2.4286
 2725TIP3   OH229809   6.073   3.725   9.054 -0.2369 -0.4575  0.2688
 2725TIP3    H129810   6.016   3.665   9.100 -0.9422  0.0917  0.1300
 2725TIP3    H229811   6.040   3.727   8.964 -0.1276  0.0159  0.2328
 2726TIP3   OH229812   3.496   3.684   1.440  0.2906  0.3290 -0.2750
 2726TIP3    H129813   3.551   3.607   1.425 -0.2024 -0.2151  0.6384
 2726TIP3    H229814   3.514   3.709   1.530 -2.3662 -1.0720  0.7761
 2727TIP3   OH229815   0.564   2.363   1.461  0.0126  0.3722  0.1166
 2727TIP3    H129816   0.628   2.327   1.400 -0.2865  1.1006 -0.6413
 2727TIP3    H229817   0.598   2.339   1.547  0.9097  0.0973 -0.2992
 2728TIP3   OH229818   3.927   1.213   8.447  0.2996  0.1388  0.6536
 2728TIP3    H129819   3.924   1.180   8.357 -0.1250  2.7072 -0.3560
 2728TIP3    H229820   3.887   1.143   8.499 -2.8725  0.0032 -1.6545
 2729TIP3   OH229821   0.576   1.135   7.945 -0.3256 -0.1624  0.2165
 2729TIP3    H129822   0.539   1.062   7.895  1.1397 -0.0442 -1.1031
 2729TIP3    H229823   0.629   1.183   7.882 -0.1685  1.2767  1.3943
 2730TIP3   OH229824   1.199   1.678   1.956 -0.7382  0.5149 -0.2670
 2730TIP3    H129825   1.211   1.608   1.893 -0.0142  0.2067  0.1920
 2730TIP3    H229826   1.136   1.644   2.019 -2.1884  1.1808 -1.3185
 2731TIP3   OH229827   1.731   0.564   1.892  0.0726  0.0455 -0.3434
 2731TIP3    H129828   1.687   0.620   1.956 -0.2181  0.8577 -1.2299
 2731TIP3    H229829   1.779   0.501   1.945  0.8469  1.4573  0.7117
 2732TIP3   OH229830   6.480   0.379   8.959 -0.4355 -0.4935  0.1609
 2732TIP3    H129831   6.451   0.316   8.893 -1.6546  0.9177 -0.7026
 2732TIP3    H229832   6.536   0.440   8.911  1.2766 -1.2508  1.1264
 2733TIP3   OH229833   3.815   6.159   8.346  0.0363  0.0864 -0.4401
 2733TIP3    H129834   3.866   6.188   8.271  0.3250  0.2783 -0.1744
 2733TIP3    H229835   3.858   6.199   8.421  1.8290 -2.7702  0.2225
 2734TIP3   OH229836   6.437   0.480   7.236 -0.1442 -0.0440  0.6196
 2734TIP3    H129837   6.447   0.529   7.318 -0.8603  0.4870  0.3980
 2734TIP3    H229838   6.346   0.495   7.211  0.0804 -0.1903 -0.2860
 2735TIP3   OH229839   1.162   3.118   0.248  0.4968  0.8562 -0.1620
 2735TIP3    H129840   1.191   3.066   0.323 -2.0728  0.0483  0.3857
 2735TIP3    H229841   1.148   3.054   0.179  1.5490  1.4268 -0.9191
 2736TIP3   OH229842   0.439   3.082   9.060  0.2762 -0.5409 -0.6139
 2736TIP3    H129843   0.413   3.119   9.145  0.9264 -0.3914 -0.4725
 2736TIP3    H229844   0.532   3.106   9.051  0.5815 -1.7389 -0.7408
 2737TIP3   OH229845   2.260   2.151   6.851 -0.5208  0.2080 -0.0946
 2737TIP3    H129846   2.276   2.083   6.916 -2.3137 -0.4733 -0.3176
 2737TIP3    H229847   2.292   2.113   6.769  1.6381  1.0252  0.2884
 2738TIP3   OH229848   3.584   5.956   1.887  0.5503  0.2080 -0.1108
 2738TIP3    H129849   3.579   5.862   1.869  2.0925 -0.0141  0.5176
 2738TIP3    H229850   3.503   5.976   1.933 -0.0187 -0.7062 -0.6860
 2739TIP3   OH229851   5.434   5.904   1.474 -0.1928 -0.3441 -0.4922
 2739TIP3    H129852   5.411   5.990   1.438  1.3601 -0.0266 -0.7839
 2739TIP3    H229853   5.350   5.867   1.500 -1.2946 -0.0715 -3.2846
 2740TIP3   OH229854   0.970   1.950   8.598 -0.2431 -0.5383 -0.2254
 2740TIP3    H129855   0.967   2.046   8.598 -0.7341 -0.4948 -2.3633
 2740TIP3    H229856   1.062   1.929   8.581  0.2806 -0.5356  2.2993
 2741TIP3   OH229857   3.579   3.246   9.069  0.9812 -0.7919  0.2053
 2741TIP3    H129858   3.509   3.279   9.014  0.9863 -0.1985  0.5498
 2741TIP3    H229859   3.558   3.278   9.157  1.5448 -0.8293  0.3572
 2742TIP3   OH229860   4.196   0.580   0.134 -0.3894 -0.1107  0.0008
 2742TIP3    H129861   4.207   0.675   0.132  1.8181 -0.3006 -1.0170
 2742TIP3    H229862   4.201   0.557   0.226 -1.1910  0.7716  0.2778
 2743TIP3   OH229863   4.030   1.171   0.727  0.3377  0.8329  0.1422
 2743TIP3    H129864   3.958   1.214   0.681  1.1602  1.1241 -0.9206
 2743TIP3    H229865   4.082   1.131   0.657  2.0974  1.9918  0.7043
 2744TIP3   OH229866   3.828   5.834   1.983 -0.3396  0.0246 -0.2374
 2744TIP3    H129867   3.742   5.857   1.947  0.4684 -0.8621 -3.0017
 2744TIP3    H229868   3.874   5.917   1.990 -0.9792  0.3644  0.0281
 2745TIP3   OH229869   0.230   5.248   8.337 -0.1132  0.3403  0.5990
 2745TIP3    H129870   0.239   5.153   8.336 -0.3552  0.3096  0.9662
 2745TIP3    H229871   0.311   5.280   8.298  0.3542  0.0050  1.2607
 2746TIP3   OH229872   5.280   2.824   0.044  0.4354 -0.0701 -0.4889
 2746TIP3    H129873   5.328   2.785   0.117 -0.2060  0.3511  0.1780
 2746TIP3    H229874   5.347   2.860  -0.013  1.0547 -2.1095 -1.1213
 2747TIP3   OH229875   2.186   0.572   6.944 -0.4179  0.4911  0.0108
 2747TIP3    H129876   2.242   0.496   6.960  1.3410  0.8970 -3.3582
 2747TIP3    H229877   2.188   0.621   7.026  1.3663 -1.2421  1.0950
 2748TIP3   OH229878   3.957   3.114   9.105 -0.1501  0.0520  0.6970
 2748TIP3    H129879   3.961   3.085   9.196  0.7255  1.8911  1.2709
 2748TIP3    H229880   3.998   3.042   9.056  1.0183 -0.1786  1.9500
 2749TIP3   OH229881   0.946   5.745   2.168 -0.1523  0.1472  0.4211
 2749TIP3    H129882   0.876   5.715   2.111  1.8162 -1.6608 -1.2425
 2749TIP3    H229883   0.928   5.705   2.253 -0.5509 -1.2054 -0.2875
 2750TIP3   OH229884   2.739   0.732   6.786  0.3070 -0.7336  0.5467
 2750TIP3    H129885   2.710   0.797   6.722 -1.3843 -1.3342  0.6514
 2750TIP3    H229886   2.669   0.729   6.850  3.4398  2.6350  4.7408
 2751TIP3   OH229887   4.080   1.692   8.681 -0.1377 -0.1293 -0.0468
 2751TIP3    H129888   4.099   1.633   8.609  0.9529  0.3362 -0.1637
 2751TIP3    H229889   4.067   1.778   8.639 -0.0710  0.0299  0.2519
 2752TIP3   OH229890   4.449   5.368   6.294 -0.0565  0.1716  0.2436
 2752TIP3    H129891   4.534   5.398   6.328 -0.2774  0.2497  0.7370
 2752TIP3    H229892   4.396   5.448   6.290  0.2339  0.3258 -1.1375
 2753TIP3   OH229893   5.802   1.916   6.660  0.1006 -0.1807  0.2333
 2753TIP3    H129894   5.708   1.929   6.647 -0.0376  0.7512  1.9263
 2753TIP3    H229895   5.814   1.821   6.659 -0.4873 -0.2898 -2.1381
 2754TIP3   OH229896   1.933   2.188   7.871 -0.7226  0.3964  0.3036
 2754TIP3    H129897   1.953   2.221   7.959  0.2500  1.5212 -0.3140
 2754TIP3    H229898   1.996   2.117   7.858  1.6814  2.5762 -0.8259
 2755TIP3   OH229899   1.737   2.060   8.312 -0.1754 -0.4183 -0.0550
 2755TIP3    H129900   1.696   2.109   8.241 -1.4656  0.0404  0.9555
 2755TIP3    H229901   1.805   2.119   8.346 -0.4281 -0.1112 -0.0750
 2756TIP3   OH229902   2.502   2.936   8.714 -0.1810 -0.2044 -0.1575
 2756TIP3    H129903   2.422   2.911   8.761 -1.4416  0.3678 -1.9027
 2756TIP3    H229904   2.471   2.974   8.632  1.8568  1.4010 -0.2565
 2757TIP3   OH229905   6.030   4.337   8.998  0.3972 -0.2265  0.5900
 2757TIP3    H129906   5.966   4.404   8.974  0.4741 -0.5619 -0.6689
 2757TIP3    H229907   5.977   4.260   9.020  0.3147 -0.7303 -1.1525
 2758TIP3   OH229908   2.575   2.422   6.338  0.2892 -0.3344  0.1673
 2758TIP3    H129909   2.599   2.330   6.354 -0.2317 -0.4502  0.3127
 2758TIP3    H229910   2.487   2.430   6.377 -1.1768 -0.6855 -2.7944
 2759TIP3   OH229911   2.185   3.841   8.296 -0.1073 -0.4887 -0.3778
 2759TIP3    H129912   2.092   3.861   8.289  0.0863 -0.0310 -2.1516
 2759TIP3    H229913   2.197   3.763   8.242  0.4515 -0.9062  0.3234
 2760TIP3   OH229914   0.077   4.376   2.221  0.5673 -0.0127  0.8369
 2760TIP3    H129915   0.105   4.444   2.282 -0.8161 -0.1050  1.6117
 2760TIP3    H229916  -0.011   4.353   2.249  0.6551 -1.4842  0.0164
 2761TIP3   OH229917   0.151   6.643   0.871 -0.1263 -0.3396 -0.3194
 2761TIP3    H129918   0.208   6.570   0.848  0.3265  0.5357 -2.0875
 2761TIP3    H229919   0.194   6.720   0.836 -1.3037  0.6231  0.2640
 2762TIP3   OH229920   4.915   4.499   7.338 -0.4168 -0.1064  0.1677
 2762TIP3    H129921   4.832   4.546   7.350  0.6325  1.3962  2.3991
 2762TIP3    H229922   4.961   4.547   7.270 -0.7002  0.0735  0.1034
 2763TIP3   OH229923   3.082   4.125   0.048 -0.0486 -0.2507 -0.3548
 2763TIP3    H129924   3.091   4.030   0.062 -1.5631 -0.3414  0.1756
 2763TIP3    H229925   3.048   4.133  -0.041 -1.8250 -0.3601  0.2639
 2764TIP3   OH229926   3.648   5.364   8.343 -0.1292 -0.0945 -0.3504
 2764TIP3    H129927   3.612   5.329   8.425 -0.5141  0.5707 -0.2282
 2764TIP3    H229928   3.594   5.440   8.324  1.3448  1.0678 -0.0663
 2765TIP3   OH229929   4.103   1.346   8.841  0.1379  0.6128 -0.2726
 2765TIP3    H129930   4.068   1.429   8.875  1.9190  0.9406  0.8750
 2765TIP3    H229931   4.129   1.366   8.751 -0.2481  1.0507 -0.2923
 2766TIP3   OH229932   2.602   6.135   7.341 -0.6867 -0.3736 -0.1354
 2766TIP3    H129933   2.591   6.157   7.249  0.0350  0.0082 -0.1378
 2766TIP3    H229934   2.668   6.065   7.341  2.8232  2.6411  0.3204
 2767TIP3   OH229935   2.421   2.638   8.956 -0.1008 -0.1707  0.3466
 2767TIP3    H129936   2.404   2.731   8.968  2.8206  0.5541 -0.3245
 2767TIP3    H229937   2.443   2.629   8.863  1.5613 -1.1264  0.7903
 2768TIP3   OH229938   4.176   1.594   7.418 -0.3779  0.1603  0.2801
 2768TIP3    H129939   4.148   1.516   7.371 -1.1977 -0.0269  1.0612
 2768TIP3    H229940   4.225   1.560   7.494 -1.4258  0.3668  1.0637
 2769TIP3   OH229941   4.655   5.362   1.027  0.5432 -0.3200 -0.3264
 2769TIP3    H129942   4.721   5.304   0.990 -0.0330 -2.7164  2.1094
 2769TIP3    H229943   4.582   5.305   1.050 -1.4946  1.9159 -0.8504
 2770TIP3   OH229944   1.737   1.758   9.126 -0.4041  0.0038 -0.3772
 2770TIP3    H129945   1.663   1.730   9.180  0.1391 -3.1523 -1.0774
 2770TIP3    H229946   1.701   1.768   9.038 -0.5022  1.1970 -0.2136
 2771TIP3   OH229947   4.848   0.200   7.999  0.2771 -0.2119  0.2886
 2771TIP3    H129948   4.794   0.126   7.970  0.0447  0.5144 -1.2113
 2771TIP3    H229949   4.789   0.275   7.995  1.3722  0.6157 -1.4491
 2772TIP3   OH229950   1.864   2.449   1.442  0.0357  0.1539 -0.2857
 2772TIP3    H129951   1.899   2.531   1.408  3.1601 -1.3482 -1.0938
 2772TIP3    H229952   1.890   2.449   1.534  0.7359 -0.2337 -0.4761
 2773TIP3   OH229953   2.620   5.897   2.333  0.6993  0.4329  0.2539
 2773TIP3    H129954   2.676   5.952   2.388  0.8930 -1.0648  1.6419
 2773TIP3    H229955   2.617   5.813   2.379 -0.3564 -0.4232 -1.2923
 2774TIP3   OH229956   4.425   3.799   8.258  0.1527  0.0368 -0.0736
 2774TIP3    H129957   4.376   3.764   8.333  3.0272 -0.7920  1.5917
 2774TIP3    H229958   4.397   3.890   8.251 -1.4295 -0.3365  0.9118
 2775TIP3   OH229959   0.790   1.899   0.609  0.1121 -0.1952  0.1767
 2775TIP3    H129960   0.701   1.866   0.623  0.0027  0.5201  1.3154
 2775TIP3    H229961   0.845   1.821   0.610 -0.5019 -0.6568 -0.6410
 2776TIP3   OH229962   5.868   2.546   0.655 -0.2530 -0.1720  0.4221
 2776TIP3    H129963   5.895   2.454   0.654 -0.7584 -0.3260  0.3825
 2776TIP3    H229964   5.860   2.568   0.748  1.5070  0.3437  0.4922
 2777TIP3   OH229965   4.330   4.931   1.565  1.1059  0.5115  0.0046
 2777TIP3    H129966   4.339   5.025   1.547  1.0124  0.7910  1.3004
 2777TIP3    H229967   4.341   4.924   1.660  0.0466 -0.6585  0.0672
 2778TIP3   OH229968   5.113   4.671   2.020 -0.0502  0.1491  0.5013
 2778TIP3    H129969   5.061   4.603   2.063  0.6331 -0.0742  1.0023
 2778TIP3    H229970   5.171   4.622   1.961  1.3024  0.1572  1.7570
 2779TIP3   OH229971   2.116   4.987   1.422 -0.3497 -0.7286 -0.0953
 2779TIP3    H129972   2.106   4.924   1.352 -0.9516 -1.4432  0.6127
 2779TIP3    H229973   2.199   5.031   1.404  0.5167 -2.3120 -0.1454
 2780TIP3   OH229974   4.189   4.074   6.934 -0.2530 -0.3947 -0.8773
 2780TIP3    H129975   4.105   4.078   6.981 -0.4506  1.1992 -1.3118
 2780TIP3    H229976   4.238   4.150   6.966  0.3697 -0.3760 -1.8408
 2781TIP3   OH229977   5.825   5.877   0.806 -0.0996 -0.1671  0.1933
 2781TIP3    H129978   5.757   5.816   0.777 -0.8008  0.3611  0.6720
 2781TIP3    H229979   5.830   5.943   0.737 -0.7293  0.2820  0.5536
 2782TIP3   OH229980   1.101   5.318   1.352  0.0774 -0.6563 -0.4400
 2782TIP3    H129981   1.059   5.356   1.429  0.1525 -0.0793 -0.6823
 2782TIP3    H229982   1.162   5.253   1.388  1.1681  0.6022  0.0876
 2783TIP3   OH229983   6.531   4.978   2.371  0.0618  0.0546 -0.9349
 2783TIP3    H129984   6.498   5.047   2.429 -0.2847 -0.2471 -0.7708
 2783TIP3    H229985   6.458   4.917   2.362 -0.2472  0.6228 -2.5508
 2784TIP3   OH229986   6.221   3.476   2.068 -0.1829  0.2286  0.1576
 2784TIP3    H129987   6.231   3.500   1.976  0.0584 -0.6089 -0.0496
 2784TIP3    H229988   6.292   3.521   2.113  1.3577 -1.4309 -0.4899
 2785TIP3   OH229989   2.079   0.759   7.875  0.0204  0.7107  0.1691
 2785TIP3    H129990   2.156   0.806   7.907  0.0771 -0.4741  1.9291
 2785TIP3    H229991   2.115   0.682   7.831 -0.0923  1.9065 -2.1806
 2786TIP3   OH229992   1.588   2.683   8.783 -0.1531 -0.5624  0.1092
 2786TIP3    H129993   1.584   2.624   8.708  1.3900 -2.5674  1.5050
 2786TIP3    H229994   1.621   2.766   8.747  0.5618 -1.4759 -1.4221
 2787TIP3   OH229995   5.923   5.655   1.275 -0.3667 -0.1071  0.3772
 2787TIP3    H129996   5.916   5.738   1.321  2.1125 -0.1581  0.9335
 2787TIP3    H229997   5.880   5.592   1.333 -0.8039  0.5001  0.7233
 2788TIP3   OH229998   0.026   1.942   0.519  0.5006  0.4344 -0.1294
 2788TIP3    H129999   0.015   1.932   0.614  0.4638  1.5858 -0.0063
 2788TIP3    H230000  -0.020   2.023   0.497 -0.4164 -0.3623 -1.3134
 2789TIP3   OH230001   6.277   6.578   1.350  0.0693  0.6891 -0.1453
 2789TIP3    H130002   6.364   6.582   1.309  0.4005 -1.7568  0.1559
 2789TIP3    H230003   6.295   6.572   1.444 -0.3564 -0.2899 -0.1077
 2790TIP3   OH230004   0.093   5.394   0.683 -0.3851  0.0039  0.4458
 2790TIP3    H130005   0.056   5.447   0.754  2.8084  1.5423  1.1391
 2790TIP3    H230006   0.156   5.336   0.726  0.1023 -0.5438 -0.9347
 2791TIP3   OH230007   4.051   6.322   1.206  0.0756 -0.0568  0.0576
 2791TIP3    H130008   4.140   6.301   1.235  1.2574 -0.2977 -3.3609
 2791TIP3    H230009   3.997   6.249   1.237  1.2414 -0.4226  1.2997
 2792TIP3   OH230010   2.717   3.904   7.168 -0.2071 -0.1129 -0.3589
 2792TIP3    H130011   2.668   3.860   7.238 -0.3825 -1.3119 -1.1956
 2792TIP3    H230012   2.784   3.840   7.143 -1.9950 -1.0385 -3.2869
 2793TIP3   OH230013   5.047   5.864   8.234  0.0106  0.2229  0.2599
 2793TIP3    H130014   5.023   5.938   8.290  0.7341  1.1182 -0.5861
 2793TIP3    H230015   4.965   5.839   8.192  0.3328  3.0804 -2.3948
 2794TIP3   OH230016   1.732   3.572   0.281 -0.1387 -0.4918 -0.3949
 2794TIP3    H130017   1.681   3.596   0.203 -1.0838 -0.3073  0.2622
 2794TIP3    H230018   1.698   3.628   0.350 -1.1809 -2.4587  0.7812
 2795TIP3   OH230019   0.293   5.595   8.760  0.1966 -0.4395  0.2037
 2795TIP3    H130020   0.281   5.651   8.684  0.7147 -1.6123 -0.7891
 2795TIP3    H230021   0.276   5.651   8.835 -1.4623  0.4711 -0.7945
 2796TIP3   OH230022   2.681   4.845   1.480  0.4565 -0.3146 -0.0795
 2796TIP3    H130023   2.757   4.896   1.508  1.5353 -1.6772 -0.3868
 2796TIP3    H230024   2.643   4.811   1.561 -0.5921  1.3364  0.1728
 2797TIP3   OH230025   4.709   0.020   0.753  0.1796 -0.0731  0.1083
 2797TIP3    H130026   4.767   0.083   0.794 -1.2157  0.2955  1.6350
 2797TIP3    H230027   4.732  -0.064   0.792 -0.4845  0.1248  0.9683
 2798TIP3   OH230028   3.489   5.811   1.378  0.1039  0.1723  0.2211
 2798TIP3    H130029   3.514   5.734   1.327 -1.7901 -0.9334  0.8625
 2798TIP3    H230030   3.394   5.814   1.371  0.1066  2.1984  0.6193
 2799TIP3   OH230031   6.376   6.419   2.019 -0.4921 -0.2242 -0.1294
 2799TIP3    H130032   6.441   6.462   2.076 -0.5063  1.0145 -1.0118
 2799TIP3    H230033   6.314   6.488   1.997  0.4059 -0.1945 -2.9575
 2800TIP3   OH230034   2.431   2.238   0.767  0.3742 -0.7497 -0.4585
 2800TIP3    H130035   2.358   2.189   0.805  0.8837  0.3864  2.2328
 2800TIP3    H230036   2.397   2.327   0.756  0.5046 -0.8576 -2.0532
 2801TIP3   OH230037   2.901   3.875   7.763 -0.4195  0.6515  0.1308
 2801TIP3    H130038   2.858   3.940   7.819 -0.2536  0.2699  0.7055
 2801TIP3    H230039   2.994   3.889   7.777 -0.3822  0.3632  0.1567
 2802TIP3   OH230040   2.326   0.037   0.660  0.2325 -0.5852  0.7325
 2802TIP3    H130041   2.290  -0.014   0.732  1.0610  1.5379  2.7680
 2802TIP3    H230042   2.420   0.020   0.664  0.6149  1.3968  1.8387
 2803TIP3   OH230043   5.780   3.932   0.376 -0.4595  0.3578  0.4060
 2803TIP3    H130044   5.718   3.865   0.405 -0.5387 -0.2469 -1.0789
 2803TIP3    H230045   5.830   3.890   0.306 -1.4396  2.2375 -1.5577
 2804TIP3   OH230046   5.161   0.456   0.992  0.2572 -0.1699 -0.9811
 2804TIP3    H130047   5.197   0.377   1.034  1.4229  0.6277 -0.4063
 2804TIP3    H230048   5.114   0.424   0.916 -0.4029 -1.5263 -0.0422
 2805TIP3   OH230049   5.359   2.795   6.731 -0.1808  0.3214 -0.3228
 2805TIP3    H130050   5.420   2.777   6.660  0.1746  0.2030  0.0041
 2805TIP3    H230051   5.323   2.881   6.711 -0.2779  0.1731 -0.7800
 2806TIP3   OH230052   5.137   0.739   1.339 -0.1864 -0.2921  0.0790
 2806TIP3    H130053   5.131   0.724   1.433 -0.9961  0.9917  0.2576
 2806TIP3    H230054   5.074   0.679   1.300 -0.0146 -0.6623  0.3737
 2807TIP3   OH230055   4.098   0.053   8.616  0.0187  0.0073 -0.1566
 2807TIP3    H130056   4.072   0.107   8.691  0.9879 -0.5894  0.6475
 2807TIP3    H230057   4.136   0.115   8.554  1.8189  0.2452  1.0700
 2808TIP3   OH230058   0.922   2.977   7.493  0.7075  0.0292 -0.0754
 2808TIP3    H130059   0.888   2.891   7.469 -2.6921  1.8079 -2.3283
 2808TIP3    H230060   0.990   2.995   7.428  1.5811 -0.9048  0.5242
 2809TIP3   OH230061   3.800   6.419   1.171 -0.1395  0.1196  0.6369
 2809TIP3    H130062   3.724   6.365   1.193  0.1426 -0.9779 -0.9145
 2809TIP3    H230063   3.874   6.359   1.172  0.5001  0.8845  0.7383
 2810TIP3   OH230064   5.718   2.891   6.372 -0.1092  0.5133 -0.3399
 2810TIP3    H130065   5.782   2.920   6.438  1.0447 -0.3156 -1.0700
 2810TIP3    H230066   5.688   2.972   6.331 -0.0036  0.9575  0.4433
 2811TIP3   OH230067   5.190   2.492   0.626 -0.2571  0.8624  0.0362
 2811TIP3    H130068   5.156   2.552   0.693  1.3165  1.5131  0.2921
 2811TIP3    H230069   5.256   2.543   0.579 -0.0935 -0.1428 -0.8730
 2812TIP3   OH230070   3.223   6.717   6.733 -0.0447 -0.3207  0.4863
 2812TIP3    H130071   3.176   6.798   6.712  0.2835 -0.1971  0.2187
 2812TIP3    H230072   3.175   6.681   6.808  0.6094  0.8201  1.4887
 2813TIP3   OH230073   4.177   6.283   2.251  0.2144 -0.3159 -0.4965
 2813TIP3    H130074   4.160   6.327   2.334  2.6926  0.7380 -0.4564
 2813TIP3    H230075   4.095   6.290   2.202 -0.7616  0.5393  1.1939
 2814TIP3   OH230076   6.464   4.855   1.960  0.3438  0.1775  0.2949
 2814TIP3    H130077   6.416   4.926   2.001  0.5846  0.4300  0.1394
 2814TIP3    H230078   6.552   4.889   1.946  0.0852  0.3420 -1.0651
 2815TIP3   OH230079   4.267   3.976   0.977 -0.3925 -0.6540 -0.1228
 2815TIP3    H130080   4.312   4.031   0.914 -0.5931 -0.6587 -0.2698
 2815TIP3    H230081   4.263   4.029   1.057  2.9377 -1.8527  1.0325
 2816TIP3   OH230082   0.576   6.088   8.474 -0.3375  0.4203 -0.5777
 2816TIP3    H130083   0.666   6.056   8.481  0.6969  3.1892 -0.1987
 2816TIP3    H230084   0.525   6.028   8.529  0.8928 -2.2639 -2.1748
 2817TIP3   OH230085   3.577   2.187   1.936  0.1680 -0.2060  0.1053
 2817TIP3    H130086   3.648   2.239   1.974  0.6401  0.4560 -1.5453
 2817TIP3    H230087   3.531   2.249   1.879 -2.1744 -0.4589  1.6004
 2818TIP3   OH230088   4.509   0.098   7.261  0.2561 -0.3956  0.6941
 2818TIP3    H130089   4.429   0.098   7.208 -1.0206 -0.0895  2.5124
 2818TIP3    H230090   4.480   0.069   7.347  2.3138 -1.1781  1.1638
 2819TIP3   OH230091   0.585   0.142   8.256  0.2718  0.0418  1.0256
 2819TIP3    H130092   0.532   0.221   8.243  1.5956  0.8197  0.0490
 2819TIP3    H230093   0.577   0.095   8.173  0.8833  0.0421  0.9623
 2820TIP3   OH230094   0.675   2.358   8.242 -0.4514 -0.1030 -0.0988
 2820TIP3    H130095   0.583   2.347   8.267 -0.2840 -0.3361  0.4076
 2820TIP3    H230096   0.676   2.342   8.147 -0.9765  0.1733 -0.1531
 2821TIP3   OH230097   5.463   5.925   8.493  0.1178 -0.2223  0.3443
 2821TIP3    H130098   5.481   5.843   8.449  0.4421 -0.9034  1.6883
 2821TIP3    H230099   5.539   5.980   8.475  1.0674 -1.1142  1.4429
 2822TIP3   OH230100   4.801   5.348   7.668  0.1443  0.0064  0.1469
 2822TIP3    H130101   4.810   5.300   7.751 -0.2493 -0.6783 -0.1938
 2822TIP3    H230102   4.723   5.403   7.681  2.1835  2.8029  1.5873
 2823TIP3   OH230103   5.946   3.178   1.822 -0.3353 -0.2272 -0.2823
 2823TIP3    H130104   5.871   3.200   1.768  0.5598 -0.1748 -1.5425
 2823TIP3    H230105   5.997   3.259   1.827  0.5024 -0.7066 -0.8768
 2824TIP3   OH230106   2.213   3.267   7.153 -0.1048 -0.1382  0.0393
 2824TIP3    H130107   2.300   3.290   7.120  0.1438 -0.3194  0.5614
 2824TIP3    H230108   2.157   3.338   7.123 -0.7834 -2.1858 -4.3242
 2825TIP3   OH230109   0.840   5.780   8.988 -0.3718 -0.5779  0.0147
 2825TIP3    H130110   0.793   5.697   9.000  0.4184 -1.3038 -1.5720
 2825TIP3    H230111   0.898   5.786   9.065 -1.1349 -0.9801  0.6406
 2826TIP3   OH230112   6.548   0.352   7.738 -0.0381 -0.1505  0.4333
 2826TIP3    H130113   6.493   0.356   7.816 -0.9339 -1.2778 -0.1030
 2826TIP3    H230114   6.563   0.259   7.724 -2.7671 -0.3385 -2.5964
 2827TIP3   OH230115   0.313   1.530   2.065  0.0997 -0.5902 -0.5051
 2827TIP3    H130116   0.329   1.576   2.148  0.7134 -1.3365 -0.1952
 2827TIP3    H230117   0.311   1.438   2.089  1.8101 -0.9319 -1.5339
 2828TIP3   OH230118   1.430   2.259   1.553  0.5078 -0.1114  0.3095
 2828TIP3    H130119   1.440   2.253   1.648  1.6732  1.1733  0.2894
 2828TIP3    H230120   1.430   2.352   1.534 -2.1773 -0.2366 -0.7506
 2829TIP3   OH230121   0.537   4.797   8.584 -0.0910  0.1884 -0.5221
 2829TIP3    H130122   0.600   4.847   8.532 -1.1236  0.5931 -1.4392
 2829TIP3    H230123   0.509   4.857   8.653  1.7148 -0.5404  0.9345
 2830TIP3   OH230124   0.194   1.889   8.050  0.4180 -0.5216 -0.4995
 2830TIP3    H130125   0.270   1.933   8.014  0.9914 -0.6952  0.4617
 2830TIP3    H230126   0.228   1.836   8.123 -0.6431 -0.3762  0.1339
 2831TIP3   OH230127   4.112   3.760   8.149 -0.0547  0.5327  0.6615
 2831TIP3    H130128   4.187   3.702   8.136  1.6260  3.0897 -2.8470
 2831TIP3    H230129   4.062   3.719   8.220  2.1254 -3.8316  0.0501
 2832TIP3   OH230130   4.438   0.018   1.881 -0.3892 -0.3729 -0.1366
 2832TIP3    H130131   4.529   0.012   1.910 -0.4561  1.4572  0.5266
 2832TIP3    H230132   4.441   0.068   1.800 -0.8310  0.0004  0.0699
 2833TIP3   OH230133   1.281   5.090   1.374  0.2785 -0.0372 -0.6127
 2833TIP3    H130134   1.210   5.026   1.368 -0.0378  0.3877 -1.6760
 2833TIP3    H230135   1.290   5.107   1.467  0.0800 -1.2996 -0.3418
 2834TIP3   OH230136   6.175   1.814   0.300  0.2238 -0.2232 -0.4198
 2834TIP3    H130137   6.088   1.811   0.260  1.1611  2.3482 -3.0387
 2834TIP3    H230138   6.169   1.884   0.365  0.4819  0.5097 -1.1640
 2835TIP3   OH230139   0.355   2.877   0.534 -0.5089 -0.0525 -0.0220
 2835TIP3    H130140   0.410   2.951   0.511 -0.5057  0.2366  0.9023
 2835TIP3    H230141   0.309   2.904   0.613 -2.6428  0.0477 -1.2256
 2836TIP3   OH230142   1.752   0.556   7.318  0.2664 -0.0403 -0.1274
 2836TIP3    H130143   1.843   0.569   7.293  0.2846  4.6065  1.5122
 2836TIP3    H230144   1.757   0.516   7.405  0.8863  1.8937  0.7664
 2837TIP3   OH230145   0.251   1.878   1.975  0.1328 -0.2434 -0.5053
 2837TIP3    H130146   0.322   1.866   2.037 -0.4152  0.2783  0.2405
 2837TIP3    H230147   0.172   1.882   2.029 -0.3753  0.0473 -1.2492
 2838TIP3   OH230148   4.748   0.313   2.402  0.3737 -0.0140 -0.2691
 2838TIP3    H130149   4.817   0.379   2.398 -0.4332  0.8896  0.2574
 2838TIP3    H230150   4.688   0.336   2.331  0.2612 -0.3890 -0.2997
 2839TIP3   OH230151   4.599   0.246   7.688  0.1721  0.5062  0.0982
 2839TIP3    H130152   4.553   0.164   7.668 -0.3751  1.0275 -0.8654
 2839TIP3    H230153   4.645   0.268   7.607 -1.1735  2.0922 -0.2913
 2840TIP3   OH230154   5.315   0.090   7.126  0.1440 -0.2127 -0.1152
 2840TIP3    H130155   5.284   0.033   7.056 -1.2399  0.3348  0.0064
 2840TIP3    H230156   5.246   0.157   7.135  0.2347 -0.3020  1.8015
 2841TIP3   OH230157   1.782   6.209   6.924 -0.2017  0.3757  0.1033
 2841TIP3    H130158   1.857   6.197   6.866 -1.0215 -3.2056 -0.4812
 2841TIP3    H230159   1.807   6.281   6.982  2.6129  0.9402 -1.6209
 2842TIP3   OH230160   1.469   2.817   7.894 -0.1967 -0.0764  0.4340
 2842TIP3    H130161   1.407   2.744   7.895  1.1225 -1.2366  1.1727
 2842TIP3    H230162   1.506   2.816   7.806  0.2903 -0.7263  0.6407
 2843TIP3   OH230163   5.660   0.538   8.667  0.4783  0.1768  0.2079
 2843TIP3    H130164   5.712   0.474   8.619 -0.3174 -0.5674  0.3002
 2843TIP3    H230165   5.570   0.504   8.661  0.1860  0.7713  1.0912
 2844TIP3   OH230166   6.487   1.527   2.372  0.1480 -0.3254  0.1661
 2844TIP3    H130167   6.537   1.607   2.358 -1.0274  0.2553 -0.9557
 2844TIP3    H230168   6.416   1.553   2.431 -0.8120 -0.2645 -0.9756
 2845TIP3   OH230169   1.500   2.006   8.551  0.2824  0.2254  0.1099
 2845TIP3    H130170   1.571   1.943   8.559 -0.2300 -0.7685 -2.1956
 2845TIP3    H230171   1.537   2.079   8.502 -0.5703 -0.9709 -2.4734
 2846TIP3   OH230172   4.567   0.729   8.130 -0.0512  0.4277 -0.0983
 2846TIP3    H130173   4.550   0.635   8.135  0.6011  0.2743 -0.5757
 2846TIP3    H230174   4.629   0.746   8.200 -1.2404  0.7707  0.8933
 2847TIP3   OH230175   5.603   0.968   8.724 -0.3575 -0.8459 -0.1719
 2847TIP3    H130176   5.530   0.937   8.777 -1.1779  1.8345  0.4324
 2847TIP3    H230177   5.565   0.988   8.639 -0.0953 -0.5284 -0.2195
 2848TIP3   OH230178   5.204   4.360   0.897 -0.6177  0.4445 -0.2274
 2848TIP3    H130179   5.179   4.314   0.977 -0.6304  0.4608 -0.2222
 2848TIP3    H230180   5.193   4.452   0.917  0.2553  0.4957  0.0573
 2849TIP3   OH230181   2.038   4.965   6.964 -0.1143  0.1416 -0.0948
 2849TIP3    H130182   1.973   4.943   6.897 -0.8719 -0.6157  0.8593
 2849TIP3    H230183   2.063   4.881   7.002  0.1455  0.5629  0.7033
 2850TIP3   OH230184   0.919   1.391   0.724  0.0865  0.1317  0.6353
 2850TIP3    H130185   0.976   1.394   0.801  0.1885  0.9270  0.5431
 2850TIP3    H230186   0.831   1.408   0.758 -0.1290 -1.1772  0.7886
 2851TIP3   OH230187   2.219   1.454   8.397  0.1475 -0.2053 -0.8017
 2851TIP3    H130188   2.170   1.467   8.316 -0.1768 -1.6037 -0.8530
 2851TIP3    H230189   2.160   1.485   8.466  0.1017  0.2330 -1.0365
 2852TIP3   OH230190   4.015   2.289   0.269  0.3542  0.6075 -0.0364
 2852TIP3    H130191   3.967   2.271   0.349 -0.7401  0.4658 -0.7118
 2852TIP3    H230192   3.998   2.382   0.251  2.5619  1.3225  1.1640
 2853TIP3   OH230193   1.030   1.261   7.006  0.1402  0.7814 -0.0519
 2853TIP3    H130194   0.976   1.250   6.928  0.4035  0.2197 -0.1610
 2853TIP3    H230195   1.085   1.182   7.009  1.0648  1.4057 -0.0305
 2854TIP3   OH230196   0.143   3.898   8.011  0.1071  0.5678 -0.7272
 2854TIP3    H130197   0.098   3.895   7.927 -2.7440  0.4362  0.6491
 2854TIP3    H230198   0.076   3.929   8.072  0.8908 -2.6305  2.0918
 2855TIP3   OH230199   1.818   2.740   6.891  0.2250  0.1018  0.0078
 2855TIP3    H130200   1.855   2.678   6.829 -1.5269  1.2733 -2.3928
 2855TIP3    H230201   1.760   2.687   6.946  1.2431 -0.8451  0.2116
 2856TIP3   OH230202   2.898   4.842   1.213 -0.1797  0.1102  0.4414
 2856TIP3    H130203   2.976   4.826   1.161  1.5698  3.0459  1.9298
 2856TIP3    H230204   2.931   4.865   1.300 -2.8862 -2.0827  2.2488
 2857TIP3   OH230205   6.538   2.282   2.201  0.1968 -0.2158  0.1530
 2857TIP3    H130206   6.612   2.325   2.160 -0.4664 -1.3979 -2.4658
 2857TIP3    H230207   6.570   2.194   2.222 -0.3781 -0.6528 -0.7673
 2858TIP3   OH230208   3.691   1.747   8.504  0.1089  1.2658 -0.4252
 2858TIP3    H130209   3.741   1.761   8.584  0.7520  0.6824 -0.7212
 2858TIP3    H230210   3.669   1.654   8.506 -0.4102  1.3800 -0.6231
 2859TIP3   OH230211   5.486   0.885   0.742 -0.0209  0.8160 -0.0967
 2859TIP3    H130212   5.403   0.931   0.747 -0.9261 -0.8193  0.7543
 2859TIP3    H230213   5.481   0.836   0.659 -1.1983 -1.5071  1.2484
 2860TIP3   OH230214   0.698   3.135   9.077 -0.5518 -0.6454  0.1500
 2860TIP3    H130215   0.676   3.223   9.108 -0.8578 -0.5786 -0.2584
 2860TIP3    H230216   0.794   3.134   9.077 -0.5065 -1.0034  2.0935
 2861TIP3   OH230217   6.226   2.610   0.573  0.0593  0.1684  0.0074
 2861TIP3    H130218   6.163   2.613   0.645 -0.1510 -1.5034 -0.0709
 2861TIP3    H230219   6.172   2.599   0.495  0.3929 -0.2148 -0.1723
 2862TIP3   OH230220   2.300   6.682   0.927  0.0917 -0.0168  0.5026
 2862TIP3    H130221   2.343   6.767   0.940  0.3486 -0.0407 -0.1353
 2862TIP3    H230222   2.218   6.689   0.975  0.2781  0.4624  0.7572
 2863TIP3   OH230223   2.101   5.266   8.598 -0.5896 -0.2597 -0.0191
 2863TIP3    H130224   2.196   5.257   8.608 -0.8091 -2.1981  0.6543
 2863TIP3    H230225   2.076   5.327   8.668  0.2123  0.8130 -0.6322
 2864TIP3   OH230226   1.227   1.373   8.932  0.2634  0.6067  0.2910
 2864TIP3    H130227   1.240   1.345   9.023  0.1694 -1.9713 -0.4255
 2864TIP3    H230228   1.266   1.460   8.929  4.2757 -0.9020  1.7949
 2865TIP3   OH230229   5.818   4.626   7.017  0.4688 -0.0310 -0.5920
 2865TIP3    H130230   5.874   4.656   6.946  0.1389 -0.9416 -1.2640
 2865TIP3    H230231   5.742   4.587   6.972  1.1614 -2.4516  0.1617
 2866TIP3   OH230232   1.322   0.706   7.941 -0.2117  0.2448  0.0369
 2866TIP3    H130233   1.282   0.619   7.933 -2.1075  1.2146 -2.8860
 2866TIP3    H230234   1.275   0.747   8.013 -0.9041 -0.4116 -0.0188
 2867TIP3   OH230235   0.769   0.588   8.057 -0.4792 -0.1676 -0.4466
 2867TIP3    H130236   0.779   0.493   8.068 -0.8991 -0.2376 -0.6566
 2867TIP3    H230237   0.827   0.625   8.123 -0.2111 -0.5707 -0.4492
 2868TIP3   OH230238   5.870   4.533   7.531  0.1269  0.2456 -0.3131
 2868TIP3    H130239   5.937   4.468   7.511 -0.6241 -0.4556 -0.5952
 2868TIP3    H230240   5.849   4.573   7.447  1.3774  1.6617  0.0119
 2869TIP3   OH230241   4.712   1.973   0.199  0.0784  0.7806 -0.2773
 2869TIP3    H130242   4.700   1.912   0.127 -0.8394  0.9209 -0.2449
 2869TIP3    H230243   4.744   1.918   0.272  1.9419  0.7806 -1.0312
 2870TIP3   OH230244   4.184   6.579   0.017 -0.3248 -0.0953 -0.1213
 2870TIP3    H130245   4.258   6.542   0.064 -0.1281 -0.5105 -0.7587
 2870TIP3    H230246   4.144   6.505  -0.029 -2.1242 -0.2141  1.4857
 2871TIP3   OH230247   1.808   5.163   0.158 -0.1423 -0.1924 -0.7689
 2871TIP3    H130248   1.723   5.139   0.196 -1.7129  3.5958 -1.4271
 2871TIP3    H230249   1.799   5.143   0.064 -1.4452  2.4732 -1.3155
 2872TIP3   OH230250   3.871   5.498   1.535  0.0808 -0.0989 -0.0417
 2872TIP3    H130251   3.860   5.529   1.625  1.4702  0.1531  0.0593
 2872TIP3    H230252   3.964   5.478   1.528  0.0936  0.3743 -1.5811
 2873TIP3   OH230253   5.480   3.797   1.559 -0.4368  0.4664 -0.3615
 2873TIP3    H130254   5.395   3.760   1.534 -0.1487 -0.3188 -0.2072
 2873TIP3    H230255   5.544   3.739   1.519  0.0356  1.2463 -0.7482
 2874TIP3   OH230256   3.855   6.643   8.635 -0.2760 -0.0171 -0.2078
 2874TIP3    H130257   3.844   6.609   8.546 -0.7143  0.2509 -0.2585
 2874TIP3    H230258   3.924   6.709   8.627 -0.1743 -0.1349 -0.3105
 2875TIP3   OH230259   4.262   2.660   2.052 -0.0473  0.1601 -0.2728
 2875TIP3    H130260   4.293   2.747   2.027  2.3360 -0.8240 -0.9559
 2875TIP3    H230261   4.209   2.631   1.977  1.4794 -0.0723 -1.2974
 2876TIP3   OH230262   6.083   5.292   1.206 -0.0891  0.3800 -0.2865
 2876TIP3    H130263   6.125   5.323   1.125  0.4390 -2.2425 -1.1079
 2876TIP3    H230264   6.151   5.240   1.249 -0.7031  0.8834  1.3812
 2877TIP3   OH230265   0.294   3.575   1.141  0.0831  0.0900 -0.3311
 2877TIP3    H130266   0.358   3.511   1.111  0.3241  0.9396 -1.7138
 2877TIP3    H230267   0.332   3.611   1.221  2.1067  1.6044 -1.8699
 2878TIP3   OH230268   1.959   6.439   8.149  0.2996 -0.4762 -0.0908
 2878TIP3    H130269   1.933   6.501   8.081 -0.4764 -1.8549 -1.1076
 2878TIP3    H230270   1.888   6.374   8.151  0.4498 -0.6442  1.8458
 2879TIP3   OH230271   4.611   0.440   7.295 -0.1486 -0.3319  0.2131
 2879TIP3    H130272   4.531   0.451   7.243  0.0818  3.1185  0.3671
 2879TIP3    H230273   4.679   0.427   7.229 -0.3492  0.5735 -0.2021
 2880TIP3   OH230274   0.745   6.040   1.668  0.5737 -0.4402 -0.4664
 2880TIP3    H130275   0.829   6.070   1.703 -0.2469  0.5975  0.6723
 2880TIP3    H230276   0.679   6.095   1.711 -0.5620  0.4837 -3.1788
 2881TIP3   OH230277   3.217   0.045   0.933  0.6181 -0.0191  0.2817
 2881TIP3    H130278   3.288  -0.019   0.938  0.4461 -0.1115  2.0000
 2881TIP3    H230279   3.261   0.130   0.938  0.6155 -0.0786  1.5184
 2882TIP3   OH230280   4.622   3.420   1.287  0.6250 -0.3650 -0.0773
 2882TIP3    H130281   4.532   3.449   1.275  1.0172 -0.1183 -2.9905
 2882TIP3    H230282   4.617   3.324   1.288  0.3993 -0.3734 -1.1394
 2883TIP3   OH230283   0.992   0.087   0.089  0.3093 -0.1467 -0.3551
 2883TIP3    H130284   1.047   0.009   0.080  0.6214  0.0753 -0.3609
 2883TIP3    H230285   1.042   0.145   0.146 -0.7884 -0.7525  1.2899
 2884TIP3   OH230286   1.969   2.219   6.873  0.0143  0.0675 -0.6755
 2884TIP3    H130287   1.934   2.147   6.820 -0.0165 -0.9116  0.6166
 2884TIP3    H230288   2.064   2.215   6.860  0.5332 -2.9636  2.5055
 2885TIP3   OH230289   4.841   4.538   0.841  0.2552  0.1266 -0.4363
 2885TIP3    H130290   4.936   4.536   0.835  0.2461  1.0419 -0.9829
 2885TIP3    H230291   4.817   4.629   0.828 -0.6450  0.0704  0.6724
 2886TIP3   OH230292   3.370   1.290   7.368 -0.6649 -0.1170 -0.5510
 2886TIP3    H130293   3.282   1.306   7.336 -1.1331  1.6640  1.4608
 2886TIP3    H230294   3.384   1.196   7.353 -1.8022  0.0692 -3.3745
 2887TIP3   OH230295   4.239   6.399   0.423  0.0605 -0.5075  0.5471
 2887TIP3    H130296   4.192   6.339   0.365 -0.5605  0.7088 -0.2862
 2887TIP3    H230297   4.216   6.486   0.389 -0.4029  0.2691  2.7026
 2888TIP3   OH230298   5.759   4.619   0.130 -0.3541  0.2487 -0.1078
 2888TIP3    H130299   5.731   4.570   0.052 -1.5885  0.9057 -0.0991
 2888TIP3    H230300   5.845   4.654   0.106 -0.3501 -0.2527 -0.8662
 2889TIP3   OH230301   2.909   3.864   7.430 -0.7016 -1.1946  0.5871
 2889TIP3    H130302   2.818   3.835   7.421 -0.1362 -2.8066 -0.4274
 2889TIP3    H230303   2.957   3.784   7.451  0.5277 -0.4164  0.8240
 2890TIP3   OH230304   0.304   5.310   2.194  0.7289  0.0105  0.2893
 2890TIP3    H130305   0.376   5.248   2.207  1.6053  1.0160  0.3781
 2890TIP3    H230306   0.278   5.297   2.103  0.8231 -0.5603  0.3380
 2891TIP3   OH230307   3.584   0.277   7.884  0.0618 -0.1169  0.4080
 2891TIP3    H130308   3.561   0.342   7.818  1.5947 -0.0930 -0.1508
 2891TIP3    H230309   3.582   0.193   7.837  2.6638  0.0560 -0.1438
 2892TIP3   OH230310   0.143   0.182   7.753  0.3434 -0.5854 -0.1618
 2892TIP3    H130311   0.106   0.254   7.702  2.6308  0.3881 -0.5722
 2892TIP3    H230312   0.074   0.115   7.754 -1.2646  0.9678 -1.0866
 2893TIP3   OH230313   0.269   0.116   1.940 -0.0157  0.8429  0.0033
 2893TIP3    H130314   0.270   0.170   1.862 -1.0205 -0.2540 -0.7911
 2893TIP3    H230315   0.345   0.146   1.990  1.0638  1.0957 -1.7075
 2894TIP3   OH230316   3.213   4.407   7.328  0.1170  0.3412 -0.3708
 2894TIP3    H130317   3.138   4.420   7.387  0.1495 -1.1923  0.0619
 2894TIP3    H230318   3.270   4.346   7.375  1.1082  0.6115 -1.1787
 2895TIP3   OH230319   0.039   2.381   0.751 -0.4555 -0.4268  0.0781
 2895TIP3    H130320   0.087   2.458   0.781  1.5176 -0.1910 -3.1821
 2895TIP3    H230321   0.056   2.315   0.817  0.1380  1.1304  1.5547
 2896TIP3   OH230322   0.019   0.549   8.936  0.0509 -0.1992 -0.1674
 2896TIP3    H130323   0.030   0.578   8.845 -0.6320 -1.5467 -0.7119
 2896TIP3    H230324   0.074   0.472   8.944 -0.5913 -0.6275  0.2796
 2897TIP3   OH230325   3.883   4.547   0.127 -0.2151 -0.6827  0.0725
 2897TIP3    H130326   3.927   4.632   0.130 -1.5319  0.0357 -0.2553
 2897TIP3    H230327   3.859   4.530   0.218  0.2928 -0.8488  0.1804
 2898TIP3   OH230328   6.332   5.841   0.227 -0.1368 -0.0729  0.2484
 2898TIP3    H130329   6.333   5.859   0.321 -1.0730  0.7952  0.1084
 2898TIP3    H230330   6.337   5.927   0.186  0.1631 -0.4366 -0.5028
 2899TIP3   OH230331   0.791   4.713   1.533 -0.4145 -0.2499  0.1330
 2899TIP3    H130332   0.856   4.783   1.532 -1.2565  0.5532 -1.3599
 2899TIP3    H230333   0.712   4.753   1.498 -1.1812 -1.7263  0.0867
 2900TIP3   OH230334   3.647   2.140   1.111 -0.4606 -0.3890 -0.2566
 2900TIP3    H130335   3.718   2.132   1.174  0.7253 -1.0558 -1.6281
 2900TIP3    H230336   3.613   2.051   1.101  0.0685 -0.4798 -1.3337
 2901TIP3   OH230337   4.070   4.295   1.564  0.6846  0.6198 -0.5923
 2901TIP3    H130338   4.050   4.247   1.645 -0.3061 -1.9170 -2.2048
 2901TIP3    H230339   4.147   4.250   1.529  0.5768  1.1147 -1.4891
 2902TIP3   OH230340   5.363   0.223   0.076 -0.4742  0.1270 -0.4044
 2902TIP3    H130341   5.309   0.282   0.024  0.5991 -0.1345 -1.8668
 2902TIP3    H230342   5.335   0.135   0.050 -0.2446 -0.0058 -0.2066
 2903TIP3   OH230343   2.962   1.191   9.109 -0.1070 -0.1998  0.0809
 2903TIP3    H130344   2.973   1.096   9.105  0.3112 -0.2288  1.5229
 2903TIP3    H230345   2.891   1.204   9.172  0.6027  0.4790  0.7541
 2904TIP3   OH230346   4.868   4.460   1.855 -0.2571 -0.7055 -0.4497
 2904TIP3    H130347   4.853   4.498   1.769 -0.5373 -1.5183 -0.7723
 2904TIP3    H230348   4.930   4.389   1.839  0.0031 -0.6041  0.0872
 2905TIP3   OH230349   5.681   1.588   8.586  0.0068  0.8598  0.5101
 2905TIP3    H130350   5.620   1.598   8.513 -0.4065  1.4365  0.9213
 2905TIP3    H230351   5.632   1.536   8.650  0.3165  0.4751  0.4348
 2906TIP3   OH230352   4.413   1.333   7.300 -0.8690 -0.0571  0.2648
 2906TIP3    H130353   4.326   1.372   7.299 -0.0564  1.8911  0.8553
 2906TIP3    H230354   4.461   1.380   7.231 -0.7120 -2.3044 -1.2924
 2907TIP3   OH230355   1.752   6.221   8.235 -0.2742  0.3104 -0.1754
 2907TIP3    H130356   1.769   6.132   8.265 -1.4701 -0.1976 -0.9333
 2907TIP3    H230357   1.702   6.261   8.305  2.2290  1.2129  1.2363
 2908TIP3   OH230358   1.594   4.584   7.320 -0.0065 -0.5270 -0.1083
 2908TIP3    H130359   1.531   4.519   7.288 -1.6764 -0.1255  2.0977
 2908TIP3    H230360   1.624   4.629   7.241 -2.3031 -0.9248 -1.3027
 2909TIP3   OH230361   5.685   2.511   7.031  0.3444 -0.5939  0.2970
 2909TIP3    H130362   5.686   2.417   7.046  0.3401 -0.8233 -1.0635
 2909TIP3    H230363   5.627   2.523   6.956  2.0482  0.2714 -0.9456
 2910TIP3   OH230364   5.376   4.060   7.955 -0.8239 -0.0451  0.2646
 2910TIP3    H130365   5.294   4.091   7.993 -1.3045  0.4335 -1.1162
 2910TIP3    H230366   5.423   4.140   7.932 -0.8137 -0.3104 -0.6774
 2911TIP3   OH230367   4.160   0.659   7.961 -0.1269 -0.3557 -0.1123
 2911TIP3    H130368   4.145   0.729   7.896 -1.5467  0.1488  0.7116
 2911TIP3    H230369   4.208   0.703   8.032 -1.3956 -0.0716  0.5998
 2912TIP3   OH230370   0.586   4.571   8.861 -0.2965 -0.5408 -0.4516
 2912TIP3    H130371   0.540   4.554   8.778 -1.1194  0.0746 -0.1275
 2912TIP3    H230372   0.590   4.485   8.903 -1.2665 -0.5902 -0.4339
 2913TIP3   OH230373   3.060   4.272   1.745  0.3540 -0.0951  0.2452
 2913TIP3    H130374   3.076   4.344   1.805 -0.6475 -0.2022  0.6482
 2913TIP3    H230375   3.107   4.197   1.783  1.6638  0.3967 -0.3410
 2914TIP3   OH230376   2.963   1.178   2.022  0.2737  0.0375 -0.3679
 2914TIP3    H130377   2.967   1.234   1.944 -0.1367  0.8712  0.1956
 2914TIP3    H230378   3.045   1.194   2.068 -0.5597  1.5311  0.6819
 2915TIP3   OH230379   4.855   4.383   0.389  0.0331 -0.3200  0.2651
 2915TIP3    H130380   4.762   4.399   0.376 -0.0774 -0.6901  0.5742
 2915TIP3    H230381   4.886   4.348   0.305  0.3201  1.6217 -0.4882
 2916TIP3   OH230382   0.273   6.503   0.212  0.0703  0.1761  0.2336
 2916TIP3    H130383   0.206   6.571   0.206  0.1055  0.1308 -0.7354
 2916TIP3    H230384   0.356   6.549   0.198  0.1130 -0.0298 -0.1878
 2917TIP3   OH230385   0.838   5.596   7.147 -0.0893  0.1879  0.6526
 2917TIP3    H130386   0.774   5.529   7.121 -0.5774  0.5548  0.9002
 2917TIP3    H230387   0.880   5.559   7.225  0.6097 -0.4302 -0.0024
 2918TIP3   OH230388   5.446   1.093   1.037 -0.6627  0.0305  0.0181
 2918TIP3    H130389   5.515   1.146   1.076  1.0545 -0.9613 -1.5145
 2918TIP3    H230390   5.445   1.013   1.090 -0.9246  0.2059  0.2815
 2919TIP3   OH230391   2.490   1.281   7.651  0.2253 -0.4435  0.0506
 2919TIP3    H130392   2.476   1.253   7.560 -1.4671 -1.9522  0.7241
 2919TIP3    H230393   2.506   1.375   7.644  0.4715 -0.5767 -1.8381
 2920TIP3   OH230394   0.191   3.455   6.851 -0.2875  0.9621 -0.1084
 2920TIP3    H130395   0.174   3.371   6.894  0.9288  1.3664  1.2143
 2920TIP3    H230396   0.139   3.451   6.770 -0.6108 -0.8661  0.1456
 2921TIP3   OH230397   1.360   4.402   6.874 -0.0224  0.1552  0.3824
 2921TIP3    H130398   1.323   4.434   6.791  0.5460 -1.0699 -0.3792
 2921TIP3    H230399   1.347   4.307   6.870  0.2758  0.0585  1.5738
 2922TIP3   OH230400   3.573   2.217   6.492  0.2893 -0.3506  0.2853
 2922TIP3    H130401   3.580   2.121   6.490  0.0601 -0.3613 -0.6411
 2922TIP3    H230402   3.497   2.236   6.437  0.1696  0.3547  0.6901
 2923TIP3   OH230403   5.159   0.166   2.012 -0.1469 -0.1933  0.0784
 2923TIP3    H130404   5.224   0.117   2.064 -0.7227  0.8394  1.8845
 2923TIP3    H230405   5.211   0.225   1.959  0.4809 -1.4011 -0.7013
 2924TIP3   OH230406   4.650   5.723   8.756 -0.2785  0.4122  0.8400
 2924TIP3    H130407   4.709   5.658   8.794  1.6589  0.3993 -1.9338
 2924TIP3    H230408   4.681   5.806   8.791  1.4988  0.4043 -0.5348
 2925TIP3   OH230409   5.526   1.652   2.391 -0.0482  0.0690  0.0626
 2925TIP3    H130410   5.472   1.660   2.312 -0.4639 -0.1759  0.3170
 2925TIP3    H230411   5.474   1.598   2.450  1.0469 -1.3372 -0.1891
 2926TIP3   OH230412   1.743   3.030   8.115  0.1525  0.4835 -0.2081
 2926TIP3    H130413   1.765   2.979   8.038 -0.1902  0.2232 -0.1342
 2926TIP3    H230414   1.728   3.119   8.082  1.3214  0.6801 -0.2613
 2927TIP3   OH230415   6.237   6.417   7.561  0.1736  0.3278  0.0557
 2927TIP3    H130416   6.262   6.401   7.470 -1.6241 -1.1345 -0.2314
 2927TIP3    H230417   6.151   6.377   7.570  1.1889 -1.5649  2.9884
 2928TIP3   OH230418   1.999   2.141   8.189  0.4242  0.0756 -0.1808
 2928TIP3    H130419   2.002   2.055   8.147  0.6338 -0.6423  1.2466
 2928TIP3    H230420   2.088   2.157   8.219 -0.0145 -0.1081  1.2761
 2929TIP3   OH230421   1.329   3.821   7.134 -0.1306  0.0413 -0.2586
 2929TIP3    H130422   1.296   3.909   7.155  1.2107  0.1688  1.4937
 2929TIP3    H230423   1.407   3.837   7.082 -1.2243 -0.2179 -2.0795
 2930TIP3   OH230424   1.940   4.066   0.753  0.0157  0.0757 -0.2048
 2930TIP3    H130425   2.008   4.024   0.701  0.6018  0.3394  0.3306
 2930TIP3    H230426   1.875   3.997   0.767 -0.4515  0.1759 -1.7852
 2931TIP3   OH230427   0.364   3.385   0.711 -0.4302  0.4236 -0.2292
 2931TIP3    H130428   0.398   3.423   0.792 -1.7174 -0.3235  0.6891
 2931TIP3    H230429   0.442   3.370   0.658  0.5476  0.0894  1.2363
 2932TIP3   OH230430   5.269   3.330   7.961 -0.3384 -0.8520  0.8364
 2932TIP3    H130431   5.302   3.370   7.881  1.0985  2.7115  2.9675
 2932TIP3    H230432   5.194   3.384   7.986 -0.4706 -1.5862  2.1326
 2933TIP3   OH230433   4.641   5.985   8.834  0.0474  0.6848 -0.3437
 2933TIP3    H130434   4.696   6.019   8.904  1.3756 -0.9253 -0.5375
 2933TIP3    H230435   4.620   6.062   8.780 -1.5805  2.0929  2.1019
 2934TIP3   OH230436   2.606   3.382   0.254  0.5277 -0.5763  0.2885
 2934TIP3    H130437   2.625   3.357   0.164 -0.0661 -0.5391  0.1483
 2934TIP3    H230438   2.662   3.458   0.270  0.7468 -0.6754  0.0056
 2935TIP3   OH230439   2.182   5.437   8.324 -0.1660 -0.8389  0.0985
 2935TIP3    H130440   2.119   5.365   8.325 -1.3240  0.1341  0.4491
 2935TIP3    H230441   2.164   5.486   8.404  0.3823  0.0213 -0.2864
 2936TIP3   OH230442   6.448   5.761   1.632  0.1039 -0.1835  0.5747
 2936TIP3    H130443   6.525   5.803   1.672 -0.7527  0.4568  1.6008
 2936TIP3    H230444   6.483   5.719   1.553  1.4818  0.2174  0.9285
 2937TIP3   OH230445   3.097   0.651   7.402 -0.8641  0.0479 -0.1291
 2937TIP3    H130446   3.064   0.582   7.461 -1.4842 -0.8259 -1.4309
 2937TIP3    H230447   3.179   0.616   7.368  0.6839  1.5269  1.8659
 2938TIP3   OH230448   2.596   0.701   1.974 -0.3991  0.8291 -0.3714
 2938TIP3    H130449   2.531   0.716   2.043  1.9081 -2.6399  2.9503
 2938TIP3    H230450   2.659   0.772   1.984  0.0944  0.1948  1.4881
 2939TIP3   OH230451   4.378   2.575   1.716 -0.0371 -0.4689 -0.1706
 2939TIP3    H130452   4.390   2.618   1.631  0.7555 -0.7590 -0.2161
 2939TIP3    H230453   4.300   2.615   1.753 -1.4494 -1.5578 -1.8158
 2940TIP3   OH230454   0.929   4.047   7.111  0.2500  0.0804  0.0017
 2940TIP3    H130455   0.976   4.030   7.030  1.2322 -0.2134  0.6073
 2940TIP3    H230456   0.866   3.976   7.119 -0.0682  0.2875 -0.6527
 2941TIP3   OH230457   0.988   6.065   2.714  0.1965 -0.4971 -0.6587
 2941TIP3    H130458   0.948   5.979   2.698  0.2150 -0.6219 -0.0823
 2941TIP3    H230459   1.079   6.045   2.736 -0.2988 -0.5413  1.6085
 2942TIP3   OH230460   3.338   2.624   0.824 -0.3456 -0.0717  0.3775
 2942TIP3    H130461   3.355   2.691   0.757  2.5095 -1.7494 -0.7747
 2942TIP3    H230462   3.251   2.591   0.803 -1.8956  3.2022  1.0333
 2943TIP3   OH230463   0.997   4.617   0.605  0.0026  0.6575  0.0547
 2943TIP3    H130464   0.958   4.649   0.524  0.6941 -0.7919 -0.9091
 2943TIP3    H230465   1.089   4.604   0.582 -0.2161 -1.8416  0.3739
 2944TIP3   OH230466   5.967   3.808   6.809 -0.3845 -0.0081  0.4495
 2944TIP3    H130467   5.897   3.754   6.844 -1.3210  0.8609 -0.0172
 2944TIP3    H230468   6.020   3.831   6.885  0.8241 -2.6240  0.4797
 2945TIP3   OH230469   2.870   5.540   2.357 -0.1231 -0.0038 -0.1437
 2945TIP3    H130470   2.787   5.578   2.385 -0.3629 -0.9911  0.5375
 2945TIP3    H230471   2.845   5.459   2.313  0.5300 -0.8947  1.0829
 2946TIP3   OH230472   0.193   3.855   0.108 -0.4546 -0.3547  0.0265
 2946TIP3    H130473   0.099   3.862   0.125 -0.5219  2.9826 -1.0599
 2946TIP3    H230474   0.234   3.888   0.188 -0.2790 -0.1368 -0.1524
 2947TIP3   OH230475   0.165   6.279   0.315 -0.2312 -0.2314 -0.0564
 2947TIP3    H130476   0.234   6.336   0.282 -1.2026  1.1785  0.2175
 2947TIP3    H230477   0.092   6.339   0.333 -1.1202 -1.5079  0.7528
 2948TIP3   OH230478   3.879   4.954   1.102 -0.3312  0.0911  0.5170
 2948TIP3    H130479   3.901   4.875   1.152 -2.1582 -1.5186 -1.0576
 2948TIP3    H230480   3.835   5.010   1.166 -2.8218 -2.0057  0.8310
 2949TIP3   OH230481   4.450   3.751   1.010  0.0393  0.0315 -0.5649
 2949TIP3    H130482   4.445   3.845   0.989 -1.3254  0.1055 -0.0194
 2949TIP3    H230483   4.374   3.735   1.066  1.4889 -0.9398  1.2173
 2950TIP3   OH230484   0.486   1.936   1.330  0.0853  0.3480  0.5951
 2950TIP3    H130485   0.395   1.906   1.334  0.2557 -0.0775  2.6625
 2950TIP3    H230486   0.520   1.917   1.418  1.1991  3.4908  0.9567
 2951TIP3   OH230487   4.688   4.864   7.004 -0.0487 -0.1613  0.7709
 2951TIP3    H130488   4.681   4.865   6.909  0.8592 -0.6159  0.6926
 2951TIP3    H230489   4.693   4.957   7.029  4.5300  0.0356 -0.0430
 2952TIP3   OH230490   0.078   3.995   1.022  0.2293 -0.5213  0.2601
 2952TIP3    H130491  -0.001   3.941   1.022 -0.2376  0.1257 -0.5167
 2952TIP3    H230492   0.139   3.950   1.080 -0.4419 -1.4320  0.2718
 2953TIP3   OH230493   2.548   4.223   1.268  0.0765  0.0252 -0.2050
 2953TIP3    H130494   2.632   4.259   1.298  0.0778 -0.4268  0.3527
 2953TIP3    H230495   2.502   4.200   1.349 -0.3868 -0.1826 -0.5258
 2954TIP3   OH230496   6.350   0.986   8.273  0.0288  0.1433  0.7507
 2954TIP3    H130497   6.355   1.081   8.269 -1.1282  0.1863 -0.0841
 2954TIP3    H230498   6.422   0.956   8.217 -0.7358  0.5663 -0.5077
 2955TIP3   OH230499   1.481   3.168   8.779  0.6489  0.0980  0.0231
 2955TIP3    H130500   1.390   3.196   8.772  0.8297  1.3712  2.0474
 2955TIP3    H230501   1.527   3.219   8.712  0.4618  2.4876  1.5948
 2956TIP3   OH230502   2.991   0.696   0.517 -0.2388  0.4581  0.3622
 2956TIP3    H130503   2.906   0.694   0.473  0.5801 -0.7590 -1.2405
 2956TIP3    H230504   3.005   0.789   0.536 -1.6313  0.7550  0.0965
 2957TIP3   OH230505   0.766   5.725   8.490 -0.3344  0.0593 -0.2173
 2957TIP3    H130506   0.778   5.820   8.487 -1.8803  0.3649  1.5105
 2957TIP3    H230507   0.811   5.697   8.569 -0.1172 -0.6332 -0.5732
 2958TIP3   OH230508   0.724   3.013   8.053  0.0853  0.5454 -0.0427
 2958TIP3    H130509   0.733   3.081   7.987  0.5854 -0.0190 -0.5738
 2958TIP3    H230510   0.769   3.048   8.130 -0.2162  1.0727 -0.1030
 2959TIP3   OH230511   4.834   2.718   0.523  0.0137 -0.6396 -0.0942
 2959TIP3    H130512   4.782   2.797   0.509  0.6457 -0.3411 -0.8225
 2959TIP3    H230513   4.789   2.671   0.593 -0.4783  0.2680  0.2060
 2960TIP3   OH230514   4.952   3.006   7.878 -0.3662  0.5514  0.0878
 2960TIP3    H130515   4.946   2.911   7.883 -0.6685  0.5144 -0.7417
 2960TIP3    H230516   4.885   3.031   7.814  1.2336  1.1104 -1.4384
 2961TIP3   OH230517   6.471   1.525   8.843 -0.6184 -0.2272  0.4187
 2961TIP3    H130518   6.441   1.531   8.934  1.7829 -1.1670  1.3604
 2961TIP3    H230519   6.508   1.437   8.836 -1.5567 -0.5017 -1.7821
 2962TIP3   OH230520   2.968   2.986   1.776  0.1652  0.1237 -0.9791
 2962TIP3    H130521   2.985   3.037   1.697  0.7839 -0.8308 -1.4791
 2962TIP3    H230522   3.049   2.992   1.827 -0.9237  2.5397  0.6815
 2963TIP3   OH230523   5.264   0.704   1.008  0.2864 -0.6905  0.3174
 2963TIP3    H130524   5.189   0.760   0.984  1.5737  0.7653 -0.4684
 2963TIP3    H230525   5.234   0.615   0.988 -0.5062  0.0381 -2.1139
 2964TIP3   OH230526   4.358   0.413   0.002 -0.3210  0.0594  0.3466
 2964TIP3    H130527   4.365   0.339   0.063 -2.0857 -0.5520 -0.1395
 2964TIP3    H230528   4.309   0.479   0.051  0.3970  0.5480  0.4270
 2965TIP3   OH230529   3.043   5.701   1.653  0.2913  0.3398 -0.2844
 2965TIP3    H130530   3.122   5.754   1.651  0.7671 -0.3628 -0.5709
 2965TIP3    H230531   3.053   5.645   1.729 -0.2714  0.7392  0.0965
 2966TIP3   OH230532   5.245   3.176   1.445 -0.0490  0.1556 -0.0194
 2966TIP3    H130533   5.289   3.205   1.525 -1.4716  1.9255  0.1859
 2966TIP3    H230534   5.168   3.232   1.438 -1.4506 -1.7707 -1.1820
 2967TIP3   OH230535   1.461   6.031   0.113  0.2532  0.1089  0.2570
 2967TIP3    H130536   1.504   6.062   0.192 -0.7187  0.0348  0.8263
 2967TIP3    H230537   1.407   6.104   0.085 -2.2856 -1.0524  1.7695
 2968TIP3   OH230538   2.694   0.348   8.090  0.0400  0.0406  0.1678
 2968TIP3    H130539   2.671   0.256   8.104  2.8335 -0.5794  1.3214
 2968TIP3    H230540   2.789   0.347   8.079  0.2589  2.8770  1.1171
 2969TIP3   OH230541   2.978   4.829   2.380 -0.0368 -0.0451 -0.2417
 2969TIP3    H130542   3.065   4.837   2.340  0.1390  1.3062  0.3452
 2969TIP3    H230543   2.948   4.920   2.390 -1.4168 -0.4849 -0.2119
 2970TIP3   OH230544   0.865   1.818   1.224  0.0501 -0.5036  0.3853
 2970TIP3    H130545   0.912   1.783   1.299  0.7959 -0.2338  0.0509
 2970TIP3    H230546   0.778   1.841   1.259  0.1335 -1.0734  0.9860
 2971TIP3   OH230547   0.674   2.463   1.707  0.3265  0.0505  0.3322
 2971TIP3    H130548   0.714   2.393   1.655  2.3387  1.1250  0.3264
 2971TIP3    H230549   0.704   2.447   1.796  0.2408  0.5052  0.4480
 2972TIP3   OH230550   3.650   3.335   0.914 -0.3909  0.0121  0.0141
 2972TIP3    H130551   3.711   3.271   0.950 -0.5619  0.6059  1.4310
 2972TIP3    H230552   3.568   3.287   0.904 -0.9866  0.3236  2.6231
 2973TIP3   OH230553   1.475   1.881   1.081 -0.1694  0.7646  0.2307
 2973TIP3    H130554   1.564   1.892   1.113 -0.6816  0.5937  1.7876
 2973TIP3    H230555   1.448   1.969   1.056  0.5951  0.7386 -0.7584
 2974TIP3   OH230556   4.804   0.351   0.572 -0.2958 -0.3436 -0.1712
 2974TIP3    H130557   4.731   0.364   0.632 -0.9447 -0.6996 -0.8726
 2974TIP3    H230558   4.790   0.416   0.503 -1.5031 -2.1734 -1.7497
 2975TIP3   OH230559   5.322   0.550   1.728 -0.7398  0.6630  0.8913
 2975TIP3    H130560   5.283   0.627   1.686  0.8012  1.6797  1.2322
 2975TIP3    H230561   5.380   0.514   1.662  0.0524  0.9931  1.3912
 2976TIP3   OH230562   5.803   3.004   8.739  0.6089  0.3848 -0.5315
 2976TIP3    H130563   5.875   2.963   8.786 -0.1092  2.1122  2.3313
 2976TIP3    H230564   5.726   2.954   8.764  0.3694  0.6144 -0.8049
 2977TIP3   OH230565   4.947   2.452   0.521 -0.0407 -0.7102  0.1172
 2977TIP3    H130566   5.037   2.461   0.551 -0.8708 -1.0170  2.9285
 2977TIP3    H230567   4.913   2.542   0.519  0.2453 -0.6029 -0.8657
 2978TIP3   OH230568   5.489   3.008   9.070 -0.4587 -0.1372 -0.3458
 2978TIP3    H130569   5.470   3.014   8.977  0.6135 -1.8080 -0.7094
 2978TIP3    H230570   5.585   3.013   9.076 -0.4922 -0.3827  0.6236
 2979TIP3   OH230571   0.154   3.232   1.120 -0.0059  0.3134 -0.0854
 2979TIP3    H130572   0.111   3.315   1.100 -0.3088 -0.1223 -1.2932
 2979TIP3    H230573   0.102   3.195   1.192 -0.6816  0.5404 -0.4548
 2980TIP3   OH230574   5.778   5.151   8.669 -0.0845 -0.3982 -0.0852
 2980TIP3    H130575   5.812   5.241   8.662  1.2431 -0.7994  0.7654
 2980TIP3    H230576   5.853   5.096   8.645 -0.3779 -1.3092  1.0190
 2981TIP3   OH230577   2.107   6.325   7.088 -0.6395 -0.1007  0.2678
 2981TIP3    H130578   2.164   6.292   7.018 -1.4504 -2.2321  0.5195
 2981TIP3    H230579   2.037   6.372   7.042  0.2701  0.8703 -0.1553
 2982TIP3   OH230580   2.948   0.384   8.700 -0.4265  0.2069  0.5051
 2982TIP3    H130581   2.933   0.290   8.687 -1.0514  0.1602  1.5018
 2982TIP3    H230582   2.922   0.424   8.617  1.1761 -0.6136 -0.4514
 2983TIP3   OH230583   6.107   1.368   1.111 -0.0460  0.0298  0.1691
 2983TIP3    H130584   6.113   1.356   1.206 -0.7078 -1.8046  0.0269
 2983TIP3    H230585   6.025   1.415   1.097  0.4680  1.0579  0.5384
 2984TIP3   OH230586   3.381   3.245   5.981  0.1787 -0.4007 -1.0602
 2984TIP3    H130587   3.328   3.323   5.961 -0.4233 -0.4422  0.2429
 2984TIP3    H230588   3.340   3.208   6.060  1.5956 -0.9694 -0.5553
 2985TIP3   OH230589   5.959   6.540   1.405  0.4758 -0.3998 -0.0848
 2985TIP3    H130590   5.892   6.608   1.393 -0.2430 -1.0851 -0.0194
 2985TIP3    H230591   6.032   6.568   1.349  0.8525  1.2508  1.1269
 2986TIP3   OH230592   4.422   5.160   0.545  0.0935  0.1421  0.4703
 2986TIP3    H130593   4.354   5.223   0.568  0.3179 -0.0461  1.7490
 2986TIP3    H230594   4.504   5.209   0.553  0.1138  0.4883 -1.4850
 2987TIP3   OH230595   0.449   3.239   1.266  0.2799  0.1272 -0.0363
 2987TIP3    H130596   0.413   3.268   1.183 -0.5251  0.3291  0.3693
 2987TIP3    H230597   0.412   3.151   1.278  3.8468 -1.8357 -1.9673
 2988TIP3   OH230598   4.133   6.643   6.883 -0.3115 -0.3455 -0.0586
 2988TIP3    H130599   4.123   6.554   6.849  0.6769 -0.1132 -1.0356
 2988TIP3    H230600   4.198   6.683   6.825 -0.6674  0.9826  0.4305
 2989TIP3   OH230601   5.389   3.180   1.193 -0.1289 -0.1108 -0.2219
 2989TIP3    H130602   5.417   3.267   1.165 -1.1326  0.2771 -0.0602
 2989TIP3    H230603   5.356   3.194   1.282  0.7148 -0.8655  0.2243
 2990TIP3   OH230604   5.130   4.140   8.008  0.2146 -0.2453  0.0771
 2990TIP3    H130605   5.074   4.164   7.934 -0.5927 -1.4851  0.2573
 2990TIP3    H230606   5.097   4.192   8.081 -2.4313 -2.7304  0.8160
 2991TIP3   OH230607   3.229   3.380   6.270 -0.0775 -0.4402  0.3121
 2991TIP3    H130608   3.217   3.422   6.355  1.4422  0.8735 -0.0647
 2991TIP3    H230609   3.184   3.437   6.208  1.3764  0.3048 -0.1099
 2992TIP3   OH230610   5.657   3.338   1.964  0.6416 -0.0316 -0.3015
 2992TIP3    H130611   5.612   3.319   2.046  1.2451 -0.9048 -0.1528
 2992TIP3    H230612   5.723   3.404   1.987 -0.3878  1.0877 -0.4776
 2993TIP3   OH230613   5.448   0.278   1.299  0.0528  0.3977 -0.0946
 2993TIP3    H130614   5.444   0.192   1.342 -0.2421  1.1590  1.4444
 2993TIP3    H230615   5.541   0.291   1.281  0.1530 -0.0209  0.0971
 2994TIP3   OH230616   2.804   0.993   0.266  0.3270 -0.3984 -0.1561
 2994TIP3    H130617   2.860   0.928   0.225 -0.0860 -1.5551  1.0517
 2994TIP3    H230618   2.717   0.953   0.268  0.2841 -0.2935  1.5942
 2995TIP3   OH230619   1.389   4.626   8.350  0.1316 -0.7380 -0.1858
 2995TIP3    H130620   1.368   4.601   8.260 -1.4297  1.4672 -0.5094
 2995TIP3    H230621   1.396   4.721   8.348 -1.5767 -0.4526  2.3175
 2996TIP3   OH230622   5.694   3.319   1.277  0.4473  0.1255 -0.0357
 2996TIP3    H130623   5.632   3.384   1.311 -0.3259  0.3013 -1.6695
 2996TIP3    H230624   5.766   3.371   1.242  0.7340 -0.0007  0.3607
 2997TIP3   OH230625   5.555   2.043   6.578 -0.7769 -0.8801 -0.1648
 2997TIP3    H130626   5.459   2.041   6.574 -0.9501  1.5717  0.8958
 2997TIP3    H230627   5.581   2.091   6.499 -0.5860  0.1879  0.5284
 2998TIP3   OH230628   1.201   4.468   2.193  0.0897 -0.0227  0.1548
 2998TIP3    H130629   1.285   4.422   2.191 -0.3682 -0.8561 -0.1882
 2998TIP3    H230630   1.225   4.561   2.196  1.0221 -0.2637  0.4901
 2999TIP3   OH230631   1.368   1.464   7.948 -0.1426 -0.3346  0.0800
 2999TIP3    H130632   1.335   1.537   7.895  1.2354  1.4219  1.5023
 2999TIP3    H230633   1.299   1.397   7.942 -0.5160  0.1618 -3.0007
 3000TIP3   OH230634   2.073   0.881   6.809  0.1443 -0.1477 -0.1977
 3000TIP3    H130635   2.145   0.911   6.865  0.0411  0.9898 -0.6545
 3000TIP3    H230636   2.004   0.946   6.822 -0.0556 -0.1345 -1.2848
 3001TIP3   OH230637   6.480   0.428   8.232  0.6827  0.2789 -0.1687
 3001TIP3    H130638   6.477   0.358   8.298  1.4446  0.7403  0.3837
 3001TIP3    H230639   6.567   0.467   8.244  0.4753  0.9611 -0.8454
 3002TIP3   OH230640   6.727   5.217   7.484 -0.2361  0.1246 -0.3898
 3002TIP3    H130641   6.803   5.162   7.501 -0.4629 -0.0902 -0.0345
 3002TIP3    H230642   6.652   5.163   7.510 -0.4700  0.5629 -0.1287
 3003TIP3   OH230643   3.985   4.151   8.342 -0.3258  0.3783 -0.0245
 3003TIP3    H130644   4.025   4.217   8.398  0.3320 -0.3929  0.4344
 3003TIP3    H230645   4.047   4.078   8.343 -0.1156  0.4580 -2.0305
 3004TIP3   OH230646   5.532   2.870   1.368  0.0964 -0.3805  0.1660
 3004TIP3    H130647   5.614   2.910   1.337  0.0104 -0.2835  0.0643
 3004TIP3    H230648   5.549   2.851   1.461 -0.5523  1.7987  0.7994
 3005TIP3   OH230649   4.112   3.548   0.851  0.0172 -0.2228 -0.1781
 3005TIP3    H130650   4.089   3.560   0.943 -0.2146  0.6880 -0.3419
 3005TIP3    H230651   4.065   3.469   0.825 -0.6119 -0.0058  0.2666
 3006TIP3   OH230652   4.769   2.999   6.263  0.3317  0.3945  0.0164
 3006TIP3    H130653   4.755   2.941   6.189 -1.1121  0.1051  0.4760
 3006TIP3    H230654   4.834   2.954   6.317  0.0978 -0.2322 -0.2121
 3007TIP3   OH230655   6.390   6.655   7.562 -0.0456 -0.5782 -0.4793
 3007TIP3    H130656   6.451   6.655   7.488  0.3092  1.0419 -0.2229
 3007TIP3    H230657   6.326   6.588   7.540 -0.5908  0.6082 -2.8260
 3008TIP3   OH230658   3.337   4.445   0.215 -0.2179 -0.7243 -0.1268
 3008TIP3    H130659   3.257   4.489   0.244  0.3357  1.1781 -1.3612
 3008TIP3    H230660   3.408   4.506   0.235  0.5478 -0.8516 -2.2037
 3009TIP3   OH230661   4.619   4.434   0.669  0.4141 -0.2644 -0.1720
 3009TIP3    H130662   4.626   4.439   0.765 -2.2115 -0.5592  0.1313
 3009TIP3    H230663   4.628   4.524   0.640 -0.3632  0.0651  0.5485
 3010TIP3   OH230664   1.784   0.595   7.778 -0.2696 -0.6134 -0.4251
 3010TIP3    H130665   1.836   0.544   7.716  1.5826 -0.3952  0.8431
 3010TIP3    H230666   1.759   0.674   7.730  0.5366 -0.7544 -1.1034
 3011TIP3   OH230667   2.492   2.966   0.521 -0.5929  1.0595  0.0240
 3011TIP3    H130668   2.450   3.028   0.580 -1.2340  0.7764 -0.1157
 3011TIP3    H230669   2.467   2.880   0.555  0.4204  0.8733  0.3081
 3012TIP3   OH230670   2.604   1.045   8.541 -0.3224 -0.7744 -0.6082
 3012TIP3    H130671   2.522   1.055   8.493  0.1715 -0.9215 -1.5099
 3012TIP3    H230672   2.623   0.951   8.536 -0.0161 -0.7156 -0.5466
 3013TIP3   OH230673   1.997   3.716   0.227 -0.2407 -0.2103 -0.2953
 3013TIP3    H130674   1.913   3.679   0.251 -0.4665 -1.3518 -2.5784
 3013TIP3    H230675   2.033   3.655   0.162  0.9946  1.7376 -1.5580
 3014TIP3   OH230676   3.036   3.484   1.204  0.1021  0.3490 -0.0377
 3014TIP3    H130677   3.083   3.532   1.136  1.4175 -1.2641 -0.3123
 3014TIP3    H230678   2.997   3.410   1.158  0.6322 -0.5104  0.8656
 3015TIP3   OH230679   2.822   4.369   8.511 -0.2441  0.5014  0.2514
 3015TIP3    H130680   2.756   4.417   8.561 -0.8237  0.6172 -0.6087
 3015TIP3    H230681   2.890   4.350   8.575 -0.8983  0.7733  1.0548
 3016TIP3   OH230682   2.752   3.605   0.232 -0.2858 -0.6385 -0.4951
 3016TIP3    H130683   2.704   3.685   0.207 -0.9168 -1.1834 -1.0767
 3016TIP3    H230684   2.814   3.634   0.298 -1.2411  0.1485  0.0926
 3017TIP3   OH230685   4.244   0.792   0.750 -0.3138 -0.0271  0.3418
 3017TIP3    H130686   4.267   0.837   0.669 -1.1134 -1.6948 -0.8926
 3017TIP3    H230687   4.295   0.711   0.748 -2.9753 -1.8359 -0.4184
 3018TIP3   OH230688   5.619   4.008   7.420  0.3944  0.6093 -0.1474
 3018TIP3    H130689   5.647   4.040   7.334  1.3428 -1.1540 -0.5433
 3018TIP3    H230690   5.530   4.042   7.430  0.0565  0.4144 -2.0671
 3019TIP3   OH230691   6.265   3.623   1.451 -0.6166  0.0117  0.5766
 3019TIP3    H130692   6.260   3.588   1.362 -0.9690  1.0019  0.1859
 3019TIP3    H230693   6.175   3.642   1.475 -0.3693  1.5872  0.3615
 3020TIP3   OH230694   2.361   5.787   0.727  0.1855 -0.5088  0.2559
 3020TIP3    H130695   2.439   5.779   0.673  0.0193 -2.0119  0.1772
 3020TIP3    H230696   2.289   5.798   0.665  0.2845  0.5413  0.3136
 3021TIP3   OH230697   4.909   4.901   2.710 -0.7255 -0.0250 -0.1795
 3021TIP3    H130698   4.838   4.873   2.768 -1.5764  0.6780 -0.8424
 3021TIP3    H230699   4.877   4.983   2.672  0.5380  0.4078 -0.3476
 3022TIP3   OH230700   2.135   6.163   6.530 -0.7912  0.1512 -0.0333
 3022TIP3    H130701   2.165   6.074   6.511  0.5704  0.9119 -1.7537
 3022TIP3    H230702   2.209   6.204   6.575 -1.0862  0.6629 -0.0084
 3023TIP3   OH230703   3.507   1.142   8.438 -0.3304 -0.4230  0.1848
 3023TIP3    H130704   3.549   1.138   8.524 -1.0528 -1.0821  0.5202
 3023TIP3    H230705   3.536   1.063   8.393  1.2289  0.6386 -0.7671
 3024TIP3   OH230706   1.551   1.676   8.552  0.3350 -0.2509  0.1027
 3024TIP3    H130707   1.624   1.732   8.524  1.2533 -1.6230 -0.3794
 3024TIP3    H230708   1.546   1.689   8.647 -0.4504  1.7355 -0.1702
 3025TIP3   OH230709   4.423   2.072   7.010 -0.1725 -0.1340  0.0438
 3025TIP3    H130710   4.495   2.129   6.982 -1.5974  1.0697 -1.3927
 3025TIP3    H230711   4.350   2.132   7.024 -1.3879 -1.4875 -0.2995
 3026TIP3   OH230712   3.641   0.839   0.672 -0.3387  0.5857  0.2912
 3026TIP3    H130713   3.729   0.852   0.707  0.2840 -0.1651 -0.9183
 3026TIP3    H230714   3.599   0.925   0.680  1.7852  2.0568 -2.5280
 3027TIP3   OH230715   3.379   5.293   2.012  0.0510 -0.1121 -0.3184
 3027TIP3    H130716   3.467   5.295   2.049 -0.0840 -1.2456  0.1105
 3027TIP3    H230717   3.346   5.382   2.024  0.0112 -0.3886  2.3514
 3028TIP3   OH230718   0.214   4.307   7.351 -0.0443  0.1866 -0.2841
 3028TIP3    H130719   0.150   4.236   7.348  0.3621 -0.1535 -1.3454
 3028TIP3    H230720   0.298   4.265   7.334  0.3037  0.8085 -0.1470
 3029TIP3   OH230721   4.156   4.735   0.748 -0.3717  0.2279  0.2430
 3029TIP3    H130722   4.214   4.792   0.800 -0.8805  1.5292 -0.5745
 3029TIP3    H230723   4.214   4.668   0.713  0.4559  0.8718  0.3407
 3030TIP3   OH230724   5.561   6.653   8.669  0.2188 -0.0983 -0.0784
 3030TIP3    H130725   5.584   6.707   8.594  0.7321 -1.4517 -0.9534
 3030TIP3    H230726   5.473   6.679   8.693 -1.2728 -1.7532 -3.2099
 3031TIP3   OH230727   4.960   5.816   0.523  0.2154 -0.3682  0.4181
 3031TIP3    H130728   4.988   5.887   0.582 -1.5519 -0.2262  1.1319
 3031TIP3    H230729   4.994   5.736   0.564  1.3942 -0.0502  0.1142
 3032TIP3   OH230730   1.825   2.852   1.611  0.0526  0.3727  0.3070
 3032TIP3    H130731   1.886   2.911   1.568  0.8323 -1.3518 -1.0748
 3032TIP3    H230732   1.833   2.873   1.704  0.6483  2.0726 -0.0898
 3033TIP3   OH230733   5.795   0.335   0.019  0.3255  0.5120 -0.0943
 3033TIP3    H130734   5.784   0.425  -0.011  0.2958  0.6635  0.3589
 3033TIP3    H230735   5.762   0.281  -0.053 -0.7842  0.8979  0.1011
 3034TIP3   OH230736   2.593   1.170   1.028 -0.0482  0.1516  0.0565
 3034TIP3    H130737   2.655   1.167   0.955  2.1330 -5.3800  1.6131
 3034TIP3    H230738   2.640   1.214   1.099 -0.3522  1.3126 -0.4375
 3035TIP3   OH230739   1.298   5.256   1.607  0.0252  0.0884 -0.5497
 3035TIP3    H130740   1.380   5.286   1.648  0.1333 -0.5900 -0.2574
 3035TIP3    H230741   1.235   5.326   1.627  0.1133 -0.1427  0.6533
 3036TIP3   OH230742   6.688   0.888   1.987 -0.0362 -0.0565 -0.2893
 3036TIP3    H130743   6.651   0.823   2.048  1.9570  0.0764  1.1671
 3036TIP3    H230744   6.618   0.951   1.974 -1.2946 -1.3420  0.0141
 3037TIP3   OH230745   4.359   4.417   8.558 -0.2258  0.0981  0.3874
 3037TIP3    H130746   4.265   4.421   8.578 -0.1878 -2.0125  1.1787
 3037TIP3    H230747   4.388   4.333   8.593  2.4538  1.6117  2.1389
 3038TIP3   OH230748   1.477   4.156   7.288  0.2537 -0.0996 -0.1136
 3038TIP3    H130749   1.402   4.133   7.233 -1.1128  0.5592  1.3963
 3038TIP3    H230750   1.443   4.154   7.378  1.6261  1.7211  0.5206
 3039TIP3   OH230751   3.540   1.569   0.183 -0.5179 -0.1526 -0.0101
 3039TIP3    H130752   3.550   1.636   0.115  0.4690  0.7158  0.9591
 3039TIP3    H230753   3.613   1.509   0.168  0.8835  1.1101  1.4229
 3040TIP3   OH230754   1.151   1.464   0.907  0.0975  0.0366 -0.1763
 3040TIP3    H130755   1.203   1.523   0.962  0.7483  0.2100 -0.9627
 3040TIP3    H230756   1.160   1.379   0.949 -0.0706  0.3081  0.4303
 3041TIP3   OH230757   5.230   4.220   0.456 -0.1620  0.2530  0.3619
 3041TIP3    H130758   5.320   4.252   0.460  0.0700 -0.4412  1.0636
 3041TIP3    H230759   5.200   4.221   0.547 -1.0285  0.9100  0.0830
 3042TIP3   OH230760   2.321   0.477   0.345  0.1094  0.3720 -0.2866
 3042TIP3    H130761   2.326   0.472   0.250 -2.2114  0.7536 -0.4702
 3042TIP3    H230762   2.361   0.562   0.366 -1.6817  1.4799 -1.1822
 3043TIP3   OH230763   2.160   3.338   8.965  0.2490  0.1563 -0.2263
 3043TIP3    H130764   2.218   3.341   8.888  0.8572  1.5289  0.2489
 3043TIP3    H230765   2.078   3.378   8.935  0.6570  1.1527 -0.0432
 3044TIP3   OH230766   3.995   2.702   9.102 -0.3355 -0.2535  0.1178
 3044TIP3    H130767   4.038   2.654   9.031 -0.1059  1.4007 -0.8966
 3044TIP3    H230768   3.910   2.727   9.067 -0.7880 -0.5903  0.9363
 3045TIP3   OH230769   0.788   0.668   7.261  0.1957 -0.1200  0.0627
 3045TIP3    H130770   0.786   0.628   7.348 -1.0326 -1.9555 -0.7583
 3045TIP3    H230771   0.876   0.648   7.228  0.3250 -0.2848  0.4975
 3046TIP3   OH230772   3.154   4.396   2.038  0.3016 -0.4030  0.0492
 3046TIP3    H130773   3.208   4.419   2.114 -1.4356  1.0318  0.9059
 3046TIP3    H230774   3.169   4.303   2.025 -0.2181 -0.9529  2.8886
 3047TIP3   OH230775   1.792   5.354   2.200  0.1417 -0.6234  0.1087
 3047TIP3    H130776   1.788   5.357   2.296  3.7318  0.2663  0.3733
 3047TIP3    H230777   1.767   5.442   2.172  3.3886  0.6529  0.6942
 3048TIP3   OH230778   0.879   5.217   8.638  0.6080  0.2592  0.2764
 3048TIP3    H130779   0.932   5.180   8.567  1.7222 -0.0524  1.2184
 3048TIP3    H230780   0.928   5.295   8.666 -0.0062  0.5834  0.4633
 3049TIP3   OH230781   3.510   5.613   8.787 -0.1097 -0.2954 -0.3192
 3049TIP3    H130782   3.440   5.668   8.824 -0.6593 -0.7123 -0.7137
 3049TIP3    H230783   3.463   5.538   8.750  0.4973 -0.2689 -1.1605
 3050TIP3   OH230784   6.734   5.681   0.256 -0.5901 -0.4926 -0.3858
 3050TIP3    H130785   6.738   5.667   0.350  2.0492 -0.7827 -0.4598
 3050TIP3    H230786   6.650   5.645   0.230 -1.0301 -1.1456  1.7459
 3051TIP3   OH230787   1.241   2.810   1.475 -0.0662 -0.0256  0.2653
 3051TIP3    H130788   1.174   2.770   1.420  0.6314 -0.2448 -0.4357
 3051TIP3    H230789   1.294   2.862   1.415  3.6178 -3.8841 -0.2869
 3052TIP3   OH230790   6.481   3.374   1.963 -0.7230 -0.8228  0.0305
 3052TIP3    H130791   6.435   3.408   1.886 -0.6352  0.3631  0.4702
 3052TIP3    H230792   6.485   3.449   2.023 -0.7038 -1.6987  1.1487
 3053TIP3   OH230793   2.549   0.281   7.588 -0.3140 -0.6266 -0.1336
 3053TIP3    H130794   2.602   0.203   7.574 -1.2347 -1.2949  0.0672
 3053TIP3    H230795   2.584   0.320   7.669  0.2811 -0.7086 -0.3494
 3054TIP3   OH230796   2.600   0.106   2.099  0.2310  0.4067  0.2983
 3054TIP3    H130797   2.523   0.150   2.136  0.2579  0.5283  0.2124
 3054TIP3    H230798   2.672   0.133   2.155  0.3219  0.8265 -0.0072
 3055TIP3   OH230799   1.392   1.723   0.583 -0.2853 -0.0322 -0.3983
 3055TIP3    H130800   1.486   1.740   0.584 -0.2445 -0.1738 -1.2109
 3055TIP3    H230801   1.355   1.790   0.641  0.4137 -0.6698  0.7977
 3056TIP3   OH230802   5.121   5.509   1.919 -0.2735  0.3091  0.0204
 3056TIP3    H130803   5.170   5.455   1.981 -1.1255  0.1104  0.5391
 3056TIP3    H230804   5.078   5.446   1.862 -0.4204  0.4634 -0.0404
 3057TIP3   OH230805   4.631   5.088   8.552  0.8319  0.5243  0.2779
 3057TIP3    H130806   4.554   5.083   8.609 -0.7763  0.2392 -1.7930
 3057TIP3    H230807   4.675   5.169   8.578  1.3266 -0.5542  3.2071
 3058TIP3   OH230808   1.018   2.970   7.754 -0.2414  0.1167  0.5266
 3058TIP3    H130809   0.963   2.969   7.676 -0.5463 -1.8420  0.7262
 3058TIP3    H230810   1.096   2.920   7.729 -0.6059 -1.0485  1.6379
 3059TIP3   OH230811   5.280   2.042   8.834 -0.2750 -0.1399 -0.2283
 3059TIP3    H130812   5.312   1.991   8.909 -0.7343 -1.0193 -0.6226
 3059TIP3    H230813   5.359   2.081   8.797 -0.0096  0.0679  0.5382
 3060TIP3   OH230814   1.765   3.815   2.376  0.1147 -0.1523  0.0706
 3060TIP3    H130815   1.745   3.739   2.322  2.0430 -0.8155  0.2431
 3060TIP3    H230816   1.843   3.853   2.337  0.6866  0.2298  1.5090
 3061TIP3   OH230817   0.092   6.499   7.454  0.2939 -0.4322 -0.0431
 3061TIP3    H130818   0.058   6.411   7.472 -1.4108  0.4295  1.1800
 3061TIP3    H230819   0.084   6.546   7.537  3.6570  0.1807  0.0637
 3062TIP3   OH230820   1.557   6.701   8.589 -0.0236  0.5925  0.0580
 3062TIP3    H130821   1.497   6.630   8.565  0.6325 -0.0542  0.2866
 3062TIP3    H230822   1.572   6.689   8.683  0.3156  0.8635  0.0407
 3063TIP3   OH230823   4.531   5.434   2.054  0.1911 -0.6723  0.2556
 3063TIP3    H130824   4.479   5.442   2.134 -1.4157 -0.6684 -0.7349
 3063TIP3    H230825   4.505   5.349   2.018 -0.2431 -0.0360 -0.9955
 3064TIP3   OH230826   4.637   4.962   8.902 -0.2984  0.0613  0.5034
 3064TIP3    H130827   4.671   5.049   8.924  0.4500  0.4752 -1.9159
 3064TIP3    H230828   4.551   4.979   8.864 -0.5417 -0.3410  0.8780
 3065TIP3   OH230829   5.989   5.018   7.994  0.3625  0.2934  0.3787
 3065TIP3    H130830   5.958   5.012   8.084  0.0942 -1.0361  0.2101
 3065TIP3    H230831   6.084   5.007   8.000  0.1971 -1.3515  0.3791
 3066TIP3   OH230832   5.937   0.426   0.603  0.3282 -0.0490  0.3772
 3066TIP3    H130833   5.904   0.516   0.601  1.5149  0.4011  0.2528
 3066TIP3    H230834   5.947   0.401   0.511 -2.5721 -1.3383  0.3046
 3067TIP3   OH230835   4.197   5.705   1.822  0.0331 -0.7159 -0.6101
 3067TIP3    H130836   4.276   5.744   1.784  0.1225  0.2642  0.4923
 3067TIP3    H230837   4.219   5.613   1.836  1.1146 -0.3852 -0.0303
 3068TIP3   OH230838   1.026   3.814   8.172  0.3023 -0.0914 -0.0344
 3068TIP3    H130839   1.030   3.832   8.266  1.6639  2.0837 -0.4382
 3068TIP3    H230840   1.000   3.898   8.133  0.9293 -0.6263 -1.6772
 3069TIP3   OH230841   5.880   4.351   1.755 -0.1570  0.2170 -0.5367
 3069TIP3    H130842   5.917   4.270   1.719  0.1989  1.1130 -2.3013
 3069TIP3    H230843   5.910   4.352   1.846  1.5265 -0.6552 -1.0302
 3070TIP3   OH230844   3.520   2.248   0.479 -0.1384 -0.0446  0.4234
 3070TIP3    H130845   3.588   2.280   0.420  0.0797 -0.2018  0.5907
 3070TIP3    H230846   3.563   2.182   0.533 -0.0915  0.7555  1.3938
 3071TIP3   OH230847   5.734   0.554   0.241 -0.4293  0.6194  0.5129
 3071TIP3    H130848   5.774   0.637   0.270  1.4599  1.0307 -2.8018
 3071TIP3    H230849   5.662   0.581   0.184 -0.7090 -0.0867  0.5207
 3072TIP3   OH230850   3.186   2.302   6.795  0.0904 -0.1963  0.0208
 3072TIP3    H130851   3.225   2.390   6.787  0.0563 -0.2909 -1.3864
 3072TIP3    H230852   3.194   2.264   6.708 -0.1570 -1.5002  0.5413
 3073TIP3   OH230853   6.611   5.192   0.681 -0.2448 -0.0656 -0.1268
 3073TIP3    H130854   6.674   5.262   0.665  0.2144 -0.3214  0.5267
 3073TIP3    H230855   6.656   5.112   0.656 -0.8467 -0.1318 -1.0851
 3074TIP3   OH230856   5.422   1.288   0.395 -0.1236  0.0172  0.7347
 3074TIP3    H130857   5.475   1.368   0.398  1.2026 -0.8065  0.1101
 3074TIP3    H230858   5.391   1.283   0.304  0.2782 -0.4773  0.6226
 3075TIP3   OH230859   4.713   3.017   1.510  0.0600  0.5230 -0.2599
 3075TIP3    H130860   4.689   2.925   1.519  0.2512  0.5557  0.8223
 3075TIP3    H230861   4.807   3.019   1.529  0.4441  0.7219 -2.0084
 3076TIP3   OH230862   5.259   5.701   1.222  0.0400  0.9982  0.7593
 3076TIP3    H130863   5.193   5.701   1.292 -0.2360  0.3373  0.5043
 3076TIP3    H230864   5.263   5.792   1.194 -0.0226  1.2315  1.4729
 3077TIP3   OH230865   6.193   2.494   8.706 -0.8872 -0.1209 -0.0053
 3077TIP3    H130866   6.159   2.413   8.668  1.3749 -0.4246 -1.5721
 3077TIP3    H230867   6.120   2.556   8.699 -2.5098 -1.8575  0.8168
 3078TIP3   OH230868   2.164   2.267   8.351 -0.3953 -0.5477  0.1223
 3078TIP3    H130869   2.168   2.351   8.305 -0.5702 -1.3481 -1.4091
 3078TIP3    H230870   2.256   2.248   8.372 -0.3382 -0.0639  0.3407
 3079TIP3   OH230871   4.160   6.628   1.629  0.1718 -0.0616 -0.1105
 3079TIP3    H130872   4.113   6.562   1.578 -0.1509  0.6892 -0.8202
 3079TIP3    H230873   4.246   6.589   1.645  0.1450 -0.4811 -0.9050
 3080TIP3   OH230874   4.916   3.544   6.377 -0.1603 -0.5815  0.1445
 3080TIP3    H130875   4.846   3.589   6.425 -0.0557  0.2857 -0.4928
 3080TIP3    H230876   4.875   3.463   6.347 -1.5353  0.7567 -1.8410
 3081TIP3   OH230877   1.834   6.294   1.456  0.1163 -0.2535 -0.4944
 3081TIP3    H130878   1.770   6.361   1.481 -0.4296 -0.6225 -0.8807
 3081TIP3    H230879   1.832   6.295   1.360  0.5482 -0.4037 -0.5038
 3082TIP3   OH230880   0.983   4.132   7.813 -0.2757  0.3450  0.5831
 3082TIP3    H130881   0.972   4.037   7.812  0.2140  0.2854  0.6938
 3082TIP3    H230882   1.071   4.146   7.779 -1.2028  0.8965 -1.7879
 3083TIP3   OH230883   2.894   2.515   8.765  0.5970  0.1730  0.2572
 3083TIP3    H130884   2.952   2.439   8.769  1.0136  0.4103 -0.7987
 3083TIP3    H230885   2.830   2.493   8.698 -0.1468  0.1794  0.9621
 3084TIP3   OH230886   5.585   3.048   2.525  0.3986 -0.0885 -0.4465
 3084TIP3    H130887   5.535   2.985   2.576 -1.2153 -0.0112 -1.8174
 3084TIP3    H230888   5.593   3.124   2.582 -1.6673  0.1366 -0.3597
 3085TIP3   OH230889   4.851   4.710   8.060 -0.1683 -0.5822 -0.2408
 3085TIP3    H130890   4.929   4.755   8.026  0.0770 -0.3792  0.5874
 3085TIP3    H230891   4.886   4.633   8.105 -0.2580  0.5862  1.9412
 3086TIP3   OH230892   6.593   4.691   2.151 -0.3762  0.0883 -0.1476
 3086TIP3    H130893   6.527   4.704   2.082  1.3413  1.4986 -1.6234
 3086TIP3    H230894   6.652   4.625   2.115  0.6550  0.9917 -0.1638
 3087TIP3   OH230895   4.524   1.656   8.394  0.1277 -0.4518 -0.1641
 3087TIP3    H130896   4.501   1.748   8.407  4.9140  0.7935  1.7561
 3087TIP3    H230897   4.579   1.656   8.315  1.7509 -1.1992  0.9052
 3088TIP3   OH230898   2.591   0.032   1.712  0.4382  0.0648  0.5148
 3088TIP3    H130899   2.648   0.013   1.787  1.6290  0.5645 -0.2461
 3088TIP3    H230900   2.637  -0.006   1.637  0.7234  2.0871 -0.3900
 3089TIP3   OH230901   6.466   0.285   0.486 -0.4151 -0.2634  0.0247
 3089TIP3    H130902   6.530   0.222   0.519 -2.3830 -1.9046  0.9019
 3089TIP3    H230903   6.384   0.263   0.531 -1.5773  1.9062 -0.8531
 3090TIP3   OH230904   3.044   4.917   1.435 -0.6991  0.5604  0.4177
 3090TIP3    H130905   3.125   4.952   1.397  0.3783 -0.9428  1.2510
 3090TIP3    H230906   3.023   4.977   1.507 -0.9512  1.5517 -0.4456
 3091TIP3   OH230907   6.100   5.165   6.913 -0.0748 -0.2383 -0.1634
 3091TIP3    H130908   6.194   5.153   6.925  0.1557 -1.1542 -2.4501
 3091TIP3    H230909   6.092   5.253   6.876 -0.4508  1.0277  2.6514
 3092TIP3   OH230910   4.727   6.118   7.650 -0.1047  0.4061  0.0176
 3092TIP3    H130911   4.640   6.130   7.612 -0.4736 -1.5107  0.1721
 3092TIP3    H230912   4.775   6.067   7.585  0.4189  0.1444  0.5995
 3093TIP3   OH230913   3.373   3.226   8.246 -0.2237 -0.3976 -0.1257
 3093TIP3    H130914   3.385   3.174   8.326  1.5379 -0.2739 -0.2540
 3093TIP3    H230915   3.284   3.207   8.218 -0.4971 -1.3282  1.2482
 3094TIP3   OH230916   0.165   1.063   8.010 -0.0404  0.3768  0.3751
 3094TIP3    H130917   0.221   1.077   8.087  1.7961  0.0954 -0.8267
 3094TIP3    H230918   0.078   1.090   8.038  0.9519  2.2882  1.9343
 3095TIP3   OH230919   3.770   2.878   7.796  0.0054 -0.6522  0.0402
 3095TIP3    H130920   3.791   2.971   7.806  0.9806 -1.0195  1.6140
 3095TIP3    H230921   3.748   2.848   7.884 -0.6173 -1.8541 -0.4955
 3096TIP3   OH230922   3.545   3.781   7.880 -0.2963  0.6422  0.0340
 3096TIP3    H130923   3.583   3.866   7.858  1.1257  0.1174  0.3482
 3096TIP3    H230924   3.487   3.760   7.807 -1.7315  2.4796  0.5790
 3097TIP3   OH230925   2.209   1.013   0.572 -0.3371 -0.1447  0.1510
 3097TIP3    H130926   2.280   1.052   0.621 -0.6578 -1.1242  1.4626
 3097TIP3    H230927   2.209   1.058   0.488  2.6736 -0.9998 -0.4224
 3098TIP3   OH230928   1.882   3.916   8.408  0.4316  0.4124 -0.3918
 3098TIP3    H130929   1.840   3.936   8.324 -1.7124  2.0802  0.9474
 3098TIP3    H230930   1.840   3.976   8.470  0.7003 -1.8910  2.1997
 3099TIP3   OH230931   2.205   5.851   1.518 -0.0732  0.4253  0.1376
 3099TIP3    H130932   2.121   5.897   1.520 -0.5758 -0.4231 -0.4685
 3099TIP3    H230933   2.270   5.918   1.537 -0.8503  1.1909  0.1738
 3100TIP3   OH230934   4.811   4.619   7.020  0.6651  0.5660  0.1390
 3100TIP3    H130935   4.768   4.704   7.011  2.0804  1.2256 -0.6701
 3100TIP3    H230936   4.891   4.626   6.968  0.5209 -1.4810 -0.4910
 3101TIP3   OH230937   1.148   0.502   0.232 -0.2232 -0.1672 -0.0791
 3101TIP3    H130938   1.118   0.586   0.266 -0.7865 -1.0196  1.6622
 3101TIP3    H230939   1.103   0.493   0.148 -1.5286  0.5204  0.5100
 3102TIP3   OH230940   4.614   2.774   0.374 -0.0825  0.2527  0.1711
 3102TIP3    H130941   4.630   2.840   0.441 -2.2795 -1.0884  2.2187
 3102TIP3    H230942   4.519   2.770   0.367 -0.0173 -2.2350 -0.2749
 3103TIP3   OH230943   4.292   5.489   2.203  0.1617 -1.3802  0.1827
 3103TIP3    H130944   4.293   5.496   2.108  0.3706 -2.6847  0.0740
 3103TIP3    H230945   4.230   5.418   2.222  0.5341 -1.5039  0.9918
 3104TIP3   OH230946   3.083   3.069   7.113  0.3925 -0.1270  0.1116
 3104TIP3    H130947   3.013   3.066   7.179  0.6845 -1.1211  0.3901
 3104TIP3    H230948   3.080   3.159   7.080  1.4414  1.0301  2.7879
 3105TIP3   OH230949   1.721   2.749   0.708  0.1338 -0.0494 -0.3402
 3105TIP3    H130950   1.761   2.834   0.728 -0.9438  0.5864 -0.7342
 3105TIP3    H230951   1.695   2.757   0.616 -1.6829 -0.0502  0.1214
 3106TIP3   OH230952   6.679   0.120   8.954 -0.1953 -0.0165  0.3118
 3106TIP3    H130953   6.668   0.195   9.012  1.1964  1.3752 -1.1077
 3106TIP3    H230954   6.750   0.069   8.993 -1.0162 -0.5219  1.1804
 3107TIP3   OH230955   5.757   1.383   0.068 -0.1520  0.2850 -0.6112
 3107TIP3    H130956   5.666   1.352   0.066  0.3048 -1.1304 -0.7787
 3107TIP3    H230957   5.792   1.360  -0.019  0.9148 -0.9982  0.1286
 3108TIP3   OH230958   1.338   3.951   1.071 -0.3350 -0.1996 -0.2297
 3108TIP3    H130959   1.298   3.864   1.070  1.0320 -0.8531 -1.0626
 3108TIP3    H230960   1.292   3.998   1.002 -1.4616 -0.0497  0.5868
 3109TIP3   OH230961   2.805   4.056   1.116 -0.3672 -0.1611  0.1849
 3109TIP3    H130962   2.739   4.053   1.185 -1.4150  0.1682 -0.7708
 3109TIP3    H230963   2.824   4.149   1.105 -1.8690  0.0185 -1.4466
 3110TIP3   OH230964   5.142   0.981   0.076  0.1664  0.0640 -0.1847
 3110TIP3    H130965   5.227   0.984   0.033 -0.3004 -0.7904 -1.2092
 3110TIP3    H230966   5.086   1.037   0.022 -0.3910 -0.9170 -0.6558
 3111TIP3   OH230967   0.044   0.582   7.244 -0.6189  0.0648  0.1526
 3111TIP3    H130968   0.018   0.587   7.336  0.4169  1.3911  0.4084
 3111TIP3    H230969   0.054   0.673   7.217  2.0225 -0.3083 -0.3735
 3112TIP3   OH230970   5.333   5.333   0.540  0.3605  0.3312  0.8387
 3112TIP3    H130971   5.373   5.309   0.623  1.2389 -1.7763 -0.1156
 3112TIP3    H230972   5.403   5.322   0.475 -1.0512 -1.0721 -0.5482
 3113TIP3   OH230973   6.594   3.289   0.721  0.0324  0.4570 -0.3394
 3113TIP3    H130974   6.613   3.310   0.812 -0.2754  2.4673 -0.6886
 3113TIP3    H230975   6.663   3.333   0.671  0.6782 -1.3090 -1.0499
 3114TIP3   OH230976   1.902   6.256   8.854 -0.6208  0.1717 -0.7878
 3114TIP3    H130977   1.901   6.274   8.948  2.0060  0.0697 -0.6798
 3114TIP3    H230978   1.891   6.161   8.848  2.1864 -0.2617 -0.3246
 3115TIP3   OH230979   6.516   4.978   8.750  0.0806 -0.1431  0.3014
 3115TIP3    H130980   6.565   4.899   8.774 -1.6662 -0.5055  3.2435
 3115TIP3    H230981   6.515   5.031   8.830 -0.4549  1.9682 -1.0315
 3116TIP3   OH230982   4.814   3.939   6.710 -0.3032 -1.1715  0.0086
 3116TIP3    H130983   4.841   3.907   6.796 -1.4331 -1.8274  0.1495
 3116TIP3    H230984   4.726   3.974   6.725  0.2609  0.5529 -0.4809
 3117TIP3   OH230985   4.558   5.789   2.804  0.6248 -0.4590 -0.5364
 3117TIP3    H130986   4.542   5.804   2.897 -1.5778 -0.6404 -0.8391
 3117TIP3    H230987   4.562   5.693   2.795 -0.7968 -0.5102 -0.8329
 3118TIP3   OH230988   5.150   2.119   1.014 -0.3574  0.0494  0.7758
 3118TIP3    H130989   5.221   2.179   1.038 -0.6253  0.5053  0.4334
 3118TIP3    H230990   5.073   2.175   1.007 -0.7905 -0.4681  1.2984
 3119TIP3   OH230991   6.055   4.705   1.146 -0.7810  0.2058  0.6930
 3119TIP3    H130992   6.066   4.730   1.238  0.8623  1.7564  0.1323
 3119TIP3    H230993   6.017   4.783   1.105 -1.5608 -0.4957  0.0604
 3120TIP3   OH230994   2.777   1.432   8.020  0.6242 -0.6055 -0.2294
 3120TIP3    H130995   2.697   1.447   8.070 -0.0910  2.0952 -1.9801
 3120TIP3    H230996   2.751   1.374   7.949  0.2581  0.0453 -0.6353
 3121TIP3   OH230997   3.079   0.211   6.708 -0.4109  0.0976  0.3682
 3121TIP3    H130998   2.997   0.260   6.710 -0.7341 -0.3532 -1.0533
 3121TIP3    H230999   3.147   0.279   6.713 -0.8560  0.6260 -0.5586
 3122TIP3   OH231000   0.512   2.117   0.449  0.5108 -0.2433 -0.0321
 3122TIP3    H131001   0.489   2.196   0.400  0.7318 -1.1086 -1.6065
 3122TIP3    H231002   0.608   2.114   0.444  0.5487 -0.2135  0.6704
 3123TIP3   OH231003   0.484   0.424   0.829  0.2507  0.0152  0.7405
 3123TIP3    H131004   0.446   0.413   0.916 -0.6265 -1.1218  0.2355
 3123TIP3    H231005   0.415   0.463   0.777 -0.0196 -1.4008 -0.0058
 3124TIP3   OH231006   3.065   1.776   7.856 -0.5104  0.0846  0.5068
 3124TIP3    H131007   3.021   1.859   7.872  0.4945  0.4447  1.5966
 3124TIP3    H231008   3.119   1.763   7.934 -0.1515 -1.2648  0.0531
 3125TIP3   OH231009   5.895   5.407   7.125  0.5330 -0.2531  0.3178
 3125TIP3    H131010   5.888   5.498   7.095  1.2175 -0.4931 -0.6142
 3125TIP3    H231011   5.847   5.357   7.059  2.9118 -0.9022 -1.0385
 3126TIP3   OH231012   3.350   2.668   1.256 -0.0580  0.2968 -0.5859
 3126TIP3    H131013   3.370   2.638   1.344 -0.4962  0.2828 -0.4867
 3126TIP3    H231014   3.433   2.699   1.221 -0.0834  1.2837  0.2044
 3127TIP3   OH231015   4.042   1.719   0.839 -0.5381  0.3560 -0.1382
 3127TIP3    H131016   4.077   1.700   0.925 -1.4285  2.6330  0.8244
 3127TIP3    H231017   4.116   1.757   0.791  0.0718 -1.3049 -0.5806
 3128TIP3   OH231018   5.239   6.429   0.046  0.2844  0.7312  0.5015
 3128TIP3    H131019   5.299   6.402   0.115  0.3889 -0.2754  0.0365
 3128TIP3    H231020   5.230   6.352  -0.010  0.0643  1.4705 -0.5147
 3129TIP3   OH231021   3.871   4.867   7.885 -0.1550  0.7303  0.5654
 3129TIP3    H131022   3.823   4.893   7.963 -0.9331 -0.6120  0.5580
 3129TIP3    H231023   3.815   4.893   7.812 -0.5744 -0.2517  0.5350
 3130TIP3   OH231024   1.171   3.682   0.397  0.1796  0.5372 -0.5409
 3130TIP3    H131025   1.178   3.768   0.438 -1.5647 -0.0166  1.0329
 3130TIP3    H231026   1.086   3.683   0.353 -0.2315 -0.6340  0.1773
 3131TIP3   OH231027   5.057   4.936   6.843  0.3156 -0.3554  0.9819
 3131TIP3    H131028   5.052   4.925   6.938  1.0947 -1.9072  0.8682
 3131TIP3    H231029   5.070   5.030   6.831 -1.1074  0.0654  2.3323
 3132TIP3   OH231030   3.645   0.442   8.440  0.3833  0.2111  0.1714
 3132TIP3    H131031   3.674   0.495   8.366  0.0642  2.1673  1.3605
 3132TIP3    H231032   3.677   0.354   8.421  2.1134  1.0885 -1.2901
 3133TIP3   OH231033   5.946   3.734   8.788 -0.4104 -0.3258 -0.0936
 3133TIP3    H131034   5.871   3.783   8.754  0.0276  0.2002 -0.3129
 3133TIP3    H231035   5.924   3.642   8.772 -0.3903 -0.1057 -1.4476
 3134TIP3   OH231036   3.443   0.657   8.542 -0.5128  0.1859 -0.1250
 3134TIP3    H131037   3.458   0.734   8.598  1.2726 -1.1044  1.2788
 3134TIP3    H231038   3.484   0.680   8.459 -1.2703  1.2748 -0.2288
 3135TIP3   OH231039   1.477   2.810   1.307 -0.8752  0.0891  0.2985
 3135TIP3    H131040   1.553   2.755   1.322 -1.0982 -0.0181  1.1087
 3135TIP3    H231041   1.512   2.896   1.285 -0.5247 -0.3401 -0.8636
 3136TIP3   OH231042   3.809   2.445   1.210 -0.2921  0.0604 -0.3287
 3136TIP3    H131043   3.839   2.526   1.169  1.7189 -0.9292 -0.9506
 3136TIP3    H231044   3.776   2.473   1.296 -0.6890  1.6404 -0.9481
 3137TIP3   OH231045   2.991   0.362   1.154 -0.1728  0.3650 -0.1494
 3137TIP3    H131046   2.962   0.316   1.233 -0.7410 -1.1347 -1.1944
 3137TIP3    H231047   3.078   0.327   1.136  0.7720  2.0525  0.7909
 3138TIP3   OH231048   3.344   4.678   1.802  0.3023  0.5987  0.1738
 3138TIP3    H131049   3.259   4.632   1.800  0.4649  0.2931 -1.8429
 3138TIP3    H231050   3.391   4.638   1.875 -0.9706  0.1920  0.8034
 3139TIP3   OH231051   0.372   4.876   2.155 -0.4775  0.5003  0.6129
 3139TIP3    H131052   0.375   4.946   2.221  0.2790  0.9497  0.1159
 3139TIP3    H231053   0.462   4.844   2.150 -0.9211 -0.8918  1.2200
 3140TIP3   OH231054   3.386   4.994   1.693 -0.2020 -0.6158  0.4702
 3140TIP3    H131055   3.375   5.081   1.733 -1.9380  0.0162 -1.2306
 3140TIP3    H231056   3.320   4.940   1.736 -1.0934 -0.3090 -0.4814
 3141TIP3   OH231057   2.518   2.031   1.695  0.2410 -0.1511  0.1708
 3141TIP3    H131058   2.484   1.964   1.755  1.0168  1.3396  2.4092
 3141TIP3    H231059   2.613   2.031   1.710  0.1977  1.8626  0.7354
 3142TIP3   OH231060   0.367   4.517   0.167  0.1169  0.4275  0.6585
 3142TIP3    H131061   0.380   4.610   0.150 -0.5637  0.7843  1.9688
 3142TIP3    H231062   0.352   4.479   0.080  1.8643  1.2585 -0.0760
 3143TIP3   OH231063   1.548   5.497   8.909  0.3247  0.0224  0.3390
 3143TIP3    H131064   1.570   5.450   8.828 -1.7537 -0.0196 -0.2732
 3143TIP3    H231065   1.534   5.428   8.973 -1.0148 -0.1458 -0.1030
 3144TIP3   OH231066   5.537   1.321   1.183  0.3913 -0.2648  0.0750
 3144TIP3    H131067   5.492   1.270   1.250 -0.2287 -1.4855 -1.2342
 3144TIP3    H231068   5.482   1.398   1.169  0.3143 -0.2120  0.6529
 3145TIP3   OH231069   5.330   1.101   8.029 -0.3530 -0.7333  0.4819
 3145TIP3    H131070   5.298   1.182   7.989 -0.5327 -1.1880 -0.3228
 3145TIP3    H231071   5.423   1.117   8.044 -0.4135 -0.3313  0.4432
 3146TIP3   OH231072   6.350   0.781   1.750  0.4605  0.2085 -0.1802
 3146TIP3    H131073   6.283   0.833   1.793 -0.5392 -1.3771  0.2358
 3146TIP3    H231074   6.319   0.772   1.660 -0.7764 -1.8664  0.3919
 3147TIP3   OH231075   4.002   4.920   6.551 -0.0113  0.0145  0.1931
 3147TIP3    H131076   4.049   4.838   6.535 -1.4122 -0.8707  0.4270
 3147TIP3    H231077   4.071   4.984   6.572  1.1828 -0.8722 -0.8333
 3148TIP3   OH231078   5.954   3.943   7.214  0.3431 -0.2794  0.8594
 3148TIP3    H131079   5.889   3.873   7.219  1.6928 -1.4693  3.1199
 3148TIP3    H231080   6.015   3.914   7.145 -1.2186  0.6923 -1.0440
 3149TIP3   OH231081   0.765   0.829   7.684 -0.1528 -0.1473  0.1130
 3149TIP3    H131082   0.747   0.916   7.649  3.6108 -0.2179 -2.5499
 3149TIP3    H231083   0.693   0.775   7.652 -0.8977  1.3781 -0.9153
 3150TIP3   OH231084   3.453   6.547   1.776 -1.0311 -0.2579 -0.7783
 3150TIP3    H131085   3.468   6.567   1.868  0.9809  0.0131 -1.1115
 3150TIP3    H231086   3.398   6.619   1.744 -0.5928  0.3863 -0.0978
 3151TIP3   OH231087   0.736   1.936   8.754  0.1110 -0.5532 -0.0618
 3151TIP3    H131088   0.814   1.935   8.700 -1.7214  2.1482 -3.0943
 3151TIP3    H231089   0.765   1.966   8.840  2.6441 -1.8759 -0.3792
 3152TIP3   OH231090   4.944   3.923   8.058 -0.5213  0.0013 -0.2467
 3152TIP3    H131091   5.024   3.967   8.030 -0.2972 -0.9781 -1.1888
 3152TIP3    H231092   4.922   3.965   8.142  1.5822 -0.4760  0.6021
 3153TIP3   OH231093   0.990   0.384   8.319 -0.0536 -0.0226  0.5225
 3153TIP3    H131094   0.972   0.359   8.409 -2.0691  1.2507  0.5341
 3153TIP3    H231095   1.083   0.406   8.318  0.0483 -0.2714  2.2182
 3154TIP3   OH231096   3.594   2.974   9.022 -0.1033 -0.1300  0.5104
 3154TIP3    H131097   3.513   2.945   9.065  0.1775  0.0400  1.1797
 3154TIP3    H231098   3.590   3.070   9.027  0.4006 -0.1283  1.0720
 3155TIP3   OH231099   2.473   6.208   0.379 -0.0399 -0.0675  0.0376
 3155TIP3    H131100   2.463   6.142   0.311  0.5720  0.6153 -0.7254
 3155TIP3    H231101   2.468   6.291   0.333 -2.3231  0.4979  1.1737
 3156TIP3   OH231102   3.463   0.147   6.716 -0.1838 -0.2494 -0.7335
 3156TIP3    H131103   3.409   0.069   6.703 -0.9032  0.4606 -2.2464
 3156TIP3    H231104   3.546   0.126   6.674  0.4836 -1.0559  0.9259
 3157TIP3   OH231105   1.190   1.822   2.235  0.2307  0.0022  0.1947
 3157TIP3    H131106   1.135   1.858   2.304  1.3300 -0.4697  1.3545
 3157TIP3    H231107   1.154   1.858   2.154 -2.5074 -1.2175  0.7897
 3158TIP3   OH231108   2.091   0.822   2.194 -0.2037  0.2739  0.0868
 3158TIP3    H131109   2.140   0.904   2.197  1.1641 -0.5247  1.7877
 3158TIP3    H231110   2.000   0.848   2.180  0.3360  1.9802 -0.4889
 3159TIP3   OH231111   1.388   1.985   8.250  0.2857 -0.0894 -0.1738
 3159TIP3    H131112   1.449   2.017   8.183  0.6027  1.0865  0.6448
 3159TIP3    H231113   1.401   2.044   8.324 -0.1281 -1.3050  0.9015
 3160TIP3   OH231114   0.523   4.265   1.797 -0.0978 -1.0216 -0.0925
 3160TIP3    H131115   0.592   4.329   1.776 -1.8468  0.5541 -1.4090
 3160TIP3    H231116   0.556   4.182   1.762  1.0396 -0.2685 -0.8833
 3161TIP3   OH231117   3.277   1.198   0.702 -0.6440 -0.2008 -0.1999
 3161TIP3    H131118   3.225   1.217   0.780  0.9446  0.0078  0.8571
 3161TIP3    H231119   3.270   1.277   0.649 -2.2627 -0.5849 -0.6032
 3162TIP3   OH231120   2.577   0.109   9.116  0.0355  0.0534 -0.1053
 3162TIP3    H131121   2.566   0.092   9.210 -0.9698  2.1886  0.2216
 3162TIP3    H231122   2.632   0.187   9.112 -0.8207  0.6279 -1.2340
 3163TIP3   OH231123   0.754   1.447   1.421  0.3010 -0.1282 -0.6263
 3163TIP3    H131124   0.668   1.475   1.390 -0.2410 -0.4850  0.4700
 3163TIP3    H231125   0.751   1.351   1.416  0.2577 -0.1861  0.3307
 3164TIP3   OH231126   4.818   4.750   8.920 -0.6452  0.7590 -0.1004
 3164TIP3    H131127   4.783   4.670   8.959  1.4938  0.8106  2.1914
 3164TIP3    H231128   4.744   4.811   8.920 -1.4739 -0.1727  1.3533
 3165TIP3   OH231129   0.060   3.584   1.435 -0.5045  0.8337 -0.1406
 3165TIP3    H131130   0.079   3.673   1.467  0.3110  0.2395  1.0953
 3165TIP3    H231131  -0.033   3.588   1.410 -0.8057  1.7379  0.9938
 3166TIP3   OH231132   3.846   0.826   7.564 -0.4385 -0.3893  0.2889
 3166TIP3    H131133   3.911   0.805   7.632 -1.5045 -0.1598  1.4194
 3166TIP3    H231134   3.773   0.768   7.584 -1.6533  1.2297  0.7225
 3167TIP3   OH231135   1.671   5.665   1.317  0.4785  0.0502 -0.4762
 3167TIP3    H131136   1.686   5.750   1.276  0.5879  0.3999  0.2748
 3167TIP3    H231137   1.576   5.654   1.317  0.5218 -0.7531 -2.3982
 3168TIP3   OH231138   3.260   4.418   1.568 -0.7420  0.0316 -0.5560
 3168TIP3    H131139   3.178   4.467   1.575 -0.8076 -0.2075  0.6134
 3168TIP3    H231140   3.292   4.413   1.658  2.2163  2.8627 -1.2507
 3169TIP3   OH231141   1.288   0.201   1.252 -0.3631 -0.0111 -0.2286
 3169TIP3    H131142   1.317   0.271   1.194 -2.1741  1.0814  0.1074
 3169TIP3    H231143   1.202   0.175   1.217 -0.5250 -0.8050  0.7193
 3170TIP3   OH231144   2.734   5.924   0.219 -0.0404 -0.0798  0.3772
 3170TIP3    H131145   2.647   5.956   0.197  0.7945  1.3751 -0.9645
 3170TIP3    H231146   2.762   5.875   0.142  0.2370 -0.7752  0.9095
 3171TIP3   OH231147   1.580   5.573   7.661  0.0019  0.2681  0.3845
 3171TIP3    H131148   1.600   5.600   7.751 -3.4073  0.8593  1.0929
 3171TIP3    H231149   1.554   5.481   7.669  1.6922 -0.3297 -0.4169
 3172TIP3   OH231150   0.191   4.575   7.500  0.2625 -0.4309  0.1772
 3172TIP3    H131151   0.161   4.489   7.470  0.3489 -0.1118 -0.8752
 3172TIP3    H231152   0.154   4.584   7.588 -0.5827 -1.1270 -0.0863
 3173TIP3   OH231153   5.698   3.123   0.732 -0.3949  0.6910 -0.5885
 3173TIP3    H131154   5.730   3.161   0.814  1.0742 -1.1846 -0.2164
 3173TIP3    H231155   5.604   3.114   0.745 -0.4797  2.2257  0.0878
 3174TIP3   OH231156   1.696   5.749   7.350 -0.0452 -0.2934  0.1408
 3174TIP3    H131157   1.635   5.676   7.355  2.4945 -2.6550 -0.6876
 3174TIP3    H231158   1.691   5.779   7.260  0.4919 -0.9713 -0.1235
 3175TIP3   OH231159   4.317   3.297   0.796 -0.0914 -0.0901  0.6010
 3175TIP3    H131160   4.365   3.339   0.724 -0.4163 -1.9634 -0.7588
 3175TIP3    H231161   4.225   3.315   0.778 -0.4177 -2.9805 -1.1855
 3176TIP3   OH231162   3.912   1.143   8.173 -0.1351 -0.4937  0.3263
 3176TIP3    H131163   3.924   1.056   8.210 -1.0967 -0.4784  0.7071
 3176TIP3    H231164   3.820   1.145   8.147 -0.1337  0.4205  0.3602
 3177TIP3   OH231165   3.733   2.610   1.432 -0.3095  0.0642  0.6810
 3177TIP3    H131166   3.744   2.681   1.496 -1.2216 -0.3188  1.2986
 3177TIP3    H231167   3.652   2.566   1.460  0.2004 -1.1691  0.2665
 3178TIP3   OH231168   5.445   1.593   6.826 -0.4726  0.2529  0.5165
 3178TIP3    H131169   5.449   1.507   6.867 -2.7472  0.2841  0.9377
 3178TIP3    H231170   5.375   1.585   6.761  0.0184  1.4887 -0.1985
 3179TIP3   OH231171   4.397   6.170   2.478 -0.4890 -0.1732  0.3619
 3179TIP3    H131172   4.420   6.091   2.528 -1.8979 -0.7015  0.2214
 3179TIP3    H231173   4.361   6.229   2.544  0.5290  0.3613  0.4587
 3180TIP3   OH231174   4.093   6.346   1.648 -0.7963  0.1608  0.0607
 3180TIP3    H131175   4.063   6.329   1.559 -0.0023 -0.4874 -0.0981
 3180TIP3    H231176   4.170   6.290   1.659 -0.3337  0.9152  0.8401
 3181TIP3   OH231177   0.030   5.637   1.972  0.2425 -0.5581 -0.3052
 3181TIP3    H131178   0.057   5.579   1.901 -1.1263 -0.5120 -0.8923
 3181TIP3    H231179   0.053   5.725   1.941 -0.4118 -0.5324 -0.7281
 3182TIP3   OH231180   4.787   1.689   0.789  0.2174  0.1076  0.6140
 3182TIP3    H131181   4.863   1.740   0.763  0.3111 -0.0994  0.4744
 3182TIP3    H231182   4.745   1.665   0.706  0.5005 -0.5322  0.6474
 3183TIP3   OH231183   5.124   5.490   6.680 -0.4016  0.3716  0.1581
 3183TIP3    H131184   5.099   5.557   6.616 -0.9317  0.6819  0.6777
 3183TIP3    H231185   5.059   5.421   6.669 -0.2312  0.2251  0.0609
 3184TIP3   OH231186   1.087   3.117   7.325  0.3313 -0.4137  0.3309
 3184TIP3    H131187   1.020   3.122   7.258 -1.3210 -3.1346  1.6221
 3184TIP3    H231188   1.122   3.206   7.331 -1.2174  0.4587 -2.2975
 3185TIP3   OH231189   5.701   5.303   8.245 -1.2559 -0.4987  0.2585
 3185TIP3    H131190   5.654   5.316   8.328 -0.4316  1.5149  0.4742
 3185TIP3    H231191   5.685   5.383   8.196  0.1591 -0.6923 -0.5588
 3186TIP3   OH231192   2.927   6.000   0.458  0.4266 -0.4292 -0.7804
 3186TIP3    H131193   2.848   5.977   0.409 -1.2361  0.9063  1.0999
 3186TIP3    H231194   2.935   6.095   0.449  1.1727 -0.4097 -0.0569
 3187TIP3   OH231195   4.435   3.537   7.345  0.3658 -0.7231  0.1548
 3187TIP3    H131196   4.528   3.543   7.321 -0.1963 -0.2705 -2.2554
 3187TIP3    H231197   4.406   3.628   7.348 -0.3147 -0.8977 -0.6718
 3188TIP3   OH231198   3.788   0.581   7.945  0.5686  0.4585  0.0628
 3188TIP3    H131199   3.747   0.533   7.873 -1.0136  0.0286  1.2065
 3188TIP3    H231200   3.879   0.592   7.918 -0.1945  1.2026 -2.4639
 3189TIP3   OH231201   0.709   3.352   1.318 -0.4417  0.2001  0.4172
 3189TIP3    H131202   0.762   3.289   1.268  1.5422 -0.8285  3.5065
 3189TIP3    H231203   0.622   3.312   1.321 -0.2034 -0.4921 -0.8072
 3190TIP3   OH231204   4.301   3.431   8.539  0.0300 -0.1009 -0.0462
 3190TIP3    H131205   4.380   3.455   8.589 -1.2155  1.5780  1.2161
 3190TIP3    H231206   4.239   3.403   8.606 -0.5979 -1.0109 -0.9985
 3191TIP3   OH231207   4.850   0.862   1.616  0.1043 -0.0345  0.1041
 3191TIP3    H131208   4.868   0.823   1.702  0.2727  1.7928  0.9470
 3191TIP3    H231209   4.856   0.789   1.555 -0.2549 -1.4405  1.6682
 3192TIP3   OH231210   3.532   0.123   1.053  0.2331 -0.1124 -0.7939
 3192TIP3    H131211   3.466   0.188   1.030  0.8077  1.3020  1.2565
 3192TIP3    H231212   3.486   0.059   1.107  0.1242 -0.2175 -1.0115
 3193TIP3   OH231213   3.539   4.189   0.314 -0.2904 -0.4550 -0.0489
 3193TIP3    H131214   3.475   4.220   0.378 -0.0925 -0.1671  0.0123
 3193TIP3    H231215   3.547   4.261   0.251  1.5680  0.4545  1.1116
 3194TIP3   OH231216   4.320   6.633   2.300 -0.0105  0.5398 -0.6331
 3194TIP3    H131217   4.270   6.593   2.371 -0.8706  1.1881 -0.8515
 3194TIP3    H231218   4.374   6.562   2.266  0.6760  0.2938  0.8730
 3195TIP3   OH231219   1.023   3.826   2.501 -0.1703 -0.0326  0.0166
 3195TIP3    H131220   0.995   3.907   2.458  0.1597 -1.1779 -2.5873
 3195TIP3    H231221   1.108   3.847   2.540 -0.7606  1.2420  0.6264
 3196TIP3   OH231222   4.644   2.949   8.038 -0.0486 -0.3185 -0.1534
 3196TIP3    H131223   4.734   2.979   8.056  0.4073 -1.8669  0.2866
 3196TIP3    H231224   4.591   3.028   8.049  1.0495  0.2694  1.3959
 3197TIP3   OH231225   0.114   0.153   2.494 -0.1340  0.6726  0.1417
 3197TIP3    H131226   0.100   0.064   2.527  0.7973  0.6797  0.6043
 3197TIP3    H231227   0.036   0.201   2.521 -1.4545 -0.3740 -1.5801
 3198TIP3   OH231228   1.150   5.474   2.681  0.0584  0.3401  0.9066
 3198TIP3    H131229   1.243   5.458   2.697 -0.0540  0.6393  1.9466
 3198TIP3    H231230   1.144   5.494   2.588  1.3999  2.8054  1.2741
 3199TIP3   OH231231   5.772   4.202   8.767 -0.4809 -0.6573  0.1045
 3199TIP3    H131232   5.795   4.152   8.689  1.0460 -0.2516  0.2688
 3199TIP3    H231233   5.843   4.186   8.828 -0.1080  1.3854  0.3029
 3200TIP3   OH231234   2.760   6.206   0.643  0.1668 -0.2178 -0.5157
 3200TIP3    H131235   2.679   6.225   0.595 -0.3189  0.0720  0.3904
 3200TIP3    H231236   2.815   6.161   0.579  0.5166  2.2448 -2.0979
 3201TIP3   OH231237   0.633   1.617   7.486 -0.0102 -0.2569 -0.2525
 3201TIP3    H131238   0.694   1.551   7.518 -0.7018 -0.9463 -0.3256
 3201TIP3    H231239   0.605   1.584   7.401 -1.3913 -0.5652  0.2995
 3202TIP3   OH231240   6.715   4.600   9.104 -0.2254  0.4516 -0.0530
 3202TIP3    H131241   6.725   4.510   9.073 -2.1437  0.9507 -2.4475
 3202TIP3    H231242   6.713   4.593   9.199  1.1376 -1.8220 -0.1274
 3203TIP3   OH231243   4.729   4.573   7.652  0.0757  0.5089 -0.1096
 3203TIP3    H131244   4.684   4.626   7.717 -1.4357  0.4874 -1.0858
 3203TIP3    H231245   4.757   4.636   7.585 -0.0810  0.3127 -0.3648
 3204TIP3   OH231246   2.043   3.107   6.248 -0.1979 -0.5211  0.0617
 3204TIP3    H131247   1.982   3.063   6.306 -2.3188  0.1724 -1.5093
 3204TIP3    H231248   2.088   3.037   6.202  1.0340 -1.0601  1.9868
 3205TIP3   OH231249   4.867   6.007   7.455  0.5955  0.3208  0.6006
 3205TIP3    H131250   4.948   5.990   7.407  0.5842 -0.8142  0.9589
 3205TIP3    H231251   4.798   5.998   7.389  0.5382 -1.7032  0.8590
 3206TIP3   OH231252   5.004   4.984   1.394 -0.3141 -0.1301  0.3226
 3206TIP3    H131253   4.920   4.960   1.432 -0.8062 -0.9590 -1.1823
 3206TIP3    H231254   5.023   4.913   1.332  1.3056  0.2367  0.3491
 3207TIP3   OH231255   4.145   1.384   7.267  0.1120  0.3047  0.1950
 3207TIP3    H131256   4.164   1.417   7.179  1.2853  0.9441  0.6703
 3207TIP3    H231257   4.113   1.295   7.252  0.3478  0.3829 -0.8807
 3208TIP3   OH231258   1.817   5.872   7.859  0.2504  0.3010 -0.0079
 3208TIP3    H131259   1.794   5.887   7.768  0.3285  0.4693 -0.0002
 3208TIP3    H231260   1.908   5.844   7.858 -0.1529 -1.0470 -0.0969
 3209TIP3   OH231261   6.265   2.441   1.295  0.4153  0.0718 -0.3199
 3209TIP3    H131262   6.174   2.438   1.326  0.2307 -0.9490 -0.9295
 3209TIP3    H231263   6.284   2.534   1.287 -1.3427  0.3164 -2.4079
 3210TIP3   OH231264   4.776   1.981   8.415 -0.1180  0.0727  0.4495
 3210TIP3    H131265   4.745   2.060   8.370 -2.4948 -1.5722 -1.1043
 3210TIP3    H231266   4.793   2.009   8.504 -2.0845  2.1453  0.2877
 3211TIP3   OH231267   2.818   5.092   9.077 -0.2855 -0.1157 -0.0343
 3211TIP3    H131268   2.781   5.141   9.149 -0.2144 -1.8510  1.2499
 3211TIP3    H231269   2.745   5.080   9.016 -0.8335 -0.1598  0.6163
 3212TIP3   OH231270   4.711   6.688   2.038 -0.1528  0.0678 -0.1536
 3212TIP3    H131271   4.705   6.596   2.015  0.3721 -0.3879  1.3988
 3212TIP3    H231272   4.804   6.710   2.031 -0.4236  0.8339 -1.7048
 3213TIP3   OH231273   4.468   6.350   7.938 -0.7232 -0.4415 -0.1907
 3213TIP3    H131274   4.443   6.423   7.881 -3.9033 -0.3827  1.0850
 3213TIP3    H231275   4.531   6.388   7.999 -0.1961  0.4693 -1.2675
 3214TIP3   OH231276   4.461   0.221   1.675  0.1991 -0.6248  0.1945
 3214TIP3    H131277   4.401   0.204   1.602 -0.5157 -1.5678  0.9784
 3214TIP3    H231278   4.544   0.243   1.633 -0.3907 -0.4407 -0.9062
 3215TIP3   OH231279   6.268   5.620   1.810  0.3673  0.0058  0.0465
 3215TIP3    H131280   6.347   5.663   1.776 -0.3274  0.3296 -1.2201
 3215TIP3    H231281   6.201   5.688   1.807 -0.4577 -0.8228 -0.8381
 3216TIP3   OH231282   0.434   4.530   6.867  0.1504 -0.0859 -0.0909
 3216TIP3    H131283   0.473   4.443   6.868  0.2652 -0.0838 -1.6693
 3216TIP3    H231284   0.362   4.525   6.929  0.5093 -1.1397  0.2542
 3217TIP3   OH231285   3.307   2.208   1.526  0.0762 -0.2666 -0.0987
 3217TIP3    H131286   3.384   2.216   1.470  0.0469  2.1155  0.0907
 3217TIP3    H231287   3.289   2.114   1.529  0.3878 -0.5614 -3.6107
 3218TIP3   OH231288   2.269   2.156   2.322  0.3195 -0.0419 -0.3740
 3218TIP3    H131289   2.309   2.212   2.255  0.2910 -0.4131 -0.7080
 3218TIP3    H231290   2.197   2.112   2.276 -1.5162  1.7828  0.5896
 3219TIP3   OH231291   0.782   1.196   0.455 -0.5034  0.1324  0.0969
 3219TIP3    H131292   0.742   1.242   0.528  1.4201 -0.6618  1.7534
 3219TIP3    H231293   0.710   1.151   0.412 -1.4760 -0.9289  2.6821
 3220TIP3   OH231294   1.810   3.626   7.381 -0.5397 -0.2200  0.0411
 3220TIP3    H131295   1.862   3.611   7.302 -0.2794  2.0145 -0.2591
 3220TIP3    H231296   1.719   3.617   7.353 -0.4152 -1.4359 -0.0324
 3221TIP3   OH231297   4.770   6.475   1.690  0.3244 -0.4242  0.2316
 3221TIP3    H131298   4.758   6.569   1.685 -0.0452 -0.4574  0.5290
 3221TIP3    H231299   4.697   6.438   1.639  0.1000 -0.5686  0.6554
 3222TIP3   OH231300   5.572   3.399   7.464  0.1086  0.2449  0.0163
 3222TIP3    H131301   5.608   3.380   7.377  1.9432  0.3431  0.7045
 3222TIP3    H231302   5.535   3.486   7.457 -0.3342 -0.0008 -0.8251
 3223TIP3   OH231303   4.481   3.785   8.722  0.2570 -0.0524  0.6004
 3223TIP3    H131304   4.573   3.805   8.704 -0.2963  0.5749 -1.8499
 3223TIP3    H231305   4.458   3.845   8.793  1.7216 -0.2719  1.3144
 3224TIP3   OH231306   2.142   3.288   7.558 -0.0353  0.0936  0.0664
 3224TIP3    H131307   2.177   3.365   7.512 -0.4516 -0.1875 -0.7327
 3224TIP3    H231308   2.177   3.213   7.510  0.2918 -0.2234  0.7887
 3225TIP3   OH231309   0.298   5.049   8.084 -0.1148 -0.0531  0.0712
 3225TIP3    H131310   0.347   4.987   8.138 -0.7414 -1.8588 -1.3203
 3225TIP3    H231311   0.359   5.121   8.069  1.2535 -1.1025  0.3916
 3226TIP3   OH231312   5.874   4.320   2.298  0.1843 -0.5690  0.3432
 3226TIP3    H131313   5.963   4.354   2.302  0.1772 -0.3457 -1.0777
 3226TIP3    H231314   5.876   4.241   2.352  1.3061 -0.7190  0.0939
 3227TIP3   OH231315   6.286   4.401   7.453 -0.5671 -0.1863 -0.2537
 3227TIP3    H131316   6.308   4.485   7.494 -2.7122 -0.4600  1.6427
 3227TIP3    H231317   6.331   4.336   7.506 -1.3509 -0.3898  0.1780
 3228TIP3   OH231318   2.722   6.268   1.196  0.4018 -0.3671  0.0602
 3228TIP3    H131319   2.753   6.216   1.122  0.4900 -1.4286  0.8277
 3228TIP3    H231320   2.649   6.319   1.160  0.3821 -0.9292 -0.7335
 3229TIP3   OH231321   6.254   4.024   7.687  0.3492  0.7158  0.6722
 3229TIP3    H131322   6.175   4.075   7.699  1.1738  1.8506  1.5349
 3229TIP3    H231323   6.309   4.077   7.628  0.6267  0.1146  0.3669
 3230TIP3   OH231324   4.926   6.486   2.198  0.3395 -0.2703 -0.6186
 3230TIP3    H131325   4.933   6.515   2.289  0.6158  0.4085 -0.8536
 3230TIP3    H231326   4.911   6.566   2.148  1.0079 -0.5342 -1.2604
 3231TIP3   OH231327   2.889   2.302   0.232 -0.1344 -0.1526 -0.0414
 3231TIP3    H131328   2.967   2.338   0.191 -0.6437  0.5979 -0.3808
 3231TIP3    H231329   2.919   2.270   0.317  0.6138 -0.2347 -0.3284
 3232TIP3   OH231330   0.262   4.053   8.612  0.1456 -0.0608  0.4771
 3232TIP3    H131331   0.197   3.988   8.588 -0.4675  1.0715 -1.0668
 3232TIP3    H231332   0.263   4.051   8.708 -1.1435 -1.0679  0.4951
 3233TIP3   OH231333   5.466   6.032   1.803  0.4349 -0.3999 -0.1093
 3233TIP3    H131334   5.505   6.064   1.722  1.6816 -0.3176  0.4970
 3233TIP3    H231335   5.406   6.102   1.830  1.7703  0.6425  0.2491
 3234TIP3   OH231336   0.378   5.325   9.005 -0.1603  0.3557 -0.0964
 3234TIP3    H131337   0.418   5.343   9.090 -1.5173  0.1483  0.6225
 3234TIP3    H231338   0.329   5.244   9.019 -1.5589  1.0744 -0.6480
 3235TIP3   OH231339   5.920   0.968   2.055 -0.9560  0.2743 -0.1941
 3235TIP3    H131340   5.870   0.956   2.135 -1.3377 -0.4757 -0.5312
 3235TIP3    H231341   5.906   0.887   2.005 -0.1935  0.4477 -0.7250
 3236TIP3   OH231342   5.892   1.205   0.784  0.5218  0.1297 -0.1362
 3236TIP3    H131343   5.833   1.280   0.784 -0.6449 -0.7222 -2.0717
 3236TIP3    H231344   5.841   1.134   0.745  2.7299 -0.6938 -1.7457
 3237TIP3   OH231345   0.009   2.488   6.624 -0.1287  0.3143  0.0465
 3237TIP3    H131346   0.102   2.502   6.644 -0.0819  1.6277 -0.9866
 3237TIP3    H231347  -0.000   2.393   6.621  1.3197  0.1661 -0.4435
 3238TIP3   OH231348   1.805   0.785   8.899  0.5687  0.2321  0.1804
 3238TIP3    H131349   1.871   0.748   8.840  1.0357  1.0480  0.1656
 3238TIP3    H231350   1.771   0.861   8.851 -1.0276 -0.6878 -0.1853
 3239TIP3   OH231351   2.749   2.363   7.762  0.3580  0.4694  0.2816
 3239TIP3    H131352   2.788   2.450   7.755  0.5536  0.2412 -3.6742
 3239TIP3    H231353   2.655   2.379   7.759  0.4020  0.5496 -0.9026
 3240TIP3   OH231354   1.515   2.175   1.824  0.4318  0.0466 -0.1396
 3240TIP3    H131355   1.595   2.227   1.832 -1.2659  3.4142 -2.5384
 3240TIP3    H231356   1.455   2.216   1.886 -1.3255  2.0642 -2.9346
 3241TIP3   OH231357   5.379   0.573   0.559 -0.4679  0.6198 -0.0368
 3241TIP3    H131358   5.388   0.487   0.599 -0.2888  0.7177  0.1317
 3241TIP3    H231359   5.285   0.582   0.543 -0.3260 -0.2367 -1.4584
 3242TIP3   OH231360   1.842   5.151   8.680  0.0854  0.1606 -0.1280
 3242TIP3    H131361   1.767   5.208   8.660  0.7273  1.0140 -0.1744
 3242TIP3    H231362   1.911   5.182   8.622  0.2308 -1.1872 -0.7064
 3243TIP3   OH231363   1.215   4.301   1.605 -0.1612  0.7143 -0.2385
 3243TIP3    H131364   1.196   4.273   1.695  0.7370  0.7690 -0.0223
 3243TIP3    H231365   1.234   4.395   1.613 -3.7030  1.6534 -1.0287
 3244TIP3   OH231366   0.568   2.544   8.786 -0.1131  0.6948 -0.3630
 3244TIP3    H131367   0.620   2.577   8.859 -0.0690 -0.1739  0.0054
 3244TIP3    H231368   0.620   2.472   8.750  0.2184  1.5852 -1.7335
 3245TIP3   OH231369   0.741   6.132   7.170 -0.3764 -0.6269  0.0405
 3245TIP3    H131370   0.686   6.172   7.237  1.1780 -1.8347  2.1708
 3245TIP3    H231371   0.719   6.178   7.089  0.2238  3.5028  1.9946
 3246TIP3   OH231372   1.040   5.139   8.045 -0.2069  0.1250 -0.3362
 3246TIP3    H131373   1.010   5.075   8.110  0.1537 -0.5913 -0.8734
 3246TIP3    H231374   0.985   5.216   8.062 -0.6878 -0.3347  0.2761
 3247TIP3   OH231375   4.110   5.228   8.466  0.3492 -0.3097 -0.2850
 3247TIP3    H131376   4.138   5.161   8.404 -2.5359 -0.8042 -1.2168
 3247TIP3    H231377   4.046   5.280   8.418 -1.5476 -0.3199  2.0315
 3248TIP3   OH231378   3.100   4.651   0.224  0.0040 -0.3172 -0.6139
 3248TIP3    H131379   3.038   4.724   0.223 -1.4317 -1.4778 -0.2112
 3248TIP3    H231380   3.150   4.660   0.143 -1.2923  0.1838 -1.3928
 3249TIP3   OH231381   5.173   3.001   0.238 -0.2909 -0.1806  0.1347
 3249TIP3    H131382   5.209   2.941   0.172  0.2382  1.0862 -0.7845
 3249TIP3    H231383   5.086   3.024   0.205 -0.0174  0.4706 -0.1723
 3250TIP3   OH231384   4.754   5.221   8.901  0.3595  0.5742  0.3093
 3250TIP3    H131385   4.845   5.194   8.912 -0.0412 -1.0139 -0.1213
 3250TIP3    H231386   4.751   5.261   8.814  0.2380 -1.3466 -0.6249
 3251TIP3   OH231387   3.234   6.142   8.751 -0.0269 -0.3340 -0.0354
 3251TIP3    H131388   3.294   6.097   8.691 -0.0991 -0.3187 -0.1192
 3251TIP3    H231389   3.170   6.183   8.694 -1.3549 -2.1014  0.1130
 3252TIP3   OH231390   4.518   0.040   8.232  0.0791 -0.4651  0.4258
 3252TIP3    H131391   4.605   0.057   8.269 -0.0241 -0.1723  0.5354
 3252TIP3    H231392   4.527   0.060   8.139  0.2962 -1.0467  0.3143
 3253TIP3   OH231393   5.204   1.185   1.750  0.0945 -0.2858 -0.1329
 3253TIP3    H131394   5.156   1.147   1.676 -1.3394 -1.5354  1.3738
 3253TIP3    H231395   5.137   1.229   1.802  0.7082 -1.2372  1.5265
 3254TIP3   OH231396   2.140   1.063   9.064 -0.4513 -0.6971 -0.9211
 3254TIP3    H131397   2.046   1.078   9.076 -0.5385 -1.1412 -1.0416
 3254TIP3    H231398   2.181   1.144   9.094 -0.8952 -0.3497 -1.2455
 3255TIP3   OH231399   3.166   6.713   9.069 -0.3355 -0.2910 -0.3365
 3255TIP3    H131400   3.100   6.757   9.124  0.1101 -0.4010  0.2981
 3255TIP3    H231401   3.136   6.622   9.065 -0.2966 -0.3127 -0.1570
 3256TIP3   OH231402   4.494   3.773   0.021 -0.0797  0.1961  0.3300
 3256TIP3    H131403   4.475   3.800   0.111  1.3019 -0.2462  0.7713
 3256TIP3    H231404   4.586   3.748   0.022 -0.4974 -1.5433 -0.7886
 3257TIP3   OH231405   3.693   3.007   7.477 -0.0740  0.1947 -0.1688
 3257TIP3    H131406   3.704   2.912   7.475  0.8566  0.2981 -2.0746
 3257TIP3    H231407   3.717   3.032   7.565 -1.8815 -1.4828  0.8902
 3258TIP3   OH231408   0.118   1.178   2.173 -0.1309  0.3302  0.0042
 3258TIP3    H131409   0.050   1.202   2.235  0.4829  1.3985  0.2751
 3258TIP3    H231410   0.127   1.083   2.184 -1.4579  0.1856  0.0588
 3259TIP3   OH231411   4.537   2.065   2.242  0.3670 -0.2285 -0.5451
 3259TIP3    H131412   4.612   2.006   2.255 -0.5989 -1.1580  1.1554
 3259TIP3    H231413   4.473   2.011   2.196  0.8300  0.6830 -2.3492
 3260TIP3   OH231414   0.007   2.934   2.079  0.2249  0.3312 -0.2744
 3260TIP3    H131415   0.064   2.869   2.120  0.4030  0.2907 -0.5816
 3260TIP3    H231416   0.056   3.016   2.084 -0.2045  0.5493  0.5529
 3261TIP3   OH231417   4.207   0.076   0.790  0.4404 -0.3070  0.8090
 3261TIP3    H131418   4.124   0.113   0.820 -0.8217 -3.3372  1.4668
 3261TIP3    H231419   4.240   0.028   0.866  1.5397 -1.1302 -0.1546
 3262TIP3   OH231420   3.347   3.037   7.785  0.0667 -0.6471  0.2683
 3262TIP3    H131421   3.410   3.102   7.755 -0.9347  0.9792  1.5874
 3262TIP3    H231422   3.392   2.991   7.856  0.5670 -1.0460 -0.2935
 3263TIP3   OH231423   4.975   1.512   8.298  0.6287 -0.3110 -0.3410
 3263TIP3    H131424   5.026   1.565   8.359  2.2190 -1.1927 -0.8381
 3263TIP3    H231425   5.015   1.425   8.302  0.0430 -0.6885 -1.7857
 3264TIP3   OH231426   1.895   5.141   1.872  0.0740  0.0699  0.4367
 3264TIP3    H131427   1.954   5.066   1.858 -1.7223 -1.3263 -0.1050
 3264TIP3    H231428   1.876   5.174   1.785 -0.8406 -0.2414  0.5089
 3265TIP3   OH231429   4.168   4.852   7.672 -0.1838 -0.9733  0.4901
 3265TIP3    H131430   4.156   4.815   7.585 -0.9288 -2.3610  1.1498
 3265TIP3    H231431   4.199   4.779   7.726 -2.9354 -1.0939  2.1330
 3266TIP3   OH231432   5.732   0.221   0.454  0.1393  0.6008  0.0142
 3266TIP3    H131433   5.657   0.211   0.396  0.9662 -0.9447 -0.8733
 3266TIP3    H231434   5.802   0.253   0.397  0.4925  0.7821  0.5439
 3267TIP3   OH231435   6.274   4.610   7.774 -0.5497 -0.4469  0.0757
 3267TIP3    H131436   6.358   4.636   7.813 -0.5349 -1.0276  0.4322
 3267TIP3    H231437   6.216   4.595   7.848 -1.6260  1.9759 -0.1755
 3268TIP3   OH231438   0.049   0.960   7.589  0.3805 -0.1968  0.4689
 3268TIP3    H131439   0.116   0.948   7.522  2.0777  2.6454  1.4785
 3268TIP3    H231440  -0.007   1.030   7.555  0.4130  0.2851  1.3740
 3269TIP3   OH231441   3.150   2.055   0.424 -0.2366 -0.2058  0.0122
 3269TIP3    H131442   3.076   2.095   0.470 -1.3762 -3.2638  1.1065
 3269TIP3    H231443   3.208   2.025   0.493 -0.9081 -2.9480 -0.4843
 3270TIP3   OH231444   2.663   3.974   8.149  0.6430  0.0988  0.0746
 3270TIP3    H131445   2.669   4.063   8.184  1.4024  0.2939 -0.5220
 3270TIP3    H231446   2.592   3.934   8.199 -0.2999  1.3026 -0.2391
 3271TIP3   OH231447   2.694   5.660   7.288  0.3769  0.2575  0.7779
 3271TIP3    H131448   2.757   5.600   7.249  1.2146  0.1094  2.2859
 3271TIP3    H231449   2.691   5.734   7.228  0.9158 -0.3706 -0.0394
 3272TIP3   OH231450   0.491   5.136   2.083  0.4512 -0.1669  0.5036
 3272TIP3    H131451   0.578   5.163   2.112  0.0652 -0.0342  1.5772
 3272TIP3    H231452   0.504   5.048   2.049  1.1780  0.2179 -0.2505
 3273TIP3   OH231453   0.293   5.845   0.597  0.0107 -0.1654 -0.6868
 3273TIP3    H131454   0.225   5.905   0.627  0.5958  1.2922 -2.1042
 3273TIP3    H231455   0.361   5.851   0.664 -1.4814 -2.2479  1.1642
 3274TIP3   OH231456   0.621   5.941   2.608 -0.8892 -0.7194 -0.2484
 3274TIP3    H131457   0.696   5.925   2.551  1.3109 -1.6831  2.6815
 3274TIP3    H231458   0.584   5.855   2.625 -0.3276 -0.6889  1.2307
 3275TIP3   OH231459   2.403   3.890   0.654 -0.3167 -0.4052  0.3872
 3275TIP3    H131460   2.465   3.952   0.615  0.2722 -1.3682 -0.2560
 3275TIP3    H231461   2.448   3.860   0.734 -0.3841 -0.3745  0.4365
 3276TIP3   OH231462   3.352   1.597   7.252  0.5348  0.2637 -1.2795
 3276TIP3    H131463   3.381   1.520   7.300  1.1133  0.4776 -1.2770
 3276TIP3    H231464   3.273   1.626   7.298 -0.1249 -0.7562 -1.7285
 3277TIP3   OH231465   4.192   2.579   8.960 -0.0029 -0.1660  0.1281
 3277TIP3    H131466   4.243   2.514   9.009 -0.2071 -0.3166  0.1389
 3277TIP3    H231467   4.257   2.646   8.935  0.2458 -0.4772 -0.0647
 3278TIP3   OH231468   5.500   0.284   1.649  0.1711  0.1613 -0.2767
 3278TIP3    H131469   5.561   0.350   1.615  1.4001 -0.2810  0.9688
 3278TIP3    H231470   5.557   0.216   1.686 -0.9346  1.0654  3.5868
 3279TIP3   OH231471   1.404   1.174   0.043  0.2245  0.2465 -0.3718
 3279TIP3    H131472   1.457   1.191  -0.034  1.9803 -1.6549  0.3520
 3279TIP3    H231473   1.460   1.199   0.117  0.2026 -1.8537  0.4087
 3280TIP3   OH231474   1.641   2.510   7.064  0.2296 -0.4745 -0.1494
 3280TIP3    H131475   1.563   2.463   7.092 -0.6117  1.1035  0.2928
 3280TIP3    H231476   1.673   2.462   6.987 -0.5961 -1.6942  0.2383
 3281TIP3   OH231477   0.475   4.191   7.300 -0.5903  0.4761 -0.0169
 3281TIP3    H131478   0.489   4.128   7.229  2.4318  0.9447  0.0190
 3281TIP3    H231479   0.560   4.234   7.311 -1.8683  2.7881  1.6699
 3282TIP3   OH231480   3.746   4.756   7.000 -0.1747  0.5297  0.2267
 3282TIP3    H131481   3.676   4.697   7.026 -0.7955  2.3784  3.2071
 3282TIP3    H231482   3.706   4.815   6.937 -0.6706  0.2501  0.2772
 3283TIP3   OH231483   5.223   1.803   8.736 -1.2178  0.4571  0.7098
 3283TIP3    H131484   5.303   1.769   8.695 -0.3501  0.1198  2.6009
 3283TIP3    H231485   5.243   1.894   8.757 -2.1360  1.0358 -0.7292
 3284TIP3   OH231486   6.029   5.189   8.892 -0.0972 -0.0636  0.2831
 3284TIP3    H131487   6.050   5.283   8.897 -0.6423  0.0892 -0.1626
 3284TIP3    H231488   5.943   5.182   8.933 -1.9524  0.3012 -3.1942
 3285TIP3   OH231489   4.379   3.397   1.594 -0.0328 -0.5638  0.1453
 3285TIP3    H131490   4.315   3.354   1.651 -0.3858 -0.3243 -0.0651
 3285TIP3    H231491   4.456   3.339   1.596  0.2427 -0.1826  1.4588
 3286TIP3   OH231492   3.741   3.013   0.788 -0.0908  0.5355  0.2921
 3286TIP3    H131493   3.786   2.964   0.719  0.7205  3.7328 -1.6345
 3286TIP3    H231494   3.677   3.067   0.742 -0.3171  1.9780  2.1707
 3287TIP3   OH231495   1.217   1.974   7.427 -0.1377  0.3943 -0.3759
 3287TIP3    H131496   1.245   2.056   7.386  0.9621 -0.6827 -1.8857
 3287TIP3    H231497   1.232   1.988   7.521 -0.0615  1.9499 -0.5962
 3288TIP3   OH231498   1.230   4.971   7.892  0.3381 -0.7337 -0.2315
 3288TIP3    H131499   1.163   5.005   7.951  0.4771 -1.7883  0.5678
 3288TIP3    H231500   1.181   4.932   7.820  0.1475 -0.0174 -0.4941
 3289TIP3   OH231501   6.173   3.131   0.257  0.1703 -0.1726 -0.0253
 3289TIP3    H131502   6.218   3.072   0.196  0.0321 -0.0090 -0.2837
 3289TIP3    H231503   6.244   3.170   0.308  0.2275 -1.1477  0.6899
 3290TIP3   OH231504   1.076   1.026   7.112 -0.1070  0.5125 -0.2517
 3290TIP3    H131505   1.009   1.009   7.179  2.0959 -1.6999  1.5849
 3290TIP3    H231506   1.080   0.944   7.062  0.3269  1.1001 -1.1998
 3291TIP3   OH231507   0.952   0.018   8.701  0.6790  0.5415  0.1910
 3291TIP3    H131508   0.970   0.039   8.793  1.3990 -1.4346  0.5566
 3291TIP3    H231509   0.858  -0.001   8.699 -0.1181  3.9468 -0.2612
 3292TIP3   OH231510   4.675   4.297   7.943  0.2076  0.0816 -0.9745
 3292TIP3    H131511   4.698   4.317   8.034 -1.8867 -0.8347 -0.2022
 3292TIP3    H231512   4.716   4.212   7.927  0.9483  0.4430 -1.0596
 3293TIP3   OH231513   2.838   6.619   1.198 -0.6384 -0.3575  0.5602
 3293TIP3    H131514   2.763   6.657   1.153 -0.1049  1.0742  0.8419
 3293TIP3    H231515   2.896   6.588   1.128 -1.2338 -0.9898  0.3375
 3294TIP3   OH231516   0.266   6.006   7.327 -0.2716 -0.4324  0.0868
 3294TIP3    H131517   0.249   5.914   7.306  1.5619 -0.5732 -1.0141
 3294TIP3    H231518   0.220   6.020   7.409 -0.6952 -2.3089  0.2307
 3295TIP3   OH231519   5.185   0.921   7.615  0.1134  0.4344 -0.4366
 3295TIP3    H131520   5.192   0.881   7.528  0.1938 -2.7620  0.8984
 3295TIP3    H231521   5.128   0.996   7.602  1.3278  1.0130 -3.4917
 3296TIP3   OH231522   5.930   2.870   8.200  0.2747  0.5423 -0.3422
 3296TIP3    H131523   5.970   2.955   8.220  0.6848  0.0452  1.0660
 3296TIP3    H231524   6.003   2.814   8.174  0.0051  0.6027 -1.2754
 3297TIP3   OH231525   1.117   5.901   2.302 -0.0269 -0.2706 -0.1752
 3297TIP3    H131526   1.081   5.869   2.220 -0.7490  0.0906 -0.0128
 3297TIP3    H231527   1.186   5.839   2.325  2.3690  1.2910 -2.6187
 3298TIP3   OH231528   3.209   6.243   7.249  0.7521 -0.4572  0.0432
 3298TIP3    H131529   3.209   6.229   7.154  0.2469  0.2352 -0.0600
 3298TIP3    H231530   3.208   6.338   7.260  0.1162 -0.5309  0.7401
 3299TIP3   OH231531   5.491   4.447   0.339 -0.2156  0.0970  0.5771
 3299TIP3    H131532   5.503   4.439   0.245 -0.2986 -0.5254  0.6180
 3299TIP3    H231533   5.397   4.457   0.351 -0.1176  1.1665  0.5289
 3300TIP3   OH231534   1.470   5.826   9.065 -0.4225  1.1518 -0.1728
 3300TIP3    H131535   1.503   5.749   9.111 -1.9239  0.7342  0.2657
 3300TIP3    H231536   1.489   5.899   9.123 -1.0450  0.8065  0.4709
 3301TIP3   OH231537   2.148   5.219   0.594 -0.6996 -0.4518 -0.1237
 3301TIP3    H131538   2.114   5.304   0.622 -0.2736  0.5372 -2.3783
 3301TIP3    H231539   2.105   5.203   0.510  0.9600 -1.3661 -0.8460
 3302TIP3   OH231540   5.771   0.165   0.845  0.3687 -0.8995 -0.6209
 3302TIP3    H131541   5.840   0.165   0.779 -0.0093 -1.8978 -1.0340
 3302TIP3    H231542   5.815   0.190   0.926  0.7654  0.7632 -1.2950
 3303TIP3   OH231543   5.503   5.589   1.175  0.1165 -0.1933  0.1915
 3303TIP3    H131544   5.417   5.630   1.171 -1.0021 -2.3399  0.3621
 3303TIP3    H231545   5.525   5.571   1.084 -0.0218 -0.3542  0.1869
 3304TIP3   OH231546   4.974   4.573   8.399  0.0132 -0.3706  0.2127
 3304TIP3    H131547   5.034   4.538   8.465  0.8307 -0.6778 -0.6608
 3304TIP3    H231548   4.887   4.561   8.437  0.4777 -0.1690  1.3997
 3305TIP3   OH231549   2.386   0.744   6.814 -0.9273  0.6639  0.3739
 3305TIP3    H131550   2.447   0.712   6.880  1.0966  1.7960 -0.8626
 3305TIP3    H231551   2.307   0.690   6.826  0.8902 -2.0673  0.9195
 3306TIP3   OH231552   1.649   2.683   0.126  0.0819 -0.0251  0.4292
 3306TIP3    H131553   1.718   2.675   0.192 -0.5410 -1.2855  0.9589
 3306TIP3    H231554   1.684   2.746   0.062  1.5836 -0.3887  0.8515
 3307TIP3   OH231555   5.852   4.050   1.011  0.1434  0.6721  0.0052
 3307TIP3    H131556   5.764   4.033   0.978  0.8223 -2.9581 -0.3828
 3307TIP3    H231557   5.885   4.120   0.955 -0.8760 -1.1989 -3.2406
 3308TIP3   OH231558   6.320   0.512   0.017 -0.0233 -0.0047  0.0426
 3308TIP3    H131559   6.286   0.577  -0.044 -1.7300 -0.1847  0.7327
 3308TIP3    H231560   6.387   0.465  -0.032 -0.9369  0.2464 -1.4973
 3309TIP3   OH231561   3.646   4.817   8.569 -0.0013  1.1469 -0.6093
 3309TIP3    H131562   3.685   4.776   8.646 -1.8971 -0.4514 -0.4208
 3309TIP3    H231563   3.658   4.753   8.499  0.6477  2.0742 -1.3688
 3310TIP3   OH231564   2.191   4.453   8.215  0.4561 -0.4512 -0.1536
 3310TIP3    H131565   2.265   4.430   8.159  1.9014  0.8154  1.1371
 3310TIP3    H231566   2.120   4.474   8.154  1.5980 -0.3104 -1.4745
 3311TIP3   OH231567   6.390   6.087   0.097  0.4911 -0.3228  0.0221
 3311TIP3    H131568   6.474   6.108   0.057  0.5226  0.0575  0.2880
 3311TIP3    H231569   6.330   6.156   0.069  0.0109 -1.0982 -0.9455
 3312TIP3   OH231570   5.476   4.556   7.798 -0.3915 -0.7814  0.2399
 3312TIP3    H131571   5.382   4.568   7.785 -0.2348 -1.6402 -2.1622
 3312TIP3    H231572   5.514   4.643   7.786 -0.9059 -0.2702  2.0424
 3313TIP3   OH231573   1.659   6.024   8.601  0.6781 -0.0566 -0.4251
 3313TIP3    H131574   1.613   5.983   8.674 -1.1042 -0.4460 -1.7018
 3313TIP3    H231575   1.651   6.118   8.617  0.3782 -0.1391 -0.0803
 3314TIP3   OH231576   6.389   5.212   8.191 -0.0788 -0.0021  0.1042
 3314TIP3    H131577   6.473   5.202   8.148 -0.7700 -1.4713 -0.9780
 3314TIP3    H231578   6.396   5.295   8.239  2.1399 -0.3539  0.4836
 3315TIP3   OH231579   6.076   6.729   8.399 -0.1752  0.2479  0.3980
 3315TIP3    H131580   6.166   6.708   8.422 -0.5157 -1.5608  0.2699
 3315TIP3    H231581   6.083   6.795   8.330  1.0994 -0.7221 -0.4440
 3316TIP3   OH231582   0.402   4.650   7.965  0.0752 -0.1952  0.3407
 3316TIP3    H131583   0.352   4.621   8.041 -1.3759 -2.1339 -1.2509
 3316TIP3    H231584   0.485   4.603   7.971 -0.8308 -1.9564 -0.2792
 3317TIP3   OH231585   2.618   2.805   8.154  0.0042 -0.5798 -0.6710
 3317TIP3    H131586   2.530   2.809   8.191  0.3434 -0.1740  0.1011
 3317TIP3    H231587   2.661   2.734   8.201  0.9362  0.9298  0.8620
 3318TIP3   OH231588   4.093   6.323   7.722 -0.4503 -0.2810 -0.3990
 3318TIP3    H131589   4.125   6.365   7.643 -1.5617  3.1267  0.7777
 3318TIP3    H231590   4.138   6.238   7.725  0.7093  0.0942 -3.8345
 3319TIP3   OH231591   1.772   2.308   8.186  0.2789  0.1119  0.2084
 3319TIP3    H131592   1.806   2.370   8.121  1.8940 -2.4826 -1.5792
 3319TIP3    H231593   1.850   2.264   8.219 -0.8914 -1.8746  0.4331
 3320TIP3   OH231594   1.051   6.666   7.729 -0.5061 -0.7095 -0.5085
 3320TIP3    H131595   1.062   6.588   7.784 -0.7182  1.3253  2.7424
 3320TIP3    H231596   0.961   6.694   7.747 -0.1773  0.6929 -0.9737
 3321TIP3   OH231597   6.455   1.280   7.139 -0.0109  0.1743  0.0739
 3321TIP3    H131598   6.449   1.260   7.046 -1.7622  1.2890 -0.1020
 3321TIP3    H231599   6.521   1.349   7.145  0.5524 -0.3270 -0.2442
 3322TIP3   OH231600   2.952   1.479   0.142  0.2270  0.4174 -0.1310
 3322TIP3    H131601   2.949   1.454   0.050 -0.7951  0.5428 -0.1395
 3322TIP3    H231602   2.861   1.478   0.170  0.6170 -1.0190  1.2598
 3323TIP3   OH231603   6.259   1.170   0.337 -0.1610  0.7256 -0.2485
 3323TIP3    H131604   6.232   1.085   0.370  1.6433 -0.6381 -2.0831
 3323TIP3    H231605   6.286   1.219   0.415  0.2390 -0.9297  0.6929
 3324TIP3   OH231606   6.398   1.486   9.090  0.2040  0.7469 -0.1221
 3324TIP3    H131607   6.399   1.471   9.185 -0.7740 -1.7350 -0.4211
 3324TIP3    H231608   6.324   1.545   9.076  0.8450  1.7816  0.7065
 3325TIP3   OH231609   1.396   5.166   8.092 -0.2450  0.3636 -0.1709
 3325TIP3    H131610   1.343   5.120   8.026 -2.0526 -0.4004  1.7286
 3325TIP3    H231611   1.473   5.110   8.102 -0.7750 -0.4262 -0.3942
 3326TIP3   OH231612   3.034   1.088   1.650  0.0526  0.2936  0.5968
 3326TIP3    H131613   3.092   1.016   1.677  0.6434  0.8227  0.7701
 3326TIP3    H231614   3.052   1.157   1.714  0.6614  1.1749 -0.5013
 3327TIP3   OH231615   3.522   1.306   7.803  0.4865 -0.3888  0.4628
 3327TIP3    H131616   3.589   1.373   7.788 -1.5214  1.6823 -0.0150
 3327TIP3    H231617   3.570   1.225   7.815  2.9910  0.7320 -1.2281
 3328TIP3   OH231618   3.514   0.196   1.958 -0.3211 -0.5289  0.3676
 3328TIP3    H131619   3.543   0.179   2.047  1.2684  2.5589  0.5531
 3328TIP3    H231620   3.430   0.240   1.968 -0.1397 -0.1768  0.3430
 3329TIP3   OH231621   2.215   6.629   1.857 -0.0495 -0.6411  0.1698
 3329TIP3    H131622   2.150   6.636   1.927  0.9760  2.9697  1.0132
 3329TIP3    H231623   2.299   6.631   1.903  0.6376  1.0816 -1.0546
 3330TIP3   OH231624   1.210   6.487   7.511  0.0619  0.1198 -0.1143
 3330TIP3    H131625   1.170   6.418   7.457  0.8631  0.0054 -0.5780
 3330TIP3    H231626   1.136   6.534   7.548 -0.5034 -0.3785 -0.5866
 3331TIP3   OH231627   3.338   5.809   7.733  0.8491  0.2879 -0.0679
 3331TIP3    H131628   3.303   5.865   7.665 -1.0428 -0.7207 -0.0100
 3331TIP3    H231629   3.267   5.801   7.797  0.8595 -2.4351 -0.2664
 3332TIP3   OH231630   1.533   3.163   1.790  0.1905 -0.1793 -0.5352
 3332TIP3    H131631   1.615   3.207   1.812 -0.8064  0.9013  1.2679
 3332TIP3    H231632   1.465   3.227   1.813 -1.2363 -1.8353  0.0156
 3333TIP3   OH231633   0.122   4.995   7.905  0.4581  0.1553  0.3374
 3333TIP3    H131634   0.177   5.005   7.983 -0.0388  1.0183  0.5798
 3333TIP3    H231635   0.147   4.909   7.870  1.2602  0.1090  0.9889
 3334TIP3   OH231636   5.768   3.045   1.302 -0.3036  0.0986  0.5829
 3334TIP3    H131637   5.743   3.136   1.290  0.5753  0.5002  1.6161
 3334TIP3    H231638   5.843   3.032   1.244 -0.9003 -0.2058 -0.1425
 3335TIP3   OH231639   1.352   6.505   0.357  0.0557 -0.2263  0.1459
 3335TIP3    H131640   1.413   6.485   0.429  1.0728 -0.3288 -0.7269
 3335TIP3    H231641   1.291   6.431   0.357  1.6775 -1.6469 -0.7919
 3336TIP3   OH231642   1.988   2.880   7.076  0.0258 -0.0799  0.0951
 3336TIP3    H131643   1.922   2.843   7.018  0.2218 -1.5392  0.7337
 3336TIP3    H231644   2.064   2.896   7.020 -0.4626  0.4413 -0.4149
 3337TIP3   OH231645   6.705   1.407   2.038  0.5573 -0.4716  0.6412
 3337TIP3    H131646   6.694   1.313   2.025 -0.6141 -0.1776 -0.6666
 3337TIP3    H231647   6.738   1.439   1.954 -0.1002  0.4443  0.7246
 3338TIP3   OH231648   5.447   3.619   7.350 -0.5672  0.7467 -0.7320
 3338TIP3    H131649   5.531   3.649   7.315 -0.8736  1.5550 -0.7976
 3338TIP3    H231650   5.420   3.688   7.410 -1.4823  0.7919 -1.1785
 3339TIP3   OH231651   3.358   0.013   7.958 -0.4399  0.0049 -0.2154
 3339TIP3    H131652   3.384   0.017   8.050 -2.8184 -1.8373  0.6498
 3339TIP3    H231653   3.435  -0.022   7.913  0.2503 -0.6342  1.3610
 3340TIP3   OH231654   1.628   2.803   0.467  0.1789  0.6268  0.8702
 3340TIP3    H131655   1.645   2.896   0.451  0.5242  0.3151 -0.8083
 3340TIP3    H231656   1.546   2.786   0.420  2.0795 -0.7082 -2.3459
 3341TIP3   OH231657   0.501   5.898   1.599 -0.7141  0.7120 -0.2016
 3341TIP3    H131658   0.469   5.989   1.602 -1.4941  0.4339  0.0843
 3341TIP3    H231659   0.595   5.905   1.619 -0.9223  1.3787  0.6024
 3342TIP3   OH231660   5.937   2.382   6.937 -0.2290 -0.6427 -0.0900
 3342TIP3    H131661   5.883   2.326   6.882 -0.2448 -1.5648  0.8317
 3342TIP3    H231662   5.896   2.468   6.933 -1.2795 -1.1312 -0.0678
 3343TIP3   OH231663   1.843   4.789   1.743  0.2900 -0.0243 -0.4369
 3343TIP3    H131664   1.757   4.816   1.775 -0.3856 -2.8257  0.4548
 3343TIP3    H231665   1.883   4.743   1.817  2.6325  1.2831 -0.8186
 3344TIP3   OH231666   3.326   6.091   0.432  0.0710 -0.1810  0.3641
 3344TIP3    H131667   3.283   6.023   0.381 -0.5098  0.6657 -0.3065
 3344TIP3    H231668   3.419   6.069   0.428  0.0045 -0.3107 -0.7982
 3345TIP3   OH231669   2.558   4.417   1.583  0.4276 -0.4709 -0.2874
 3345TIP3    H131670   2.579   4.447   1.671  2.0293  1.7584 -1.3185
 3345TIP3    H231671   2.642   4.388   1.547  0.1319  0.1986 -1.5829
 3346TIP3   OH231672   2.649   0.017   1.039 -0.2870  0.3512  0.1078
 3346TIP3    H131673   2.608  -0.053   0.988 -1.8456  1.8985 -0.8811
 3346TIP3    H231674   2.583   0.086   1.041  1.1329  1.7365  1.1984
 3347TIP3   OH231675   0.469   2.424   0.561  0.1759  0.1937  0.2041
 3347TIP3    H131676   0.385   2.469   0.550 -0.6451 -1.1857  0.5522
 3347TIP3    H231677   0.509   2.428   0.474  0.2045  1.6702  0.2525
 3348TIP3   OH231678   5.166   6.039   6.813 -0.0256  0.1377 -0.5610
 3348TIP3    H131679   5.087   6.060   6.863  0.5637  0.3521  0.3036
 3348TIP3    H231680   5.238   6.069   6.869  0.7452 -1.7975 -0.4627
 3349TIP3   OH231681   2.731   4.164   1.901  0.3754 -0.3939  0.5829
 3349TIP3    H131682   2.793   4.236   1.910 -0.9768  0.8258  0.6810
 3349TIP3    H231683   2.654   4.193   1.950 -0.6325 -1.4072 -0.3268
 3350TIP3   OH231684   4.854   5.693   7.478 -0.0258 -0.6608  0.0538
 3350TIP3    H131685   4.930   5.638   7.500 -1.1394 -1.2198  2.9906
 3350TIP3    H231686   4.891   5.780   7.467  1.0640 -0.8140  1.9665
 3351TIP3   OH231687   3.524   3.657   6.235 -0.0391  0.0616  0.3652
 3351TIP3    H131688   3.597   3.695   6.184 -1.9277  0.3466 -2.3461
 3351TIP3    H231689   3.466   3.731   6.251 -1.3870 -0.7534 -0.6066
 3352TIP3   OH231690   6.508   3.666   8.283 -0.3613  0.0244 -0.0759
 3352TIP3    H131691   6.439   3.663   8.217 -1.3905  0.0464  0.9747
 3352TIP3    H231692   6.484   3.739   8.340 -0.2499 -0.8281  1.1069
 3353TIP3   OH231693   0.034   1.623   2.202  0.2909 -0.2230 -0.4484
 3353TIP3    H131694  -0.009   1.554   2.152 -0.7892 -0.7253  1.1128
 3353TIP3    H231695  -0.038   1.675   2.238  1.0415  0.2985  0.3408
 3354TIP3   OH231696   4.803   3.450   7.640 -0.1002  0.4105 -0.0319
 3354TIP3    H131697   4.827   3.361   7.668 -0.1627  0.0234 -1.1583
 3354TIP3    H231698   4.720   3.467   7.685  0.6354  0.4810  1.3320
 3355TIP3   OH231699   2.733   1.382   0.412  0.8264  0.4751 -0.4219
 3355TIP3    H131700   2.825   1.358   0.422  0.9682  0.8735 -0.7449
 3355TIP3    H231701   2.686   1.325   0.473  1.0807 -1.0190 -1.5811
 3356TIP3   OH231702   3.838   6.118   1.103 -0.0303  0.1828 -0.4961
 3356TIP3    H131703   3.912   6.062   1.126 -1.9076 -2.6682 -0.8891
 3356TIP3    H231704   3.766   6.086   1.158 -1.3861  1.7754 -1.2582
 3357TIP3   OH231705   0.928   2.874   1.067  0.0104 -0.2909 -0.3126
 3357TIP3    H131706   0.974   2.805   1.020 -0.8624  0.4989 -2.4869
 3357TIP3    H231707   0.971   2.879   1.152 -0.2579 -3.8220  0.1714
 3358TIP3   OH231708   5.893   4.887   0.983  0.4659  0.1658  0.3472
 3358TIP3    H131709   5.857   4.800   0.964 -0.9610  1.0543 -1.1896
 3358TIP3    H231710   5.912   4.924   0.897  1.0868  1.3803  0.9919
 3359TIP3   OH231711   0.916   4.435   2.232  0.3862 -0.1944 -0.7668
 3359TIP3    H131712   0.869   4.513   2.204  0.9479  1.1512  1.7793
 3359TIP3    H231713   1.009   4.458   2.222  0.5733 -1.3682 -2.0167
 3360TIP3   OH231714   0.591   6.508   7.602  0.1574 -0.6286 -0.0390
 3360TIP3    H131715   0.504   6.468   7.611  0.3322 -1.3054 -1.1785
 3360TIP3    H231716   0.574   6.592   7.560  0.0009 -0.4858  0.3041
 3361TIP3   OH231717   6.496   1.828   7.594 -0.4707  0.2603 -0.3221
 3361TIP3    H131718   6.556   1.786   7.532 -0.6920 -0.6921  0.1044
 3361TIP3    H231719   6.553   1.873   7.656 -0.2048 -0.2029 -0.2266
 3362TIP3   OH231720   6.302   5.340   1.876 -0.2044  0.6014  0.9334
 3362TIP3    H131721   6.328   5.432   1.869  2.1849  0.1199  2.3025
 3362TIP3    H231722   6.236   5.329   1.808  1.4592  2.6671 -1.2048
 3363TIP3   OH231723   0.024   6.684   0.171 -0.9172  0.2988  0.4251
 3363TIP3    H131724  -0.042   6.692   0.241  0.4891  1.6684  1.6785
 3363TIP3    H231725   0.080   6.761   0.183  1.0782 -0.9531 -0.3999
 3364TIP3   OH231726   1.954   1.525   2.321 -0.1010 -0.6937 -0.3663
 3364TIP3    H131727   2.040   1.535   2.280  0.1054  0.4210  0.2880
 3364TIP3    H231728   1.968   1.463   2.392  0.2019 -0.4142 -0.1789
 3365TIP3   OH231729   6.205   1.006   1.828  0.4334 -0.3394  0.3622
 3365TIP3    H131730   6.242   1.051   1.752 -0.1294  1.1425  0.9187
 3365TIP3    H231731   6.143   1.069   1.865 -0.4423 -1.6240  1.1614
 3366TIP3   OH231732   5.453   2.017   1.871  0.1675  0.2335 -0.0750
 3366TIP3    H131733   5.476   2.097   1.918  0.2829 -0.4944  1.1681
 3366TIP3    H231734   5.420   1.958   1.939  3.4205 -2.0517 -0.2326
 3367TIP3   OH231735   2.263   1.881   7.654  0.2635  0.0645  0.2281
 3367TIP3    H131736   2.258   1.976   7.649 -0.1722  0.0499  0.2931
 3367TIP3    H231737   2.185   1.855   7.703 -0.5240 -0.4302 -1.2021
 3368TIP3   OH231738   6.482   5.080   1.006 -0.3196 -0.0846  0.1659
 3368TIP3    H131739   6.502   4.993   1.041  0.0811 -0.3355 -0.6622
 3368TIP3    H231740   6.408   5.067   0.948 -0.2446  0.1221  0.0219
 3369TIP3   OH231741   1.013   2.313   7.983 -0.3282  0.6211 -0.2676
 3369TIP3    H131742   1.075   2.296   8.054 -0.0268  1.0692 -0.4201
 3369TIP3    H231743   1.042   2.254   7.913 -0.8388 -0.0776  0.0936
 3370TIP3   OH231744   4.896   3.226   0.157 -0.5819 -0.4388 -0.4259
 3370TIP3    H131745   4.809   3.236   0.117 -0.1232 -1.4279 -1.7573
 3370TIP3    H231746   4.956   3.262   0.092 -0.0271  0.9179  0.8075
 3371TIP3   OH231747   4.121   5.775   1.404 -0.1885  0.1470 -0.4360
 3371TIP3    H131748   4.093   5.802   1.491  1.9343 -0.6886  0.5568
 3371TIP3    H231749   4.111   5.680   1.404 -1.2813  0.2240 -1.5674
 3372TIP3   OH231750   2.670   4.579   9.040  0.1197  0.1049  0.2732
 3372TIP3    H131751   2.763   4.577   9.017  0.2904 -2.5452  0.8918
 3372TIP3    H231752   2.625   4.603   8.959  1.2444 -0.2273 -0.4586
 3373TIP3   OH231753   0.126   1.317   0.040  0.3261  0.3307 -0.4206
 3373TIP3    H131754   0.133   1.326   0.135 -3.7707 -0.2931  0.1071
 3373TIP3    H231755   0.107   1.405   0.008  0.3023  0.3039 -0.4809
 3374TIP3   OH231756   4.190   0.368   1.776 -0.4597  0.8439  0.3585
 3374TIP3    H131757   4.145   0.293   1.737 -0.7931  1.1940  0.0572
 3374TIP3    H231758   4.189   0.349   1.870  1.9692 -0.8900  0.1409
 3375TIP3   OH231759   3.940   1.613   1.514  0.1427 -0.5164 -0.1349
 3375TIP3    H131760   4.015   1.565   1.550 -0.4385 -0.9236  0.5649
 3375TIP3    H231761   3.863   1.565   1.546 -0.4200 -0.2618 -1.0505
 3376TIP3   OH231762   3.939   5.588   1.814 -0.1774 -0.3998  0.4543
 3376TIP3    H131763   4.029   5.620   1.814 -0.8273  2.0060 -3.1276
 3376TIP3    H231764   3.894   5.641   1.880  0.8922 -1.5007  2.1387
 3377TIP3   OH231765   1.028   6.205   0.756 -0.2502 -0.4116 -0.6536
 3377TIP3    H131766   1.061   6.115   0.765 -0.0516 -0.2315  0.5407
 3377TIP3    H231767   0.981   6.204   0.673  0.4778 -1.3947 -1.0751
 3378TIP3   OH231768   3.546   4.079   1.621 -0.2113 -0.3076 -0.1497
 3378TIP3    H131769   3.510   4.154   1.670 -1.5910 -0.8468 -0.2912
 3378TIP3    H231770   3.594   4.029   1.687  1.5534  1.1521 -0.2327
 3379TIP3   OH231771   1.657   0.217   1.469  0.5892 -0.1433 -0.0058
 3379TIP3    H131772   1.728   0.210   1.405  0.5003  0.9487 -0.2530
 3379TIP3    H231773   1.689   0.278   1.535  0.9420 -1.7742  1.4078
 3380TIP3   OH231774   1.325   1.558   7.564  0.6344 -0.6237  0.4041
 3380TIP3    H131775   1.259   1.490   7.555  0.8722 -1.1970  2.5255
 3380TIP3    H231776   1.302   1.623   7.498 -0.9190 -1.6890 -0.1513
 3381TIP3   OH231777   5.832   4.125   8.456 -0.3808  0.1191  1.0196
 3381TIP3    H131778   5.744   4.143   8.489 -0.4223 -1.1615  1.6945
 3381TIP3    H231779   5.819   4.100   8.365 -0.3002  3.4037  0.0003
 3382TIP3   OH231780   1.922   4.278   1.977 -0.1698  0.3110 -0.4739
 3382TIP3    H131781   1.961   4.250   2.060 -1.6428  3.7306  1.5686
 3382TIP3    H231782   1.995   4.313   1.926  0.6180 -1.0562 -0.3223
 3383TIP3   OH231783   4.370   3.574   8.959  0.1424  0.0671 -0.0071
 3383TIP3    H131784   4.384   3.637   9.030 -1.4508  0.5945 -0.1254
 3383TIP3    H231785   4.394   3.490   8.997 -2.7466 -0.0132  2.0040
 3384TIP3   OH231786   3.565   3.942   7.234 -0.0515 -0.3464  0.0349
 3384TIP3    H131787   3.611   3.862   7.257  0.1249 -0.6873 -1.4121
 3384TIP3    H231788   3.615   3.979   7.161  0.1400  1.3465  0.9571
 3385TIP3   OH231789   4.960   0.453   7.777  0.3455 -1.0019  0.0625
 3385TIP3    H131790   5.007   0.374   7.750  1.5795  0.0838 -1.1305
 3385TIP3    H231791   5.014   0.492   7.845 -0.9030 -1.7924  1.5782
 3386TIP3   OH231792   6.095   2.157   8.302  0.1554 -0.2113 -0.0783
 3386TIP3    H131793   6.087   2.096   8.229  2.9805 -0.4889 -0.2937
 3386TIP3    H231794   6.007   2.189   8.318 -0.9098 -2.0042 -1.9955
 3387TIP3   OH231795   5.314   1.891   6.669  0.3201  0.1429 -0.0243
 3387TIP3    H131796   5.232   1.928   6.636 -0.0537 -1.1899 -0.6790
 3387TIP3    H231797   5.301   1.884   6.764 -0.5990 -0.6191 -0.1864
 3388TIP3   OH231798   3.956   5.187   0.956  0.2809  0.2985  0.2030
 3388TIP3    H131799   3.990   5.229   1.035  0.7910  2.1494 -0.9357
 3388TIP3    H231800   3.951   5.094   0.978  1.6904  0.5885  1.9583
 3389TIP3   OH231801   1.465   3.724   7.611 -0.2025 -0.5356 -0.2407
 3389TIP3    H131802   1.550   3.680   7.613 -1.1537 -2.4814 -0.9591
 3389TIP3    H231803   1.427   3.706   7.697  0.0594  0.3212  0.0736
 3390TIP3   OH231804   6.098   3.423   8.530  0.1531  0.2518  0.1367
 3390TIP3    H131805   6.068   3.339   8.567  1.3990 -0.2125  0.1172
 3390TIP3    H231806   6.153   3.461   8.598  1.8750 -0.2708 -0.8988
 3391TIP3   OH231807   6.382   3.295   0.361 -0.5505  0.3032 -0.0618
 3391TIP3    H131808   6.346   3.344   0.436 -0.7459  0.5133 -0.2905
 3391TIP3    H231809   6.435   3.226   0.401  1.4066  1.9144  0.2793
 3392TIP3   OH231810   5.160   3.117   0.870  0.0263  0.4866 -0.2853
 3392TIP3    H131811   5.244   3.161   0.880 -0.1274  0.7631 -0.1958
 3392TIP3    H231812   5.106   3.178   0.820 -0.3223  0.5858  0.1993
 3393TIP3   OH231813   4.677   2.927   0.581 -0.3907 -0.6804  0.0073
 3393TIP3    H131814   4.745   2.967   0.634 -1.0908  1.2728 -0.4468
 3393TIP3    H231815   4.598   2.979   0.601 -0.9635 -0.7340 -1.9124
 3394TIP3   OH231816   2.842   3.959   0.649 -0.1501  0.4138  0.2373
 3394TIP3    H131817   2.853   4.023   0.578 -2.8892  0.0659 -0.5987
 3394TIP3    H231818   2.804   4.010   0.721  0.6161  0.3218  0.7194
 3395TIP3   OH231819   3.700   3.466   1.977 -0.0708 -0.5068  0.0852
 3395TIP3    H131820   3.628   3.512   2.021  0.5806 -0.7187  1.4202
 3395TIP3    H231821   3.680   3.373   1.990  0.2821 -0.5675  0.2043
 3396TIP3   OH231822   2.388   4.103   7.738  0.3197 -0.2429  0.2864
 3396TIP3    H131823   2.355   4.038   7.799  1.9475 -0.8465  0.5929
 3396TIP3    H231824   2.420   4.175   7.793  1.4862 -0.6423  0.1742
 3397TIP3   OH231825   6.331   4.446   6.707 -0.0731  0.3839  0.0197
 3397TIP3    H131826   6.248   4.493   6.711 -0.1194  0.2689  0.5239
 3397TIP3    H231827   6.327   4.384   6.780 -0.2150 -0.7337 -0.9265
 3398TIP3   OH231828   0.181   5.922   1.565  0.0724  0.3158  0.2755
 3398TIP3    H131829   0.154   5.950   1.477 -1.3222  1.7931  1.1107
 3398TIP3    H231830   0.246   5.853   1.549  0.6582  1.2670 -1.9061
 3399TIP3   OH231831   1.668   0.889   1.810 -0.6163  0.3836 -0.0111
 3399TIP3    H131832   1.646   0.796   1.808 -0.6452  0.3968 -1.5814
 3399TIP3    H231833   1.609   0.926   1.875 -0.8158 -0.6435  0.4137
 3400TIP3   OH231834   2.488   1.600   0.765  0.0938  0.2089  0.2657
 3400TIP3    H131835   2.510   1.657   0.691 -1.7992  0.0446 -0.4977
 3400TIP3    H231836   2.420   1.648   0.813 -1.9499 -1.5317 -0.7079
 3401TIP3   OH231837   6.405   2.864   7.514  0.4412 -0.2615  0.0250
 3401TIP3    H131838   6.472   2.803   7.484  0.9286  0.9786 -1.5190
 3401TIP3    H231839   6.365   2.898   7.434 -1.2120 -0.0585  0.8902
 3402TIP3   OH231840   2.581   0.439   7.852  0.3290 -0.0235 -0.1608
 3402TIP3    H131841   2.489   0.426   7.875  0.5174 -0.4367  0.3992
 3402TIP3    H231842   2.629   0.417   7.932  0.8131  2.2134  0.2164
 3403TIP3   OH231843   4.694   6.454   8.047 -0.1550 -0.6708  0.1306
 3403TIP3    H131844   4.714   6.489   8.133  0.5222 -1.6701  0.3987
 3403TIP3    H231845   4.773   6.407   8.021 -1.1615 -2.4252  0.0304
 3404TIP3   OH231846   5.875   2.949   0.978  0.4138  0.3385  0.0112
 3404TIP3    H131847   5.922   3.017   1.026  1.1973  0.0829 -0.3756
 3404TIP3    H231848   5.924   2.940   0.896 -0.2838  0.0276 -0.3761
 3405TIP3   OH231849   6.276   2.774   7.719  0.4914  0.0334  0.4441
 3405TIP3    H131850   6.279   2.846   7.783  0.8982  0.4448 -0.0361
 3405TIP3    H231851   6.329   2.805   7.646 -0.1517 -0.3488 -0.1897
 3406TIP3   OH231852   1.108   5.480   8.881  0.0018  0.2478  0.6002
 3406TIP3    H131853   1.112   5.429   8.962  2.0251  1.0456  1.0594
 3406TIP3    H231854   1.191   5.528   8.879  0.1916 -0.0470 -2.1392
 3407TIP3   OH231855   0.436   5.274   8.028  0.6313 -0.8102 -0.1067
 3407TIP3    H131856   0.469   5.313   8.109 -0.6331  0.8270 -0.3250
 3407TIP3    H231857   0.510   5.281   7.968  0.8069  0.3033  0.1982
 3408TIP3   OH231858   3.901   6.425   7.886  0.3621 -0.2895  0.5949
 3408TIP3    H131859   3.954   6.370   7.829  0.4399 -2.1133  2.3231
 3408TIP3    H231860   3.817   6.433   7.840 -0.0302 -2.8094  0.7341
 3409TIP3   OH231861   2.020   0.993   0.758 -0.9145  0.0751 -0.3642
 3409TIP3    H131862   2.095   1.009   0.700 -0.9512  1.8750  0.0337
 3409TIP3    H231863   2.051   0.926   0.818  0.2863  0.5788 -0.3936
 3410TIP3   OH231864   2.751   0.837   7.587 -0.1134 -0.1740  0.5458
 3410TIP3    H131865   2.801   0.755   7.587 -0.3536 -0.3190  0.0931
 3410TIP3    H231866   2.788   0.886   7.660  0.0667 -0.6635  0.7926
 3411TIP3   OH231867   4.309   4.337   9.095  0.5274 -0.0421 -0.2466
 3411TIP3    H131868   4.331   4.372   9.181  1.5102  0.1229 -0.5470
 3411TIP3    H231869   4.242   4.271   9.112  0.3834  0.3112  0.5895
 3412TIP3   OH231870   1.352   2.536   8.728  0.8271  0.0066  0.0751
 3412TIP3    H131871   1.404   2.475   8.676 -0.0349 -0.2071 -0.5534
 3412TIP3    H231872   1.414   2.603   8.755  1.5027 -0.4223 -0.3750
 3413TIP3   OH231873   1.520   0.888   0.835  0.0401 -0.5133 -0.7277
 3413TIP3    H131874   1.610   0.918   0.830 -0.0025 -0.4565 -1.1853
 3413TIP3    H231875   1.475   0.955   0.887  0.4956 -1.1204  0.4807
 3414TIP3   OH231876   3.406   1.492   8.923 -0.3792  0.2832  0.1036
 3414TIP3    H131877   3.329   1.464   8.972 -0.9024  2.1380  0.4337
 3414TIP3    H231878   3.375   1.565   8.869  1.0209  0.7554 -0.1150
 3415TIP3   OH231879   6.674   5.019   1.523  0.0341  0.1631 -0.3520
 3415TIP3    H131880   6.673   4.957   1.450  1.0050 -0.6411  0.2907
 3415TIP3    H231881   6.597   5.074   1.509  0.4552  0.3408 -2.2435
 3416TIP3   OH231882   4.848   3.400   8.095 -0.1550  0.1540  0.0094
 3416TIP3    H131883   4.852   3.487   8.133  0.4511 -0.1524  0.6770
 3416TIP3    H231884   4.843   3.341   8.170 -2.4397 -0.3315 -0.4261
 3417TIP3   OH231885   0.854   4.841   8.640 -0.4050  0.1182  0.2440
 3417TIP3    H131886   0.804   4.867   8.562  0.8560  0.5091 -0.4480
 3417TIP3    H231887   0.945   4.839   8.611  0.1093  0.4629  1.7673
 3418TIP3   OH231888   1.972   6.609   7.545 -0.1030 -0.3030  0.2324
 3418TIP3    H131889   1.980   6.596   7.640  1.9579 -0.4790  0.0844
 3418TIP3    H231890   1.906   6.678   7.536 -0.4489 -0.3855  1.7717
 3419TIP3   OH231891   3.936   4.310   8.595 -0.4283  0.4454 -0.4190
 3419TIP3    H131892   3.856   4.313   8.647 -0.4896 -1.1312 -0.3769
 3419TIP3    H231893   3.997   4.368   8.640 -1.2031  0.8300  0.1476
 3420TIP3   OH231894   6.141   5.109   1.939  0.2755  0.3390  0.1728
 3420TIP3    H131895   6.168   5.136   1.851  0.3924 -0.9539 -0.2061
 3420TIP3    H231896   6.223   5.093   1.986  0.3004 -2.4160 -0.6104
 3421TIP3   OH231897   4.258   2.177   0.371  0.2075  0.5324  0.1956
 3421TIP3    H131898   4.291   2.098   0.329  0.9028  0.8878  0.0550
 3421TIP3    H231899   4.171   2.190   0.333  0.3488  0.1846 -0.2515
 3422TIP3   OH231900   0.006   1.191   6.968 -0.1709 -0.1643  0.3453
 3422TIP3    H131901   0.085   1.137   6.962 -0.3809 -0.4874  0.4613
 3422TIP3    H231902  -0.062   1.139   6.924 -0.0863  0.5658 -0.6907
 3423TIP3   OH231903   5.356   6.332   0.282  0.1282  0.3320  0.2934
 3423TIP3    H131904   5.373   6.384   0.360  0.1129  0.4064  0.2475
 3423TIP3    H231905   5.432   6.275   0.273  0.0830  0.2515  0.4207
 3424TIP3   OH231906   1.658   4.972   8.550  0.4767 -0.7383  0.3289
 3424TIP3    H131907   1.725   5.031   8.517  0.5264 -0.7265  0.4495
 3424TIP3    H231908   1.584   5.028   8.571 -0.4921 -1.0097 -2.0902
 3425TIP3   OH231909   1.778   5.362   7.385  0.6812  0.0426 -0.0708
 3425TIP3    H131910   1.751   5.271   7.373  0.7071 -0.0324  0.4416
 3425TIP3    H231911   1.725   5.411   7.322  1.3740 -0.4392 -1.0533
 3426TIP3   OH231912   0.990   3.256   1.765 -0.4637 -0.1578 -0.3529
 3426TIP3    H131913   0.914   3.247   1.706 -1.9167  0.4040  1.3411
 3426TIP3    H231914   0.976   3.189   1.832 -0.9010  1.6026  1.4102
 3427TIP3   OH231915   2.138   0.067   7.404 -0.0383  0.2616 -0.0980
 3427TIP3    H131916   2.149   0.045   7.496  0.1070  0.7561  0.0062
 3427TIP3    H231917   2.044   0.057   7.388  0.1192 -1.1438 -0.2497
 3428TIP3   OH231918   4.822   2.452   8.735  0.6270 -0.1671  0.4588
 3428TIP3    H131919   4.824   2.455   8.640  1.2891  0.9821  0.4989
 3428TIP3    H231920   4.775   2.370   8.755 -1.0534  0.4064 -0.8465
 3429TIP3   OH231921   3.791   3.584   1.760 -0.0293 -0.9721 -0.3547
 3429TIP3    H131922   3.709   3.616   1.724 -0.2720 -1.6842 -0.4473
 3429TIP3    H231923   3.768   3.552   1.847  0.3872 -0.0767  0.1044
 3430TIP3   OH231924   0.422   5.908   0.821  0.1847 -0.0406  0.0275
 3430TIP3    H131925   0.471   5.882   0.899  0.0218  0.4236  0.2910
 3430TIP3    H231926   0.335   5.931   0.854 -0.3226 -1.1805 -0.4783
 3431TIP3   OH231927   2.948   4.386   0.144 -0.0945  0.4900 -0.8139
 3431TIP3    H131928   2.992   4.304   0.122 -1.2217 -0.4405  0.2612
 3431TIP3    H231929   3.008   4.454   0.112  2.3787 -0.6840  0.9238
 3432TIP3   OH231930   3.092   2.514   0.502 -0.2133  0.2904  0.2206
 3432TIP3    H131931   3.146   2.468   0.567  0.4564  1.3787  0.4500
 3432TIP3    H231932   3.026   2.450   0.477  0.3542 -0.6108  0.9574
 3433TIP3   OH231933   3.784   3.601   1.268 -0.8467  0.1057 -0.3159
 3433TIP3    H131934   3.849   3.548   1.221 -1.3510 -1.7052  0.9418
 3433TIP3    H231935   3.736   3.539   1.322 -2.4291  1.6667  0.1891
 3434TIP3   OH231936   4.701   2.799   8.415 -0.2438  0.2655 -0.1213
 3434TIP3    H131937   4.781   2.757   8.446  0.1098  1.7066  1.0272
 3434TIP3    H231938   4.712   2.891   8.438 -0.9396  1.0567 -2.6159
 3435TIP3   OH231939   1.854   5.045   7.606  0.5251  0.3600 -0.3604
 3435TIP3    H131940   1.864   5.134   7.641  2.9108  0.1578 -0.3813
 3435TIP3    H231941   1.815   5.057   7.520  2.8998  1.6489 -1.3435
 3436TIP3   OH231942   3.573   4.551   0.320 -0.2779 -0.6647  0.3639
 3436TIP3    H131943   3.542   4.554   0.411  0.6870  0.2002  0.6969
 3436TIP3    H231944   3.668   4.559   0.328 -0.2576  0.4742 -0.7616
 3437TIP3   OH231945   5.029   0.593   0.438  0.2262  0.3732 -0.4604
 3437TIP3    H131946   4.934   0.591   0.449  0.4182  1.0480  1.6781
 3437TIP3    H231947   5.046   0.674   0.390 -0.2737  0.1510 -1.0272
 3438TIP3   OH231948   1.955   2.437   0.617 -0.2131 -0.2472  0.4378
 3438TIP3    H131949   1.913   2.355   0.591  0.7579 -0.9342  0.9803
 3438TIP3    H231950   1.906   2.465   0.694 -0.7810 -0.1217  0.0343
 3439TIP3   OH231951   3.803   3.247   7.418  0.5615 -0.3695  0.4802
 3439TIP3    H131952   3.767   3.159   7.416  2.3260 -1.1541  0.9739
 3439TIP3    H231953   3.884   3.239   7.469  0.6171  1.5922  0.7928
 3440TIP3   OH231954   5.243   5.286   8.653  0.1295 -0.3012  0.0617
 3440TIP3    H131955   5.303   5.336   8.708  0.8299 -0.9312 -0.1155
 3440TIP3    H231956   5.230   5.204   8.699  0.0010 -0.4714 -0.2728
 3441TIP3   OH231957   0.038   5.953   1.833  0.3331  0.5431  0.0157
 3441TIP3    H131958   0.077   6.032   1.872 -0.6124  0.5930  0.8924
 3441TIP3    H231959   0.088   5.940   1.752 -0.2095  2.6857 -0.7481
 3442TIP3   OH231960   5.218   1.711   6.404 -0.2169  0.4969  0.0350
 3442TIP3    H131961   5.209   1.628   6.451 -0.7174  0.8170  0.5209
 3442TIP3    H231962   5.227   1.776   6.473  1.5209  0.7117 -0.3581
 3443TIP3   OH231963   6.405   1.358   2.166  0.1919  0.1285  0.2588
 3443TIP3    H131964   6.458   1.388   2.093  0.3449 -0.6579  0.0386
 3443TIP3    H231965   6.447   1.395   2.244  1.2375 -0.7283  0.1115
 3444TIP3   OH231966   1.776   4.809   8.911 -0.0536  0.4927 -0.2592
 3444TIP3    H131967   1.844   4.814   8.978 -0.4358 -0.4531  0.2237
 3444TIP3    H231968   1.699   4.778   8.958  0.2498 -2.4889 -1.4838
 3445TIP3   OH231969   5.120   4.610   0.947 -0.4127 -0.2119  0.4863
 3445TIP3    H131970   5.098   4.697   0.912 -0.8108 -0.4382  0.1659
 3445TIP3    H231971   5.111   4.620   1.041  0.6640  0.4051  0.5408
 3446TIP3   OH231972   3.493   3.217   6.398 -0.9647 -0.0832  0.7686
 3446TIP3    H131973   3.431   3.151   6.429 -0.6229 -0.3395  0.9131
 3446TIP3    H231974   3.504   3.198   6.305 -0.7492 -0.3273  0.8430
 3447TIP3   OH231975   0.349   0.643   8.906  0.0138  0.0776  0.0988
 3447TIP3    H131976   0.355   0.738   8.900  1.6336  0.0331  0.4817
 3447TIP3    H231977   0.260   0.626   8.938  0.0948  1.5358  1.1961
 3448TIP3   OH231978   1.117   4.917   8.666 -0.3553 -0.0922  0.1391
 3448TIP3    H131979   1.176   4.842   8.661 -0.3154 -0.1765  1.6611
 3448TIP3    H231980   1.095   4.926   8.759 -0.1584  1.9246  0.0501
 3449TIP3   OH231981   2.735   4.440   2.235  0.0541  0.3153  0.2192
 3449TIP3    H131982   2.683   4.502   2.286  0.2613  0.4240  0.2980
 3449TIP3    H231983   2.816   4.430   2.284 -0.9693 -2.0061  1.6004
 3450TIP3   OH231984   2.207   6.107   1.690  0.4409 -0.6894 -0.0017
 3450TIP3    H131985   2.295   6.134   1.664 -0.1080  3.2787  1.5417
 3450TIP3    H231986   2.219   6.059   1.771  1.2594 -2.3755 -1.0574
 3451TIP3   OH231987   4.871   2.448   1.721 -0.0015 -0.3798  0.1277
 3451TIP3    H131988   4.777   2.431   1.712  0.0751 -0.3846 -0.7025
 3451TIP3    H231989   4.885   2.457   1.816 -0.8987  0.0129  0.2257
 3452TIP3   OH231990   2.922   5.012   7.847 -0.3780  0.1822 -0.4338
 3452TIP3    H131991   2.972   4.955   7.905 -0.5790  1.2759  0.8598
 3452TIP3    H231992   2.865   4.952   7.799 -1.7479 -0.6423  2.0220
 3453TIP3   OH231993   6.548   2.439   0.498 -0.2346  0.1606  0.0592
 3453TIP3    H131994   6.552   2.445   0.594  0.7420  2.2211 -0.0727
 3453TIP3    H231995   6.606   2.366   0.476 -0.2142 -0.1241  1.0141
 3454TIP3   OH231996   2.899   4.214   8.036  0.1586  0.2407 -0.5758
 3454TIP3    H131997   2.993   4.216   8.016  0.0843  0.7736 -0.8899
 3454TIP3    H231998   2.894   4.176   8.123  0.7123  0.6661 -0.3511
 3455TIP3   OH231999   5.880   3.730   0.204 -0.1609  0.0891  0.8185
 3455TIP3    H132000   5.957   3.713   0.259 -1.0736 -1.7533  1.6108
 3455TIP3    H232001   5.883   3.663   0.137 -0.9847  0.1048  0.7551
 3456TIP3   OH232002   5.428   1.787   6.231  0.5385  0.0421  0.2814
 3456TIP3    H132003   5.340   1.757   6.254  0.1770  0.6354 -0.2951
 3456TIP3    H232004   5.471   1.712   6.191 -0.0655  0.0487 -0.3847
 3457TIP3   OH232005   1.606   0.542   0.341 -0.1743  0.2588  0.0586
 3457TIP3    H132006   1.651   0.608   0.289  0.5494 -0.5515 -0.3591
 3457TIP3    H232007   1.559   0.489   0.277 -1.3436  0.7849  0.4491
 3458TIP3   OH232008   2.654   3.661   9.091  0.1834  0.0720 -0.6446
 3458TIP3    H132009   2.725   3.617   9.138  0.9448  0.6825 -1.2015
 3458TIP3    H232010   2.677   3.754   9.093 -0.8270  0.3253 -0.4605
 3459TIP3   OH232011   0.788   1.586   1.001 -0.0316  0.2418 -0.6426
 3459TIP3    H132012   0.708   1.600   1.051  1.1283 -2.4771  2.3045
 3459TIP3    H232013   0.785   1.494   0.975  1.6543  0.3668 -1.4312
 3460TIP3   OH232014   2.212   1.839   0.242  0.3124 -0.5201 -0.2334
 3460TIP3    H132015   2.219   1.915   0.298 -1.6470 -1.2947  1.1366
 3460TIP3    H232016   2.131   1.851   0.193  0.5454 -1.2118 -0.8242
 3461TIP3   OH232017   1.693   3.363   8.981 -0.0766  0.2717 -0.6122
 3461TIP3    H132018   1.678   3.384   9.073  1.6175 -0.1980 -0.2006
 3461TIP3    H232019   1.615   3.313   8.954  0.3162 -1.3955  1.1542
 3462TIP3   OH232020   2.866   4.346   1.572 -0.0594  0.3116 -0.2262
 3462TIP3    H132021   2.918   4.358   1.493  0.7929  0.9168  0.4003
 3462TIP3    H232022   2.928   4.313   1.637 -0.7363 -0.1503  0.1974
 3463TIP3   OH232023   2.286   4.807   7.412  0.0576 -0.1832  0.1346
 3463TIP3    H132024   2.252   4.869   7.476  1.2852  0.5637  0.0953
 3463TIP3    H232025   2.367   4.848   7.380  1.1453 -1.9966  0.4318
 3464TIP3   OH232026   4.699   3.898   8.830 -0.5921  0.0773 -0.2207
 3464TIP3    H132027   4.699   3.806   8.856  3.0868 -0.7910 -2.5311
 3464TIP3    H232028   4.781   3.933   8.865 -0.4827  1.6198 -1.8879
 3465TIP3   OH232029   0.145   6.012   8.292 -0.0655  0.0423  0.1096
 3465TIP3    H132030   0.216   6.049   8.241 -1.0019 -0.1480 -1.3877
 3465TIP3    H232031   0.095   6.088   8.323  1.1082  0.2034  1.6999
 3466TIP3   OH232032   6.130   2.429   2.089 -0.3944  0.7061  0.2189
 3466TIP3    H132033   6.049   2.379   2.077 -0.8277  1.2223  0.9064
 3466TIP3    H232034   6.160   2.407   2.177  0.5940  0.0013 -0.2741
 3467TIP3   OH232035   1.996   2.342   8.923 -0.1779 -0.6431  0.0285
 3467TIP3    H132036   2.065   2.342   8.857 -0.1530  0.3864  0.0336
 3467TIP3    H232037   2.039   2.372   9.003  0.0222 -2.8298  0.8031
 3468TIP3   OH232038   4.714   5.490   7.096 -0.2224 -0.3401 -0.4308
 3468TIP3    H132039   4.750   5.414   7.051  1.2217 -1.7317  2.7714
 3468TIP3    H232040   4.732   5.564   7.038  0.7311 -2.0707 -2.4444
 3469TIP3   OH232041   6.119   1.526   9.130 -0.1005  0.5067 -0.0581
 3469TIP3    H132042   6.105   1.434   9.152  0.6638  0.6080  0.9521
 3469TIP3    H232043   6.032   1.566   9.137 -0.1185  0.2620  1.6229
 3470TIP3   OH232044   1.089   3.860   1.870  0.3329  0.2876 -0.4517
 3470TIP3    H132045   1.135   3.786   1.909 -0.4517 -0.2856 -0.6022
 3470TIP3    H232046   1.081   3.838   1.777 -0.6800  0.1459 -0.3400
 3471TIP3   OH232047   1.435   2.664   2.243 -0.7034  0.1035  0.0099
 3471TIP3    H132048   1.520   2.690   2.279 -0.4865  0.4593 -0.7480
 3471TIP3    H232049   1.377   2.664   2.319 -0.4498  1.7107  0.2480
 3472TIP3   OH232050   4.245   0.755   8.408  0.0843 -0.0875 -0.5203
 3472TIP3    H132051   4.210   0.835   8.447 -1.9259 -0.7464 -0.8518
 3472TIP3    H232052   4.256   0.775   8.315 -2.1653 -0.6585 -0.9767
 3473TIP3   OH232053   1.689   1.636   1.003  0.1178 -0.5734  0.4123
 3473TIP3    H132054   1.707   1.726   1.028 -1.5389 -0.0514 -0.1493
 3473TIP3    H232055   1.708   1.633   0.909  0.2211 -0.8414  0.4386
 3474TIP3   OH232056   1.222   6.476   1.813 -0.1844  0.0747  0.3586
 3474TIP3    H132057   1.292   6.516   1.865  0.9124  0.5764 -1.3832
 3474TIP3    H232058   1.180   6.549   1.769 -0.4354 -0.3906 -0.1936
 3475TIP3   OH232059   4.010   5.283   1.980 -0.2001  0.6161  0.9590
 3475TIP3    H132060   3.997   5.369   2.019  0.3197  0.7968  0.7432
 3475TIP3    H232061   3.992   5.221   2.051  1.8166  0.9554  1.8317
 3476TIP3   OH232062   2.264   3.794   6.976  0.6563  0.4831 -0.0200
 3476TIP3    H132063   2.292   3.822   6.889  1.6501  0.7322  0.3599
 3476TIP3    H232064   2.184   3.843   6.993  0.7059  0.7750 -0.6100
 3477TIP3   OH232065   6.174   2.059   7.555 -0.1823  0.5173  0.0997
 3477TIP3    H132066   6.118   2.136   7.540  0.0254  1.1391  2.0996
 3477TIP3    H232067   6.178   2.014   7.471 -3.7376  0.4142 -0.1468
 3478TIP3   OH232068   3.261   2.898   1.376  0.4733 -0.2525 -0.2666
 3478TIP3    H132069   3.280   2.809   1.348 -1.0131 -1.2164  1.5369
 3478TIP3    H232070   3.285   2.900   1.469 -0.3073  0.9605 -0.0579
 3479TIP3   OH232071   5.447   4.181   1.761 -0.0565  0.4649 -0.0150
 3479TIP3    H132072   5.386   4.225   1.820 -0.6277 -0.5059  0.1406
 3479TIP3    H232073   5.522   4.241   1.755 -1.1484  1.8386 -0.4852
 3480TIP3   OH232074   6.044   2.684   1.089 -0.3623  0.1318 -0.2446
 3480TIP3    H132075   6.002   2.755   1.139  0.4820 -0.1857  0.9627
 3480TIP3    H232076   6.116   2.656   1.145 -0.2480 -1.2072 -1.0434
 3481TIP3   OH232077   6.057   1.472   7.341 -0.0555  0.5946  0.5822
 3481TIP3    H132078   6.136   1.418   7.339 -0.6025 -0.1995 -0.1284
 3481TIP3    H232079   6.084   1.551   7.389  0.1483 -1.2446  3.7226
 3482TIP3   OH232080   3.262   0.485   7.626 -0.0547  0.2701 -0.0648
 3482TIP3    H132081   3.324   0.445   7.564  0.5554 -0.0800  0.7587
 3482TIP3    H232082   3.181   0.437   7.611  0.1834 -0.0537 -0.3525
 3483TIP3   OH232083   4.425   5.347   7.869 -0.3008 -0.0318  0.4447
 3483TIP3    H132084   4.360   5.343   7.799 -1.2091 -1.4909  1.3307
 3483TIP3    H232085   4.382   5.308   7.945  1.7665 -1.5069  0.9373
 3484TIP3   OH232086   1.698   3.854   0.677  0.3409 -0.1340 -0.1266
 3484TIP3    H132087   1.666   3.769   0.646  0.4791 -0.6222  1.0302
 3484TIP3    H232088   1.694   3.911   0.600 -2.9712 -0.2491 -0.1965
 3485TIP3   OH232089   2.989   0.898   0.731  0.3494 -0.1480 -0.2579
 3485TIP3    H132090   2.959   0.836   0.797  1.0959  0.2092  0.4279
 3485TIP3    H232091   2.915   0.958   0.720 -0.7947 -1.6952 -1.6758
 3486TIP3   OH232092   4.972   3.482   7.280 -0.1070  0.0111  0.5855
 3486TIP3    H132093   4.955   3.469   7.373  0.2118  0.3594  0.6939
 3486TIP3    H232094   5.067   3.482   7.272 -0.1334 -0.1651  0.2376
 3487TIP3   OH232095   0.452   2.867   7.317 -0.1158 -0.0502  0.1469
 3487TIP3    H132096   0.405   2.837   7.239  1.8217 -1.0944 -0.6748
 3487TIP3    H232097   0.539   2.829   7.310  0.6604  1.1946  1.9972
 3488TIP3   OH232098   5.734   3.286   0.966  0.1777 -0.3226  0.3882
 3488TIP3    H132099   5.699   3.279   1.055  0.1934  0.1037  0.4293
 3488TIP3    H232100   5.697   3.367   0.932 -2.5801 -2.0724 -1.2126
 3489TIP3   OH232101   5.836   5.028   6.776 -0.1332 -0.0471  0.1172
 3489TIP3    H132102   5.768   5.063   6.834  0.5468 -0.7036  1.3655
 3489TIP3    H232103   5.909   5.089   6.786  0.1135 -0.3603  0.2525
 3490TIP3   OH232104   0.916   5.968   1.435 -0.4935  0.0192 -0.0515
 3490TIP3    H132105   0.834   5.937   1.472  0.1748  0.3454  1.8315
 3490TIP3    H232106   0.903   6.062   1.422 -0.2212  0.2000  0.8970
 3491TIP3   OH232107   2.370   2.016   7.415  0.1500 -0.0061 -0.2997
 3491TIP3    H132108   2.398   2.045   7.502 -0.1182  0.8512 -0.4837
 3491TIP3    H232109   2.449   2.025   7.361 -0.5291  2.9789 -0.9530
 3492TIP3   OH232110   0.496   5.321   0.123 -0.2455 -0.1449 -0.3657
 3492TIP3    H132111   0.447   5.403   0.126  1.5019  0.9397 -0.4040
 3492TIP3    H232112   0.561   5.329   0.192  0.1804 -1.3715 -0.5946
 3493TIP3   OH232113   4.999   0.983   8.941  0.4005  0.5022  0.1401
 3493TIP3    H132114   4.921   0.985   8.886 -0.9814  0.3532  1.9706
 3493TIP3    H232115   5.007   1.072   8.975  1.6188  0.7610 -0.7718
 3494TIP3   OH232116   1.549   3.794   6.491  0.6433  0.6690 -0.6059
 3494TIP3    H132117   1.566   3.822   6.581 -0.9193  0.7530 -0.3128
 3494TIP3    H232118   1.454   3.793   6.484  0.6400 -2.1303 -1.3617
 3495TIP3   OH232119   3.904   1.501   0.690 -0.2848  0.4251  0.5341
 3495TIP3    H132120   3.974   1.536   0.746  1.6851  1.5758 -2.3733
 3495TIP3    H232121   3.949   1.438   0.632 -2.6090 -2.3102  1.4971
 3496TIP3   OH232122   2.520   4.277   2.118 -0.2354  0.3902  0.3939
 3496TIP3    H132123   2.598   4.292   2.172 -0.1280  0.1539  0.3058
 3496TIP3    H232124   2.516   4.354   2.061  0.3529  0.0649 -0.0993
 3497TIP3   OH232125   2.983   5.976   2.103  0.1405 -0.4067 -0.3825
 3497TIP3    H132126   2.892   5.973   2.074 -0.1911  2.1907  0.1454
 3497TIP3    H232127   2.996   5.893   2.149 -1.7107 -1.1456 -1.0815
 3498TIP3   OH232128   1.576   6.606   8.857 -0.0913  0.3567  0.2731
 3498TIP3    H132129   1.528   6.537   8.901 -2.3846  0.8352 -1.2908
 3498TIP3    H232130   1.610   6.661   8.928  0.9640 -1.7612  1.5008
 3499TIP3   OH232131   4.586   6.425   7.650  0.2246  0.0217  0.2519
 3499TIP3    H132132   4.561   6.356   7.712 -0.6527  0.9430  0.9709
 3499TIP3    H232133   4.680   6.438   7.666  0.1154 -0.0926  1.0597
 3500TIP3   OH232134   1.216   1.814   2.515 -0.4932 -0.1811  0.2478
 3500TIP3    H132135   1.249   1.810   2.425  1.3468  0.9159  0.8023
 3500TIP3    H232136   1.213   1.908   2.535  1.0867 -0.4325  1.9429
 3501TIP3   OH232137   1.516   4.180   7.706  0.6310  1.0592  0.6267
 3501TIP3    H132138   1.602   4.207   7.674 -0.2601  1.9484 -1.1513
 3501TIP3    H232139   1.454   4.215   7.642 -0.9392 -1.2753  0.7434
 3502TIP3   OH232140   5.408   0.873   7.755 -0.1703 -0.3653 -0.1480
 3502TIP3    H132141   5.373   0.834   7.836 -0.2278 -0.5128 -0.2423
 3502TIP3    H232142   5.331   0.881   7.698 -0.1019 -0.4114 -0.2472
 3503TIP3   OH232143   2.395   2.833   8.308 -0.4831  0.3017  0.2204
 3503TIP3    H132144   2.361   2.776   8.376 -2.5330  1.7259  0.4749
 3503TIP3    H232145   2.321   2.888   8.284  0.5181  0.6705 -2.3090
 3504TIP3   OH232146   4.862   5.576   8.987 -0.6466  0.7575  0.0216
 3504TIP3    H132147   4.874   5.544   9.076  1.0814 -0.3167 -0.5450
 3504TIP3    H232148   4.903   5.662   8.987 -0.2987  0.5984  0.1930
 3505TIP3   OH232149   3.656   6.642   8.805  0.0581  0.0327  0.1960
 3505TIP3    H132150   3.668   6.548   8.789 -0.4728 -0.0612  0.3197
 3505TIP3    H232151   3.739   6.682   8.779  0.0272 -0.3816 -0.5612
 3506TIP3   OH232152   4.019   6.117   7.114 -0.1742 -0.3502 -0.2848
 3506TIP3    H132153   3.975   6.194   7.151 -1.7993 -1.1746 -0.4423
 3506TIP3    H232154   4.112   6.138   7.121 -0.5729  2.1441 -1.3833
 3507TIP3   OH232155   1.536   1.284   7.573  0.1545 -0.0397  0.6383
 3507TIP3    H132156   1.550   1.368   7.530 -0.0099 -0.6256 -0.6043
 3507TIP3    H232157   1.510   1.225   7.502  0.6800 -1.2431  1.4164
 3508TIP3   OH232158   2.262   3.621   1.433  0.0965  0.2365 -0.6137
 3508TIP3    H132159   2.278   3.654   1.344 -0.6315  0.4572 -0.6618
 3508TIP3    H232160   2.195   3.678   1.469  0.2128 -0.0025 -0.0001
 3509TIP3   OH232161   0.881   2.739   1.531 -0.2132 -0.5001 -0.0510
 3509TIP3    H132162   0.910   2.799   1.600  2.0528 -0.4398 -0.9622
 3509TIP3    H232163   0.788   2.727   1.547 -0.4462  2.0924  1.0619
 3510TIP3   OH232164   0.548   2.374   0.313 -0.3925 -0.0119  0.1912
 3510TIP3    H132165   0.473   2.396   0.258 -0.3438 -2.7960 -1.1593
 3510TIP3    H232166   0.608   2.328   0.254  0.9093 -0.6887  1.9617
 3511TIP3   OH232167   2.271   2.758   1.020 -0.3126 -0.0911 -0.0577
 3511TIP3    H132168   2.232   2.673   1.043 -2.2168 -0.1199 -2.8655
 3511TIP3    H232169   2.198   2.819   1.023  0.2853  0.7316 -1.4268
 3512TIP3   OH232170   0.206   3.836   0.494 -0.3542 -0.0234 -0.0394
 3512TIP3    H132171   0.185   3.897   0.565  0.5505 -1.0963  1.1999
 3512TIP3    H232172   0.186   3.749   0.529 -1.8453 -0.4888 -1.8571
 3513TIP3   OH232173   4.864   4.195   6.863 -0.1710  0.1630 -0.1063
 3513TIP3    H132174   4.771   4.177   6.852 -0.5416  1.1537  1.1950
 3513TIP3    H232175   4.870   4.291   6.857  0.7791  0.1015 -0.2654
 3514TIP3   OH232176   0.713   5.286   7.974  0.6228  0.1507  0.8481
 3514TIP3    H132177   0.741   5.376   7.989 -0.2946  0.4480  0.8616
 3514TIP3    H232178   0.778   5.250   7.915 -0.4861  1.7094 -1.4964
 3515TIP3   OH232179   2.729   4.055   7.604 -0.6876 -0.0813  0.1936
 3515TIP3    H132180   2.798   3.989   7.602  1.0996  1.7332 -0.3620
 3515TIP3    H232181   2.695   4.051   7.694  0.2646 -0.8679  0.5327
 3516TIP3   OH232182   0.805   5.342   2.479 -0.1759 -0.1862 -0.3519
 3516TIP3    H132183   0.863   5.415   2.456 -0.4597  0.4288  0.8122
 3516TIP3    H232184   0.835   5.314   2.565 -1.4420 -0.0044  0.1766
 3517TIP3   OH232185   2.546   3.339   0.701 -0.3139 -0.0267  0.2309
 3517TIP3    H132186   2.486   3.371   0.633 -0.4154 -0.8012 -0.0537
 3517TIP3    H232187   2.505   3.366   0.784 -1.0962 -0.5980  0.0399
 3518TIP3   OH232188   6.673   1.535   9.121  0.0590 -0.2609 -0.2821
 3518TIP3    H132189   6.718   1.608   9.079  0.2240  0.0025  0.3462
 3518TIP3    H232190   6.584   1.538   9.086  0.1843 -0.0181 -0.5806
 3519TIP3   OH232191   0.012   4.258   8.436 -0.6555 -0.0007  0.5293
 3519TIP3    H132192  -0.045   4.299   8.371 -0.0849 -0.9252 -0.5869
 3519TIP3    H232193  -0.026   4.171   8.451 -0.0090 -0.3134  0.3915
 3520TIP3   OH232194   6.640   3.741   8.575  0.4029  0.3888 -0.1342
 3520TIP3    H132195   6.666   3.768   8.486 -1.0176  2.5330  0.0425
 3520TIP3    H232196   6.715   3.764   8.629  1.6111 -1.6653 -0.8219
 3521TIP3   OH232197   1.538   6.466   0.997 -0.2397 -0.2723  0.4368
 3521TIP3    H132198   1.590   6.408   0.941  0.2808 -0.5732  1.2225
 3521TIP3    H232199   1.467   6.496   0.940  0.7100  0.0465 -0.6337
 3522TIP3   OH232200   5.241   3.326   7.421  0.2758  0.2341 -0.1403
 3522TIP3    H132201   5.263   3.243   7.378 -0.3903  0.9150 -1.9015
 3522TIP3    H232202   5.282   3.393   7.365  0.2392  1.1316  0.8782
 3523TIP3   OH232203   3.708   4.266   2.363  0.5267 -0.1169  0.0597
 3523TIP3    H132204   3.753   4.340   2.403 -2.1604  1.0798  1.1076
 3523TIP3    H232205   3.672   4.301   2.281  0.1680 -0.5626  0.0207
 3524TIP3   OH232206   0.382   2.804   1.853  0.1076  0.2136  0.2591
 3524TIP3    H132207   0.436   2.774   1.927  1.1543  1.1232 -0.1038
 3524TIP3    H232208   0.432   2.778   1.775 -0.8705 -0.5203 -0.1512
 3525TIP3   OH232209   0.831   6.005   8.500  0.2969  0.0355  0.1869
 3525TIP3    H132210   0.921   5.983   8.522  0.1458  0.8934  1.8077
 3525TIP3    H232211   0.838   6.075   8.435  0.7761 -0.4504 -0.2920
 3526TIP3   OH232212   5.439   5.772   1.875 -0.1771 -0.3101  0.5419
 3526TIP3    H132213   5.498   5.755   1.948  3.1622  0.5760 -1.7347
 3526TIP3    H232214   5.441   5.867   1.864  1.7161 -0.5601 -2.3111
 3527TIP3   OH232215   3.296   6.056   8.360 -0.3500  0.1635 -0.4063
 3527TIP3    H132216   3.372   6.013   8.320 -0.9759 -2.3588  0.8795
 3527TIP3    H232217   3.334   6.130   8.409  1.6442 -2.0451  1.6762
 3528TIP3   OH232218   3.576   3.897   0.288  0.1737  0.4390  0.4548
 3528TIP3    H132219   3.542   3.986   0.289 -0.0478  0.3511  0.6837
 3528TIP3    H232220   3.653   3.900   0.345 -0.1054  0.3775  0.8416
 3529TIP3   OH232221   2.522   0.001   7.864  0.1651  0.2319  0.1295
 3529TIP3    H132222   2.604  -0.029   7.824 -0.3802  0.2018 -1.0184
 3529TIP3    H232223   2.540   0.005   7.958  1.5070  0.3355 -0.1234
 3530TIP3   OH232224   2.300   3.095   7.348  0.3074  0.9586 -0.6857
 3530TIP3    H132225   2.265   3.158   7.285 -0.3508  0.6829 -0.6078
 3530TIP3    H232226   2.238   3.022   7.344  1.4699 -0.0263 -1.3346
 3531TIP3   OH232227   2.558   6.569   0.418 -0.0013  0.9258 -0.8065
 3531TIP3    H132228   2.581   6.601   0.505  0.2006  1.0294 -0.8987
 3531TIP3    H232229   2.463   6.582   0.413 -0.1480  0.1644 -0.2936
 3532TIP3   OH232230   5.246   4.549   0.379  0.5097 -0.0720 -0.0127
 3532TIP3    H132231   5.168   4.559   0.433  0.5296 -1.2266  0.2359
 3532TIP3    H232232   5.251   4.632   0.330 -1.1211 -0.1563 -0.3691
 3533TIP3   OH232233   5.330   2.376   7.048 -0.0392  0.2775 -0.7806
 3533TIP3    H132234   5.415   2.344   7.077 -0.8355 -0.5123  0.8755
 3533TIP3    H232235   5.272   2.300   7.057 -1.2560  1.2442 -0.1663
 3534TIP3   OH232236   0.488   4.477   1.335 -0.0574 -0.1935 -0.0634
 3534TIP3    H132237   0.503   4.554   1.389  0.0944 -0.4156  0.2181
 3534TIP3    H232238   0.411   4.498   1.282  0.1637  0.2649 -0.2064
 3535TIP3   OH232239   5.042   6.716   7.092  1.3711 -0.1580 -0.0450
 3535TIP3    H132240   5.120   6.664   7.071  1.2813 -0.8160  1.1406
 3535TIP3    H232241   4.972   6.674   7.042  1.0783 -1.9598  1.7494
 3536TIP3   OH232242   0.652   3.336   8.079  0.0077  0.5430  0.1313
 3536TIP3    H132243   0.605   3.291   8.009 -0.1290  1.4827 -0.3917
 3536TIP3    H232244   0.702   3.405   8.035  1.0911  0.2057  0.7952
 3537TIP3   OH232245   2.098   0.424   0.101 -0.3167  0.2129  0.2022
 3537TIP3    H132246   2.072   0.382   0.019 -0.6578  0.0053  0.4130
 3537TIP3    H232247   2.114   0.352   0.161  4.3195  0.0526 -0.8405
 3538TIP3   OH232248   5.869   2.500   7.227  0.0944 -0.0326 -0.0394
 3538TIP3    H132249   5.813   2.489   7.304 -0.4257 -1.9282 -0.6371
 3538TIP3    H232250   5.808   2.503   7.153  0.6995 -1.2146 -0.6167
 3539TIP3   OH232251   3.077   1.150   1.382 -0.0102  0.1684  0.0388
 3539TIP3    H132252   2.990   1.117   1.359 -0.7195  1.4737  0.7352
 3539TIP3    H232253   3.075   1.157   1.478  1.2977 -0.9166  0.1714
 3540TIP3   OH232254   5.972   5.022   7.565  0.7059  0.4694 -0.1931
 3540TIP3    H132255   6.045   5.015   7.627 -0.6130  0.2496  1.4011
 3540TIP3    H232256   5.896   5.042   7.619 -0.7950 -1.1498 -1.5591
 3541TIP3   OH232257   1.491   1.790   7.618  0.1914  0.1138  0.4060
 3541TIP3    H132258   1.428   1.730   7.580 -0.6710  1.5128 -0.4871
 3541TIP3    H232259   1.438   1.856   7.663  1.1415 -0.4195  2.3967
 3542TIP3   OH232260   6.368   3.680   8.576  0.2692  0.2512 -0.2701
 3542TIP3    H132261   6.337   3.608   8.631  0.3070 -0.5634 -1.2778
 3542TIP3    H232262   6.463   3.670   8.575  0.4300  1.3238  0.8987
 3543TIP3   OH232263   3.256   0.399   8.709  0.0972  0.0487 -0.0205
 3543TIP3    H132264   3.164   0.425   8.696 -0.2391  0.0945  2.1828
 3543TIP3    H232265   3.252   0.308   8.738  0.5663  0.5835  1.8762
 3544TIP3   OH232266   1.421   3.231   8.390  0.1076 -0.2054  0.3352
 3544TIP3    H132267   1.329   3.219   8.365 -0.1543 -2.0882  1.9029
 3544TIP3    H232268   1.466   3.249   8.308 -1.7235  1.3577 -0.3945
 3545TIP3   OH232269   1.802   1.646   2.014  0.1644  0.0933 -0.0180
 3545TIP3    H132270   1.896   1.661   2.015  0.1382  0.2451  0.1090
 3545TIP3    H232271   1.767   1.705   2.080  0.1765 -1.2969  1.2801
 3546TIP3   OH232272   6.389   2.248   7.767  0.4748  0.2857 -0.1635
 3546TIP3    H132273   6.296   2.260   7.788  0.5285  0.0310  0.2286
 3546TIP3    H232274   6.424   2.337   7.763  0.7459  0.3632  2.1972
 3547TIP3   OH232275   6.120   0.815   8.224 -0.2246  0.0133 -0.0919
 3547TIP3    H132276   6.087   0.792   8.311  0.4805  0.3180  0.2604
 3547TIP3    H232277   6.207   0.850   8.239  0.8247 -1.9567 -1.1151
 3548TIP3   OH232278   0.608   6.611   1.976 -0.4727  0.3462 -0.1460
 3548TIP3    H132279   0.701   6.634   1.979 -0.7639  1.7525 -0.6922
 3548TIP3    H232280   0.563   6.691   2.005 -1.4805 -0.7728  1.4961
 3549TIP3   OH232281   1.591   2.722   1.533  0.4785  0.0011  0.3389
 3549TIP3    H132282   1.668   2.777   1.517 -0.4300  0.9389 -1.0313
 3549TIP3    H232283   1.605   2.687   1.621  2.3044  0.4018  0.2546
 3550TIP3   OH232284   1.409   2.970   9.013 -0.0724 -0.7691  0.1036
 3550TIP3    H132285   1.423   3.003   8.925 -0.6278  1.9376  0.9201
 3550TIP3    H232286   1.331   2.915   9.007 -0.4817 -0.0883 -0.9865
 3551TIP3   OH232287   0.794   6.377   7.927 -0.0617 -0.1586 -0.4032
 3551TIP3    H132288   0.817   6.380   8.020 -0.3640 -2.1869 -0.2097
 3551TIP3    H232289   0.877   6.369   7.881 -0.0023 -0.7799 -0.1876
 3552TIP3   OH232290   6.162   4.259   2.299  0.0470 -0.7851 -0.4731
 3552TIP3    H132291   6.207   4.305   2.370 -1.0370  0.2761 -0.4321
 3552TIP3    H232292   6.190   4.304   2.220 -1.6387  0.5651 -0.3691
 3553TIP3   OH232293   2.213   1.390   1.859  0.1380 -0.1682 -0.3742
 3553TIP3    H132294   2.171   1.369   1.776  0.2678  0.0405 -0.4969
 3553TIP3    H232295   2.249   1.478   1.845 -1.1653  0.5211  0.4179
 3554TIP3   OH232296   1.861   0.226   0.178 -0.1714 -0.2596  0.1718
 3554TIP3    H132297   1.881   0.223   0.085  0.1822  2.1100  0.0970
 3554TIP3    H232298   1.945   0.217   0.222 -0.0611  0.6579  0.1683
 3555TIP3   OH232299   4.158   3.939   9.023 -0.1770  0.4270 -0.1996
 3555TIP3    H132300   4.136   4.010   9.083 -1.8129 -0.5453  0.4141
 3555TIP3    H232301   4.253   3.927   9.032  0.0282  2.1070  0.1165
 3556TIP3   OH232302   1.501   6.488   7.011 -0.5823 -0.3537  0.1737
 3556TIP3    H132303   1.493   6.566   6.956 -2.8081 -0.7969 -0.2281
 3556TIP3    H232304   1.458   6.418   6.961 -0.8654 -1.2457  1.5905
 3557TIP3   OH232305   4.164   3.024   0.582 -0.1074  0.0576 -0.2539
 3557TIP3    H132306   4.105   3.044   0.654  0.6919  0.8389  0.1977
 3557TIP3    H232307   4.246   2.999   0.624 -0.1791 -1.3230 -0.8686
 3558TIP3   OH232308   5.536   5.332   1.258 -0.2737  0.3521  0.3655
 3558TIP3    H132309   5.511   5.425   1.255 -0.5765  0.2806 -2.5359
 3558TIP3    H232310   5.628   5.332   1.232 -0.9628 -0.2532 -2.3619
 3559TIP3   OH232311   4.730   1.399   7.526 -0.5355 -0.0646 -0.1470
 3559TIP3    H132312   4.798   1.455   7.562 -1.4471  1.0345 -0.0806
 3559TIP3    H232313   4.769   1.311   7.526  1.4908  0.7586 -1.7362
 3560TIP3   OH232314   5.190   4.283   6.813  0.2225  0.1429 -0.0954
 3560TIP3    H132315   5.283   4.296   6.826  0.6397 -3.2673  1.4960
 3560TIP3    H232316   5.148   4.335   6.882  0.9797  0.9894 -0.2650
 3561TIP3   OH232317   5.603   4.387   1.706 -0.7704  0.7496  0.0387
 3561TIP3    H132318   5.596   4.440   1.627  0.1866  2.7105  1.1690
 3561TIP3    H232319   5.693   4.355   1.705 -1.1428 -0.3265 -0.2888
 3562TIP3   OH232320   0.690   2.860   0.925 -0.4146 -0.2924  0.0225
 3562TIP3    H132321   0.769   2.877   0.978 -0.1322  0.1278 -0.5198
 3562TIP3    H232322   0.652   2.781   0.964  1.2878 -1.6061 -0.8315
 3563TIP3   OH232323   0.007   2.445   2.142  0.1525  0.3526 -0.1244
 3563TIP3    H132324   0.091   2.410   2.113 -0.1090 -0.3271 -0.1021
 3563TIP3    H232325   0.016   2.456   2.236 -0.1522 -0.8534  0.0692
 3564TIP3   OH232326   0.373   2.256   8.565 -0.6294 -0.7280  0.0897
 3564TIP3    H132327   0.285   2.293   8.573 -0.5265 -0.0239 -1.5544
 3564TIP3    H232328   0.402   2.283   8.478  0.6377 -2.2074  0.0131
 3565TIP3   OH232329   0.785   6.217   8.338  0.2647  0.3317  0.5955
 3565TIP3    H132330   0.691   6.200   8.338 -0.0527  0.7946 -4.4030
 3565TIP3    H232331   0.792   6.312   8.352 -0.0663  0.3690  0.5260
 3566TIP3   OH232332   0.468   4.553   1.029 -0.0749  0.2591  0.1786
 3566TIP3    H132333   0.539   4.606   1.067 -1.0106 -0.1500  2.6824
 3566TIP3    H232334   0.511   4.473   1.001  0.6071  0.3642  0.8684
 3567TIP3   OH232335   6.640   2.341   8.466  0.0319 -0.2337 -0.0048
 3567TIP3    H132336   6.592   2.422   8.483  1.0392 -0.0013  2.0251
 3567TIP3    H232337   6.574   2.282   8.430 -0.6045  1.5939 -2.0561
 3568TIP3   OH232338   5.549   5.396   8.483 -0.3490 -0.5659  0.1801
 3568TIP3    H132339   5.603   5.412   8.560 -0.6105 -0.4923  0.3518
 3568TIP3    H232340   5.513   5.308   8.497 -0.6346 -0.4340  0.2896
 3569TIP3   OH232341   5.775   3.747   7.178 -0.1907 -0.1057  0.5021
 3569TIP3    H132342   5.796   3.691   7.103  1.7042  1.1117  0.0471
 3569TIP3    H232343   5.695   3.793   7.153 -0.8557 -1.3708  0.2153
 3570TIP3   OH232344   2.794   5.191   1.873 -0.0736  0.0398 -0.6186
 3570TIP3    H132345   2.763   5.150   1.954  0.4296  0.9190  0.0320
 3570TIP3    H232346   2.762   5.281   1.878 -0.4295 -0.0167 -1.6244
 3571TIP3   OH232347   5.830   0.642   7.530 -0.5811  0.2305 -0.2061
 3571TIP3    H132348   5.754   0.656   7.587 -0.0031  1.5461  0.2751
 3571TIP3    H232349   5.895   0.706   7.560  0.4306 -0.3360 -1.1246
 3572TIP3   OH232350   0.716   2.418   0.930 -0.0831  0.5774 -0.1350
 3572TIP3    H132351   0.691   2.355   0.861  0.6061  1.1473 -0.9182
 3572TIP3    H232352   0.795   2.380   0.969  1.8308  2.1302 -2.2923
 3573TIP3   OH232353   5.034   0.200   1.681  0.2685 -0.2468  0.4867
 3573TIP3    H132354   5.070   0.112   1.670 -2.5461 -1.4563 -0.0107
 3573TIP3    H232355   5.018   0.230   1.592  0.6611  0.5275  0.6750
 3574TIP3   OH232356   0.920   2.005   0.181  0.3186 -0.3907 -0.4768
 3574TIP3    H132357   0.957   1.916   0.174 -0.7057 -0.9428  0.7893
 3574TIP3    H232358   0.872   2.016   0.099  1.0729 -0.6975 -0.9797
 3575TIP3   OH232359   4.131   0.015   1.986  0.1368  0.2705  0.7635
 3575TIP3    H132360   4.167  -0.072   1.966  0.1483  0.7194 -1.4272
 3575TIP3    H232361   4.178   0.074   1.927  0.0162  1.7662  2.1014
 3576TIP3   OH232362   4.610   4.868   6.743 -0.2592 -0.5046  0.0238
 3576TIP3    H132363   4.518   4.887   6.726 -0.4080 -2.6929 -2.0661
 3576TIP3    H232364   4.657   4.941   6.702 -0.9997 -0.6809 -1.1900
 3577TIP3   OH232365   0.646   6.285   8.624 -0.6878  0.3207 -0.0979
 3577TIP3    H132366   0.709   6.333   8.570 -1.5049  1.2030 -0.3081
 3577TIP3    H232367   0.593   6.236   8.561  0.4900 -1.3375  0.1530
 3578TIP3   OH232368   3.816   3.350   7.168  0.0756 -0.1287 -0.4830
 3578TIP3    H132369   3.798   3.280   7.230  1.2227  0.4160  0.5075
 3578TIP3    H232370   3.893   3.394   7.203  0.6375  0.3430 -2.1835
 3579TIP3   OH232371   0.730   4.176   0.301 -0.2858  0.0427 -0.1257
 3579TIP3    H132372   0.753   4.251   0.357  0.1760 -0.3123  0.1788
 3579TIP3    H232373   0.778   4.191   0.220 -0.1495  0.0535 -0.0440
 3580TIP3   OH232374   2.694   5.962   2.084 -0.0357  0.0581  0.6106
 3580TIP3    H132375   2.671   6.054   2.097  0.5510  0.5256 -1.3007
 3580TIP3    H232376   2.669   5.919   2.165 -1.9791  1.5833  0.8822
 3581TIP3   OH232377   2.833   2.749   1.506  0.7178  0.2553 -0.1855
 3581TIP3    H132378   2.761   2.715   1.559  0.1792  1.7010  0.0623
 3581TIP3    H232379   2.878   2.812   1.564  1.1674  0.5811 -0.8732
 3582TIP3   OH232380   2.162   2.995   0.298 -0.2136  0.1438 -0.5102
 3582TIP3    H132381   2.091   3.010   0.361  0.9079  0.6808  0.6743
 3582TIP3    H232382   2.203   3.081   0.287  0.1069 -0.1083 -1.3831
 3583TIP3   OH232383   4.332   6.446   6.975  0.6759 -0.2768 -0.3976
 3583TIP3    H132384   4.400   6.458   7.041  0.4087  0.8300 -0.3117
 3583TIP3    H232385   4.380   6.424   6.895  1.1226  0.3546 -0.3064
 3584TIP3   OH232386   4.243   2.725   8.389  0.0014  0.8964  0.0499
 3584TIP3    H132387   4.309   2.745   8.323 -0.1896 -0.2215 -0.5021
 3584TIP3    H232388   4.279   2.760   8.471  0.5543  1.6784 -0.5189
 3585TIP3   OH232389   0.613   6.177   1.431 -0.4794 -0.3437  0.0686
 3585TIP3    H132390   0.574   6.152   1.515 -1.0003 -0.0927 -0.0926
 3585TIP3    H232391   0.707   6.184   1.449 -0.4411 -1.4325  0.3516
 3586TIP3   OH232392   5.981   5.700   7.275  0.1033  0.0116  0.2957
 3586TIP3    H132393   6.070   5.670   7.257  1.0543  2.4150  0.6804
 3586TIP3    H232394   5.936   5.692   7.191  1.1098  0.1823 -0.2799
 3587TIP3   OH232395   1.498   5.875   1.968 -0.4179  0.0999  0.4744
 3587TIP3    H132396   1.455   5.842   1.889 -0.2799 -0.1270  0.4926
 3587TIP3    H232397   1.591   5.869   1.949 -0.3862  0.2187  0.5862
 3588TIP3   OH232398   0.163   1.744   6.658  0.2845  0.4263 -0.1778
 3588TIP3    H132399   0.094   1.701   6.607  0.1871 -0.6413  0.8168
 3588TIP3    H232400   0.120   1.821   6.695  0.3722  1.2583 -1.7143
 3589TIP3   OH232401   0.975   0.291   8.614  0.0958 -0.2435 -0.3175
 3589TIP3    H132402   0.887   0.308   8.581  1.1438  0.1721 -3.1868
 3589TIP3    H232403   0.969   0.205   8.655 -1.2691 -1.0971 -2.1670
 3590TIP3   OH232404   5.951   6.636   0.466 -0.1335 -0.1411  0.2741
 3590TIP3    H132405   5.918   6.550   0.492  1.9258 -1.2834 -0.6159
 3590TIP3    H232406   5.894   6.663   0.394 -2.5595  0.6333  2.3036
 3591TIP3   OH232407   1.244   5.908   0.244  0.1580  0.4390  0.1727
 3591TIP3    H132408   1.264   5.854   0.321 -1.2581  0.2452  0.4420
 3591TIP3    H232409   1.329   5.926   0.204  1.0207  1.2204  2.2195
 3592TIP3   OH232410   2.466   2.136   7.631 -0.3834  0.1295  0.6883
 3592TIP3    H132411   2.558   2.115   7.645 -0.0287  0.4438 -0.9899
 3592TIP3    H232412   2.455   2.223   7.670 -0.2045 -0.2799  1.6738
 3593TIP3   OH232413   6.065   3.440   6.608  0.3862 -0.1943  0.3517
 3593TIP3    H132414   5.986   3.492   6.596  0.7308  1.2901  3.5708
 3593TIP3    H232415   6.048   3.360   6.557 -1.6989  1.4381 -1.7805
 3594TIP3   OH232416   4.978   3.274   0.405 -0.4580  0.1315  0.2623
 3594TIP3    H132417   4.949   3.273   0.314  0.2128 -0.9113  0.0397
 3594TIP3    H232418   4.957   3.362   0.436 -0.6098  0.5350 -0.9224
 3595TIP3   OH232419   5.247   2.257   0.067 -0.2696  1.1615  0.1082
 3595TIP3    H132420   5.260   2.331   0.126 -0.3079  0.8219  0.5581
 3595TIP3    H232421   5.155   2.233   0.079 -0.0967  0.6514  0.4417
 3596TIP3   OH232422   1.929   4.424   6.656  0.0578 -0.2607  0.3837
 3596TIP3    H132423   1.877   4.472   6.592  1.9783  2.9503  1.0261
 3596TIP3    H232424   1.969   4.354   6.605 -3.1950 -1.7049 -0.5102
 3597TIP3   OH232425   2.890   1.200   0.783  0.0507 -0.5077  0.3091
 3597TIP3    H132426   2.948   1.275   0.768  0.4286 -0.6594  0.9804
 3597TIP3    H232427   2.928   1.155   0.858 -1.2837 -0.2597  1.1608
 3598TIP3   OH232428   4.134   2.136   8.121  0.0160  0.3103  0.6883
 3598TIP3    H132429   4.081   2.167   8.048  0.6110  0.1349  0.1705
 3598TIP3    H232430   4.147   2.213   8.176  2.7930  1.5050 -1.3729
 3599TIP3   OH232431   4.643   0.317   0.892  0.7559  0.2145 -0.0827
 3599TIP3    H132432   4.588   0.328   0.970  1.1886 -0.2337  0.2856
 3599TIP3    H232433   4.580   0.319   0.819  0.2417 -0.2715  0.3312
 3600TIP3   OH232434   2.731   6.659   1.456 -0.3547  0.2242 -0.6136
 3600TIP3    H132435   2.659   6.597   1.443  0.2628 -0.4802 -0.6944
 3600TIP3    H232436   2.787   6.646   1.379 -0.0041  0.5893 -0.4194
 3601TIP3   OH232437   0.421   5.698   8.144  0.6292 -0.3266 -0.2065
 3601TIP3    H132438   0.372   5.634   8.093 -1.5798 -0.3559  1.7941
 3601TIP3    H232439   0.474   5.645   8.204 -0.1819 -0.2976  0.5422
 3602TIP3   OH232440   4.363   3.812   7.318 -0.4389 -0.0073 -0.1160
 3602TIP3    H132441   4.404   3.872   7.380 -1.7096  0.5993  0.1566
 3602TIP3    H232442   4.366   3.859   7.234 -1.5219  0.5067  0.1164
 3603TIP3   OH232443   0.607   3.598   7.332  0.1279 -0.4165 -0.6680
 3603TIP3    H132444   0.689   3.549   7.340  1.0564  0.9226 -1.6452
 3603TIP3    H232445   0.632   3.690   7.345 -1.4743 -0.0986  0.5303
 3604TIP3   OH232446   1.265   5.426   7.559 -0.3147 -0.5848  0.4130
 3604TIP3    H132447   1.205   5.352   7.569  0.8189 -1.4930  0.5850
 3604TIP3    H232448   1.250   5.479   7.638 -1.7852 -0.1216 -0.1430
 3605TIP3   OH232449   2.631   2.281   7.366  0.2387  0.3068  0.1683
 3605TIP3    H132450   2.657   2.190   7.379 -0.2544  0.4043  2.2547
 3605TIP3    H232451   2.707   2.332   7.395 -0.6263  0.5383  2.2343
 3606TIP3   OH232452   5.479   0.369   8.521  0.6168  0.1253 -0.0685
 3606TIP3    H132453   5.424   0.430   8.471  0.2482 -0.1197  0.0281
 3606TIP3    H232454   5.531   0.323   8.455 -1.0531 -1.3873 -0.4216
 3607TIP3   OH232455   1.316   1.624   8.864 -0.5472  0.1511  0.1642
 3607TIP3    H132456   1.400   1.667   8.879 -0.8427  1.1677 -0.9704
 3607TIP3    H232457   1.280   1.667   8.787 -1.1584 -1.7215 -0.6490
 3608TIP3   OH232458   0.387   5.557   0.679 -0.5989  0.3214  0.4406
 3608TIP3    H132459   0.442   5.498   0.627 -1.8766 -0.9784  0.4973
 3608TIP3    H232460   0.375   5.634   0.624 -1.1571 -0.6384 -0.8092
 3609TIP3   OH232461   1.750   5.824   1.889  0.3085  0.0611  0.4272
 3609TIP3    H132462   1.759   5.738   1.847  0.4041  1.0827 -1.7677
 3609TIP3    H232463   1.830   5.871   1.867  0.7588  0.3914  2.5384
 3610TIP3   OH232464   2.885   5.479   8.421  0.5238 -0.2224 -0.6367
 3610TIP3    H132465   2.871   5.387   8.396 -0.5392  0.1985 -1.6752
 3610TIP3    H232466   2.957   5.476   8.484  0.3895 -1.7886 -0.5194
 3611TIP3   OH232467   1.006   4.284   1.441  0.1738  0.3008 -0.4148
 3611TIP3    H132468   1.094   4.303   1.475  0.0742 -1.0028  0.6786
 3611TIP3    H232469   0.947   4.324   1.505 -0.0353  0.9331 -1.0006
 3612TIP3   OH232470   4.239   2.663   0.973 -0.2054 -0.2405 -0.0243
 3612TIP3    H132471   4.313   2.618   0.932 -0.4975 -1.4033  0.6876
 3612TIP3    H232472   4.183   2.688   0.900 -1.0164 -2.8164 -0.3739
 3613TIP3   OH232473   0.724   5.429   1.242 -0.3257 -0.1018 -0.0371
 3613TIP3    H132474   0.667   5.448   1.167 -0.7899 -0.2108  0.2805
 3613TIP3    H232475   0.760   5.515   1.267 -2.3123  0.4083  1.3100
 3614TIP3   OH232476   2.853   5.462   8.752 -0.2184 -0.1950 -0.0292
 3614TIP3    H132477   2.792   5.412   8.699 -0.4024 -1.6514  1.4867
 3614TIP3    H232478   2.798   5.521   8.804 -0.3027 -0.9019  0.7080
 3615TIP3   OH232479   3.556   5.654   1.897 -0.5468  0.0466  0.2669
 3615TIP3    H132480   3.590   5.643   1.986 -0.7632 -0.3942  0.2978
 3615TIP3    H232481   3.600   5.586   1.847  0.0361  0.6803 -0.1006
 3616TIP3   OH232482   6.056   2.634   7.372 -0.1463 -0.8401  0.1388
 3616TIP3    H132483   5.985   2.654   7.433 -1.4636 -1.4050 -1.1439
 3616TIP3    H232484   6.015   2.579   7.305  0.9931  0.5272 -1.7743
 3617TIP3   OH232485   5.791   5.328   0.483 -0.2050  0.7076 -0.3133
 3617TIP3    H132486   5.778   5.233   0.481  0.6149  0.5766  0.2919
 3617TIP3    H232487   5.721   5.361   0.539  0.3522  0.3052  0.6315
 3618TIP3   OH232488   5.684   6.561   8.367 -0.5863 -0.2257 -0.0870
 3618TIP3    H132489   5.589   6.571   8.363 -0.6156  0.0541  1.0147
 3618TIP3    H232490   5.718   6.647   8.343 -0.6305 -0.1595  0.0838
 3619TIP3   OH232491   5.347   5.489   8.831  0.2840 -0.1939 -0.6513
 3619TIP3    H132492   5.436   5.505   8.862 -1.0227  1.1345  2.9429
 3619TIP3    H232493   5.328   5.564   8.774  0.7104  0.7756  0.4464
 3620TIP3   OH232494   4.654   4.946   7.852  0.4871  0.4367 -0.5357
 3620TIP3    H132495   4.567   4.985   7.853  0.7464  1.0529  0.9703
 3620TIP3    H232496   4.639   4.852   7.850 -0.1572  0.5019 -3.2993
 3621TIP3   OH232497   3.387   1.417   1.811  0.0837 -0.6750 -0.1731
 3621TIP3    H132498   3.474   1.447   1.838 -0.1147 -1.7209  1.8410
 3621TIP3    H232499   3.333   1.496   1.812  0.8042 -0.1637 -0.6033
 3622TIP3   OH232500   4.293   0.009   7.129  0.5385  0.5018  0.2449
 3622TIP3    H132501   4.231  -0.011   7.059  0.5906 -0.7618  0.5453
 3622TIP3    H232502   4.338  -0.073   7.146  0.7270  0.8532  1.5678
 3623TIP3   OH232503   2.325   6.530   7.236  0.3059  0.0186  0.3505
 3623TIP3    H132504   2.333   6.478   7.317 -0.5722 -0.7230 -0.0253
 3623TIP3    H232505   2.252   6.490   7.189 -1.2254  2.3757  0.5998
 3624TIP3   OH232506   5.706   2.561   8.135  0.3798 -0.1804  0.7261
 3624TIP3    H132507   5.746   2.628   8.080 -1.0038  1.4347  1.5799
 3624TIP3    H232508   5.740   2.478   8.101  2.8565  0.9708  0.1958
 3625TIP3   OH232509   1.654   4.183   8.258 -0.5071 -0.4697  0.4983
 3625TIP3    H132510   1.737   4.208   8.216 -0.2543 -1.4469  0.3798
 3625TIP3    H232511   1.587   4.225   8.206 -0.0630  0.9466  1.0289
 3626TIP3   OH232512   2.309   5.947   8.440  0.4143 -0.2210  0.0159
 3626TIP3    H132513   2.325   6.033   8.400 -2.2179  0.9073  1.0948
 3626TIP3    H232514   2.340   5.884   8.375  0.4417  1.5537 -1.7975
 3627TIP3   OH232515   4.878   6.130   7.960 -0.1581 -0.2271 -0.5922
 3627TIP3    H132516   4.866   6.042   7.996  0.1843  0.8185  2.3109
 3627TIP3    H232517   4.807   6.139   7.896 -1.8290 -1.6993  0.9304
 3628TIP3   OH232518   1.374   5.349   7.284 -0.8376 -0.0692 -0.3384
 3628TIP3    H132519   1.362   5.271   7.339  0.7533  0.1664  0.4245
 3628TIP3    H232520   1.290   5.395   7.288 -1.4105 -1.1319  0.1886
 3629TIP3   OH232521   1.367   0.015   1.060 -0.1018  0.2864 -0.5343
 3629TIP3    H132522   1.307  -0.046   1.016 -0.3869  0.3225 -0.1997
 3629TIP3    H232523   1.309   0.076   1.106  0.1795 -0.4468  0.8467
 3630TIP3   OH232524   1.305   3.928   8.156  0.1067 -0.2021  0.4735
 3630TIP3    H132525   1.228   3.871   8.150  0.2554 -0.3350 -0.4703
 3630TIP3    H232526   1.271   4.011   8.188 -0.3582 -0.3984  0.5055
 3631TIP3   OH232527   1.771   5.673   9.076 -0.3060  0.4093 -0.1498
 3631TIP3    H132528   1.676   5.665   9.070 -0.4084  0.8334  0.7807
 3631TIP3    H232529   1.801   5.587   9.104 -0.3905  0.2090 -0.6665
 3632TIP3   OH232530   3.481   5.126   2.412 -0.0220  0.8961  0.0882
 3632TIP3    H132531   3.399   5.077   2.408  0.4226  0.1403 -0.0093
 3632TIP3    H232532   3.456   5.211   2.447 -0.8905  0.7769 -0.2074
 3633TIP3   OH232533   5.162   0.938   6.448 -0.0474 -0.0349 -0.2006
 3633TIP3    H132534   5.110   0.858   6.453 -2.2407  1.1218 -2.5224
 3633TIP3    H232535   5.147   0.971   6.360  2.4066  1.9322  0.0094
 3634TIP3   OH232536   3.560   4.543   6.988 -0.1813  0.3153 -0.5586
 3634TIP3    H132537   3.595   4.520   6.902 -0.3056 -1.1908 -0.2355
 3634TIP3    H232538   3.486   4.484   7.001  1.8890 -2.0389  1.9898
 3635TIP3   OH232539   0.695   0.096   0.271  0.5120  0.2423 -0.0232
 3635TIP3    H132540   0.703   0.160   0.199  0.5923  0.4459  0.1650
 3635TIP3    H232541   0.767   0.035   0.255 -0.2488 -0.4662 -0.8570
 3636TIP3   OH232542   0.467   1.237   9.072 -0.5251  0.4909 -0.1418
 3636TIP3    H132543   0.509   1.248   8.986  0.3593 -2.2466 -0.1353
 3636TIP3    H232544   0.435   1.325   9.094  2.8421  2.2206 -1.3967
 3637TIP3   OH232545   5.411   1.282   7.440 -0.0289 -0.0181  0.8962
 3637TIP3    H132546   5.414   1.376   7.424  0.9601 -0.2232 -0.2299
 3637TIP3    H232547   5.339   1.251   7.385 -0.1652  0.0303  1.0448
 3638TIP3   OH232548   3.434   4.320   7.466  0.2186  0.6511  0.1231
 3638TIP3    H132549   3.505   4.362   7.418 -0.8021  2.0695 -0.2292
 3638TIP3    H232550   3.466   4.311   7.556  1.6097 -0.7051 -0.4606
 3639TIP3   OH232551   0.021   3.380   0.336 -0.0657 -0.5221 -0.0632
 3639TIP3    H132552   0.042   3.412   0.423  0.7551 -1.1890  0.0026
 3639TIP3    H232553   0.031   3.456   0.279  1.6311 -0.5687  0.1162
 3640TIP3   OH232554   1.440   4.090   1.879 -0.3444  0.2741  0.2946
 3640TIP3    H132555   1.434   4.090   1.783  0.4633  2.3878  0.1993
 3640TIP3    H232556   1.385   4.164   1.906  1.9462  1.7177  1.2207
 3641TIP3   OH232557   4.066   0.452   8.706  0.6269 -0.0183 -0.2775
 3641TIP3    H132558   4.121   0.463   8.629  0.4162 -1.9174 -0.7264
 3641TIP3    H232559   4.124   0.474   8.779  1.4108 -0.1160 -0.8571
 3642TIP3   OH232560   3.471   4.946   8.903 -0.3732 -0.5007 -0.5124
 3642TIP3    H132561   3.548   4.965   8.956 -0.9743  1.7930 -0.3298
 3642TIP3    H232562   3.490   4.862   8.861  1.7590 -0.4947  0.3275
 3643TIP3   OH232563   1.937   3.350   6.290 -0.2709 -0.3418 -0.1950
 3643TIP3    H132564   1.956   3.259   6.267 -0.9115 -0.2748 -1.0655
 3643TIP3    H232565   1.991   3.401   6.229 -0.7907 -0.1524 -0.5074
 3644TIP3   OH232566   2.699   4.890   8.739 -0.0655  0.0181  0.0596
 3644TIP3    H132567   2.631   4.860   8.801 -1.7210 -0.5253 -1.9078
 3644TIP3    H232568   2.705   4.984   8.753 -1.0145  0.0246  0.4872
 3645TIP3   OH232569   5.436   2.773   7.332 -0.0349 -0.6409  0.2094
 3645TIP3    H132570   5.379   2.708   7.290 -1.6383  1.0769 -0.3883
 3645TIP3    H232571   5.391   2.796   7.413  1.0365 -0.9911  0.9223
 3646TIP3   OH232572   0.040   5.853   0.759  0.1117 -0.1965  0.4279
 3646TIP3    H132573  -0.040   5.887   0.719  0.0185 -0.6370  0.2273
 3646TIP3    H232574   0.069   5.922   0.818 -0.2894  0.0627  0.3255
 3647TIP3   OH232575   4.298   2.697   0.644  0.2421 -0.6151  0.4820
 3647TIP3    H132576   4.208   2.668   0.634 -0.1794 -0.5538  3.3085
 3647TIP3    H232577   4.291   2.784   0.684  1.5194 -1.0738  1.8075
 3648TIP3   OH232578   3.162   5.880   0.355  0.1828  0.2909 -0.0876
 3648TIP3    H132579   3.187   5.921   0.273 -0.3794  3.4728  1.1665
 3648TIP3    H232580   3.086   5.929   0.384  2.3713  1.7939  3.9680
 3649TIP3   OH232581   5.688   6.238   2.305  0.0504  0.7526  0.0215
 3649TIP3    H132582   5.669   6.144   2.307  1.1006  0.4770 -1.3355
 3649TIP3    H232583   5.765   6.247   2.361  0.8522  0.5416 -1.0132
 3650TIP3   OH232584   4.984   5.626   0.320  0.0360  0.5929  0.1847
 3650TIP3    H132585   4.972   5.708   0.368 -0.7610  0.3673  0.3771
 3650TIP3    H232586   4.925   5.564   0.363 -1.6156  0.6847 -1.7938
 3651TIP3   OH232587   3.921   5.588   0.351  0.3247 -0.4168 -0.3012
 3651TIP3    H132588   3.971   5.544   0.282  1.3144 -0.6618  0.5508
 3651TIP3    H232589   3.959   5.675   0.358  0.9663 -0.7567  0.6636
 3652TIP3   OH232590   4.689   0.986   0.715  0.3584  0.5224 -0.1586
 3652TIP3    H132591   4.694   0.997   0.620  0.7926  0.9000 -0.0994
 3652TIP3    H232592   4.750   1.051   0.749  2.0023 -1.1652  0.2917
 3653TIP3   OH232593   0.926   3.128   8.246  0.0860  0.2362  0.3170
 3653TIP3    H132594   0.978   3.053   8.274 -1.2520 -0.0838  2.1609
 3653TIP3    H232595   0.896   3.168   8.328 -3.1544 -0.0526 -0.5551
 3654TIP3   OH232596   0.326   4.476   7.131  0.5429 -0.2340  0.4907
 3654TIP3    H132597   0.396   4.416   7.104  0.0177 -1.6462  2.1158
 3654TIP3    H232598   0.303   4.448   7.219  0.0994  2.2448  1.2426
 3655TIP3   OH232599   6.198   1.656   1.378  0.0495  0.1737 -0.2168
 3655TIP3    H132600   6.117   1.695   1.347  0.5957  0.1443 -1.7962
 3655TIP3    H232601   6.254   1.731   1.400 -0.0384  0.2185 -0.1484
 3656TIP3   OH232602   6.095   0.655   1.268  0.1245 -0.1348 -0.5734
 3656TIP3    H132603   6.048   0.604   1.202  1.2310  0.0973 -1.5552
 3656TIP3    H232604   6.068   0.746   1.252 -0.6909 -0.2189  0.2202
 3657TIP3   OH232605   2.823   0.592   1.128 -0.1980  0.1879 -0.1493
 3657TIP3    H132606   2.894   0.529   1.139 -0.5491  0.0261  1.5259
 3657TIP3    H232607   2.818   0.637   1.212 -0.1488  2.2904 -1.1957
 3658TIP3   OH232608   2.328   5.537   8.915 -0.2513 -0.2853  0.2603
 3658TIP3    H132609   2.383   5.565   8.988  0.6947 -2.2349  0.3694
 3658TIP3    H232610   2.250   5.593   8.920  0.5814  0.8088  1.6652
 3659TIP3   OH232611   6.251   2.923   1.755  0.2543  0.3311  0.1113
 3659TIP3    H132612   6.322   2.980   1.784  2.0117 -1.6286 -0.0754
 3659TIP3    H232613   6.260   2.845   1.810 -0.9450 -0.4853 -0.8041
 3660TIP3   OH232614   0.710   2.209   6.932  0.0602 -0.3156  0.0360
 3660TIP3    H132615   0.692   2.273   6.863 -0.9933 -0.8024 -0.1672
 3660TIP3    H232616   0.659   2.131   6.906  1.3984 -1.2771  0.2118
 3661TIP3   OH232617   2.273   4.129   8.752 -0.5043 -0.4191  0.1230
 3661TIP3    H132618   2.208   4.198   8.737 -2.3164 -1.7026  1.5140
 3661TIP3    H232619   2.277   4.120   8.847  0.9719 -1.0744  0.0176
 3662TIP3   OH232620   3.194   0.444   0.181 -0.1599 -0.1321  0.1893
 3662TIP3    H132621   3.107   0.410   0.161  0.2620 -1.2525  0.2261
 3662TIP3    H232622   3.184   0.486   0.266 -0.5772 -0.5726  0.3603
 3663TIP3   OH232623   0.894   2.155   7.117  0.6037 -0.6074 -0.1857
 3663TIP3    H132624   0.807   2.175   7.082  1.1504  1.0174 -0.7114
 3663TIP3    H232625   0.879   2.132   7.208 -0.1995  2.1620  0.4704
 3664TIP3   OH232626   0.237   2.175   7.394 -0.4560  0.8478  0.1182
 3664TIP3    H132627   0.199   2.093   7.427 -2.0759  2.0172  1.3151
 3664TIP3    H232628   0.291   2.148   7.320  0.9740 -1.5800  1.9067
 3665TIP3   OH232629   2.448   4.669   8.797  0.4317  0.3181 -0.4341
 3665TIP3    H132630   2.375   4.659   8.736  0.7053  0.3800 -0.7741
 3665TIP3    H232631   2.443   4.760   8.826 -0.6306 -0.1155  0.8398
 3666TIP3   OH232632   6.171   0.496   1.860 -0.0102 -0.0679 -0.2215
 3666TIP3    H132633   6.169   0.411   1.816 -0.1502  0.6607 -1.6915
 3666TIP3    H232634   6.258   0.502   1.898  1.3176  0.5047 -3.0448
 3667TIP3   OH232635   4.097   5.003   7.957  0.3598  0.6376 -0.0808
 3667TIP3    H132636   4.079   5.096   7.950  2.8169  1.0686 -2.5207
 3667TIP3    H232637   4.039   4.962   7.894  1.4918  0.9492 -1.3627
 3668TIP3   OH232638   1.833   2.567   0.355 -0.1273 -0.0165  0.5411
 3668TIP3    H132639   1.843   2.531   0.443 -0.6356 -1.6315 -0.0337
 3668TIP3    H232640   1.918   2.607   0.336  0.4358 -0.8405  1.2527
 3669TIP3   OH232641   0.419   5.735   1.857 -0.4345  0.0881 -0.3445
 3669TIP3    H132642   0.507   5.735   1.819  0.5411 -0.8865  1.7387
 3669TIP3    H232643   0.374   5.808   1.814  1.7647  1.3556 -0.6457
 3670TIP3   OH232644   0.176   4.177   0.345 -0.1267  0.2773 -0.1685
 3670TIP3    H132645   0.240   4.111   0.369 -1.5164 -1.0523  0.0357
 3670TIP3    H232646   0.212   4.259   0.378  2.7849  0.1069 -2.4814
 3671TIP3   OH232647   6.385   1.469   0.264 -0.0059 -0.2908  0.1490
 3671TIP3    H132648   6.395   1.559   0.234  0.5745 -0.2134  0.5595
 3671TIP3    H232649   6.472   1.445   0.298  0.2950 -1.5292 -1.3743
 3672TIP3   OH232650   1.174   0.612   1.346  0.2080  0.2046  0.5705
 3672TIP3    H132651   1.180   0.555   1.423 -0.1732 -0.6927 -0.0484
 3672TIP3    H232652   1.255   0.664   1.348  0.7656 -0.6659  0.9221
 3673TIP3   OH232653   4.331   1.273   2.017  0.5970 -0.2305  0.2580
 3673TIP3    H132654   4.389   1.284   2.093  0.1373 -0.6422  0.6818
 3673TIP3    H232655   4.302   1.182   2.022 -1.0857  0.2877  0.8088
 3674TIP3   OH232656   5.587   3.473   6.548 -0.1670  0.5537  0.1899
 3674TIP3    H132657   5.525   3.524   6.600 -0.8260  0.8251 -0.8376
 3674TIP3    H232658   5.534   3.402   6.512  0.4008  0.0660  0.3012
 3675TIP3   OH232659   2.467   0.384   1.577  0.7045  0.1995  0.5668
 3675TIP3    H132660   2.469   0.292   1.604  0.1460  0.3043  0.9820
 3675TIP3    H232661   2.489   0.433   1.656  0.6871  0.4347  0.4274
 3676TIP3   OH232662   6.477   3.956   0.785 -0.0833  0.0320  0.7306
 3676TIP3    H132663   6.518   4.039   0.808  1.3871 -0.5020  0.1469
 3676TIP3    H232664   6.409   3.979   0.722  0.7951  0.7361  0.0152
 3677TIP3   OH232665   2.466   1.175   7.392 -0.1858  0.0477 -0.0492
 3677TIP3    H132666   2.464   1.228   7.313  2.8290  0.3772 -0.0424
 3677TIP3    H232667   2.483   1.086   7.361 -0.4480 -0.0781  0.1617
 3678TIP3   OH232668   6.708   5.463   1.057  0.1784 -0.1901  0.1831
 3678TIP3    H132669   6.684   5.417   1.138 -1.1923 -1.2966 -0.8029
 3678TIP3    H232670   6.731   5.393   0.996  4.7569  0.7132  0.5358
 3679TIP3   OH232671   2.606   2.372   9.075  0.2689 -0.3241  0.2883
 3679TIP3    H132672   2.688   2.375   9.123 -0.0765  1.3155  0.8397
 3679TIP3    H232673   2.538   2.376   9.142 -0.2223  2.0538 -0.2448
 3680TIP3   OH232674   5.255   5.038   8.802 -0.3811 -0.3435 -0.2562
 3680TIP3    H132675   5.266   4.982   8.725  1.6653  1.5334 -1.4475
 3680TIP3    H232676   5.343   5.050   8.837 -0.7496  1.9108  0.0642
 3681TIP3   OH232677   4.879   1.207   8.543  0.5360 -0.5547  0.4464
 3681TIP3    H132678   4.932   1.229   8.466 -0.3018 -1.5577 -0.4572
 3681TIP3    H232679   4.820   1.282   8.554 -4.0262 -2.8386 -4.1224
 3682TIP3   OH232680   0.112   6.738   0.561  0.1074 -0.1512  0.2373
 3682TIP3    H132681   0.027   6.776   0.583  0.9870  3.6146 -1.9301
 3682TIP3    H232682   0.175   6.787   0.615  1.0500 -2.4963  1.4093
 3683TIP3   OH232683   3.972   2.166   0.512 -0.4984 -0.1973 -0.1859
 3683TIP3    H132684   4.040   2.196   0.573 -1.3784 -1.1985  1.3326
 3683TIP3    H232685   3.996   2.076   0.491 -0.2530  0.1055 -1.3039
 3684TIP3   OH232686   5.835   1.501   0.774 -0.6336  0.1749  0.1966
 3684TIP3    H132687   5.820   1.594   0.794 -0.6280  0.6506 -1.8235
 3684TIP3    H232688   5.920   1.499   0.730  0.5515 -1.1628  2.3623
 3685TIP3   OH232689   4.082   4.473   7.353  0.5097 -0.2008  0.4889
 3685TIP3    H132690   4.169   4.499   7.322  0.5496 -0.2787  0.5358
 3685TIP3    H232691   4.080   4.378   7.343  1.1209 -0.4198  2.2345
 3686TIP3   OH232692   3.615   6.255   1.319  0.4464 -0.1430  0.2551
 3686TIP3    H132693   3.593   6.162   1.320  0.1253 -0.0962 -0.9534
 3686TIP3    H232694   3.532   6.298   1.297  1.0977  0.2362 -1.6730
 3687TIP3   OH232695   3.211   3.461   7.321 -0.5594 -0.0767 -0.0724
 3687TIP3    H132696   3.166   3.410   7.389  0.9370 -0.4334  0.6755
 3687TIP3    H232697   3.277   3.511   7.368  1.9994 -1.9382 -1.4357
 3688TIP3   OH232698   0.449   4.493   7.560  0.5623 -0.3702  0.2271
 3688TIP3    H132699   0.364   4.530   7.535 -0.0966 -2.7183 -1.4494
 3688TIP3    H232700   0.431   4.445   7.641  0.2033 -0.9165 -0.1566
 3689TIP3   OH232701   5.032   3.084   0.609 -0.5071  1.0447 -0.2949
 3689TIP3    H132702   4.999   3.148   0.546 -1.6655  0.1041 -0.6776
 3689TIP3    H232703   5.061   3.010   0.554 -2.7837 -0.3572  0.2808
 3690TIP3   OH232704   5.522   2.695   7.780  0.0797  0.4149  0.6806
 3690TIP3    H132705   5.568   2.718   7.861  0.5819 -0.9549  0.8241
 3690TIP3    H232706   5.537   2.769   7.721  0.4593  1.0360  1.5337
 3691TIP3   OH232707   0.139   1.950   6.996  0.6654 -0.2027 -0.1375
 3691TIP3    H132708   0.109   1.951   6.905 -0.7997  1.1876  0.3150
 3691TIP3    H232709   0.235   1.947   6.990  0.5903 -0.0860 -1.7176
 3692TIP3   OH232710   0.534   6.091   0.644  0.6662 -0.5285 -0.5966
 3692TIP3    H132711   0.619   6.076   0.686  0.8393 -0.6734 -0.9891
 3692TIP3    H232712   0.471   6.044   0.698  0.6081  0.8486  0.5884
 3693TIP3   OH232713   1.418   1.366   6.277  0.4387 -0.0569 -0.1141
 3693TIP3    H132714   1.508   1.334   6.288  0.6530  1.2155  2.6805
 3693TIP3    H232715   1.370   1.327   6.349 -0.7780  0.8610 -0.3962
 3694TIP3   OH232716   3.440   3.360   8.839  0.1654  0.1916 -0.5045
 3694TIP3    H132717   3.502   3.295   8.808 -1.4312 -1.8438  0.3144
 3694TIP3    H232718   3.451   3.434   8.780  1.5857 -1.0742 -1.9052
 3695TIP3   OH232719   3.533   1.500   8.515  0.4923 -0.0256 -0.1258
 3695TIP3    H132720   3.576   1.467   8.436  1.2630  0.7168 -0.0262
 3695TIP3    H232721   3.551   1.434   8.581 -0.4984 -0.8569 -0.6453
 3696TIP3   OH232722   1.102   6.587   8.959  0.3118  0.0274 -0.7635
 3696TIP3    H132723   1.090   6.608   9.052 -1.2854 -0.1020 -0.9120
 3696TIP3    H232724   1.073   6.496   8.951  1.4091 -0.3053 -1.2285
 3697TIP3   OH232725   3.280   5.446   6.874 -0.3969  0.7496 -0.1256
 3697TIP3    H132726   3.243   5.393   6.804 -0.2505 -1.1121  1.1527
 3697TIP3    H232727   3.219   5.519   6.884 -2.7258 -1.1646  0.5650
 3698TIP3   OH232728   5.682   1.819   1.826 -0.6282  0.0204  0.7677
 3698TIP3    H132729   5.644   1.906   1.837 -0.0360  0.2558  1.0009
 3698TIP3    H232730   5.771   1.826   1.861  0.1585 -0.1090 -1.0317
 3699TIP3   OH232731   3.435   4.618   0.553  0.6489 -0.3425 -0.3029
 3699TIP3    H132732   3.353   4.622   0.504  0.0220  1.4240  0.7967
 3699TIP3    H232733   3.454   4.709   0.576  1.8963 -0.9136  1.1140
 3700TIP3   OH232734   0.607   6.145   0.402 -0.2741 -0.3918 -0.1490
 3700TIP3    H132735   0.670   6.079   0.375  0.5341  0.4356 -0.3606
 3700TIP3    H232736   0.584   6.122   0.492  0.8193 -0.3627  0.1523
 3701TIP3   OH232737   0.047   3.846   7.747  0.1389  0.4517  0.5843
 3701TIP3    H132738  -0.046   3.869   7.740  0.0256  0.0045  0.5706
 3701TIP3    H232739   0.060   3.779   7.680  0.2660 -0.1170  1.1660
 3702TIP3   OH232740   1.188   3.083   1.589  0.1019 -0.2533  0.0536
 3702TIP3    H132741   1.196   3.024   1.514  0.7379 -0.8767  0.5973
 3702TIP3    H232742   1.112   3.049   1.637 -1.2654  1.0636 -1.0825
 3703TIP3   OH232743   0.109   0.198   8.562 -0.1856  0.2675  0.3841
 3703TIP3    H132744   0.119   0.104   8.551 -1.7311  0.2045 -0.9616
 3703TIP3    H232745   0.166   0.236   8.495 -1.0848  0.2032 -0.4409
 3704TIP3   OH232746   3.183   5.121   8.115  0.0037 -0.5147  0.3114
 3704TIP3    H132747   3.173   5.070   8.195  0.7315 -1.7960 -0.3753
 3704TIP3    H232748   3.265   5.091   8.077  1.3706  2.4251  0.7005
 3705TIP3   OH232749   1.621   3.999   7.493  0.0945  0.4146 -0.3497
 3705TIP3    H132750   1.667   3.963   7.569 -1.3377  0.3094  0.5107
 3705TIP3    H232751   1.548   3.938   7.479  0.2722  0.4947 -1.7583
 3706TIP3   OH232752   2.220   4.592   6.689 -0.1255  0.4900  0.7864
 3706TIP3    H132753   2.133   4.555   6.704 -0.3832  0.8803  0.2807
 3706TIP3    H232754   2.209   4.686   6.707  0.2163  0.5226  0.8194
 3707TIP3   OH232755   6.454   2.254   1.418  0.1723 -0.9244  0.2841
 3707TIP3    H132756   6.377   2.207   1.386 -0.4179  0.4087 -0.3406
 3707TIP3    H232757   6.439   2.345   1.392  0.8471 -0.2049  2.2142
 3708TIP3   OH232758   0.055   2.422   2.401  0.7014 -0.0117 -0.2462
 3708TIP3    H132759   0.016   2.463   2.478  1.0036 -0.2075  0.0182
 3708TIP3    H232760   0.061   2.329   2.424  0.2477 -0.1694 -0.7419
 3709TIP3   OH232761   2.641   1.598   0.231 -0.3880  0.1804  0.6997
 3709TIP3    H132762   2.548   1.601   0.207 -0.4456 -1.5966  0.5819
 3709TIP3    H232763   2.647   1.526   0.293  1.0390 -0.3004  0.0399
 3710TIP3   OH232764   4.085   0.267   2.574 -0.3858 -0.5180 -0.4388
 3710TIP3    H132765   4.014   0.327   2.596  0.3637  0.2046  0.1242
 3710TIP3    H232766   4.122   0.242   2.659  0.4455 -0.3385 -0.7304
 3711TIP3   OH232767   3.638   4.150   0.586  0.3115 -0.2849 -0.1543
 3711TIP3    H132768   3.625   4.137   0.492  1.3199  1.4739 -0.5806
 3711TIP3    H232769   3.710   4.212   0.593  0.8239 -0.9987  1.8285
 3712TIP3   OH232770   5.564   4.600   1.902 -0.5179 -0.7050 -0.1288
 3712TIP3    H132771   5.470   4.589   1.891 -0.7399  0.4887  0.4879
 3712TIP3    H232772   5.602   4.527   1.852 -1.8033 -3.1238  2.1823
 3713TIP3   OH232773   6.353   0.481   1.598 -0.0938  0.2820  0.2020
 3713TIP3    H132774   6.353   0.443   1.686 -2.2425 -0.4218 -0.0509
 3713TIP3    H232775   6.271   0.531   1.593 -0.8388 -1.0356 -1.9261
 3714TIP3   OH232776   2.344   0.093   8.354 -0.3882 -0.5246 -0.0415
 3714TIP3    H132777   2.317   0.133   8.436 -0.5397 -1.7575  0.5434
 3714TIP3    H232778   2.295   0.010   8.351  0.8672 -1.2851 -0.5389
 3715TIP3   OH232779   3.141   6.113   1.898  0.1009  0.7390 -0.3159
 3715TIP3    H132780   3.101   6.073   1.975  2.0242  0.8908  0.8415
 3715TIP3    H232781   3.234   6.090   1.905  0.3381  0.7170 -2.6333
 3716TIP3   OH232782   4.410   1.073   1.379 -0.0102  0.9471 -0.0030
 3716TIP3    H132783   4.400   1.158   1.337  0.2971  1.2857  0.5968
 3716TIP3    H232784   4.415   1.092   1.473 -0.4130  0.2299  0.1797
 3717TIP3   OH232785   5.112   5.060   7.274 -0.1303 -0.3475  0.5371
 3717TIP3    H132786   5.054   5.088   7.202  0.0259 -0.9017  0.1924
 3717TIP3    H232787   5.158   4.984   7.239  1.6009  0.6979  0.4168
 3718TIP3   OH232788   5.555   2.722   8.294  0.0571 -0.4334  0.1321
 3718TIP3    H132789   5.613   2.660   8.249  0.1938  0.4667 -0.9951
 3718TIP3    H232790   5.614   2.784   8.336 -0.0232  0.7041 -1.3272
 3719TIP3   OH232791   5.013   0.261   8.205 -0.1678 -0.2125 -0.6711
 3719TIP3    H132792   4.944   0.237   8.143 -0.2087 -1.2043 -0.2665
 3719TIP3    H232793   4.981   0.341   8.246 -1.4892 -1.0835  0.0896
 3720TIP3   OH232794   4.179   4.641   1.201  1.0499 -0.3371  0.6748
 3720TIP3    H132795   4.208   4.721   1.245  3.6485 -0.4346 -0.6732
 3720TIP3    H232796   4.122   4.672   1.130  2.5306  0.4350 -0.2287
 3721TIP3   OH232797   4.683   5.046   0.877  0.1154 -0.0083  0.4553
 3721TIP3    H132798   4.698   5.041   0.782  0.2655  0.4225  0.4521
 3721TIP3    H232799   4.771   5.050   0.915  0.0519  0.0689  0.5959
 3722TIP3   OH232800   4.885   3.897   0.215  0.0292 -0.2911 -0.1400
 3722TIP3    H132801   4.843   3.833   0.158 -0.7581 -1.5909  1.7902
 3722TIP3    H232802   4.964   3.853   0.245  0.1571  0.1672  0.2068
 3723TIP3   OH232803   6.700   2.735   6.855 -0.0015  0.4082 -0.4313
 3723TIP3    H132804   6.639   2.766   6.788 -1.7364  0.2807  0.9994
 3723TIP3    H232805   6.776   2.793   6.847 -0.0728  0.2997 -2.5645
 3724TIP3   OH232806   1.978   2.037   0.992 -0.0637  0.4392 -0.1351
 3724TIP3    H132807   1.959   1.988   0.912 -3.0813 -0.3647  0.9298
 3724TIP3    H232808   1.922   2.114   0.987  0.0281  0.5944  1.0037
 3725TIP3   OH232809   1.969   3.396   6.964 -0.6754 -0.2319  0.1207
 3725TIP3    H132810   2.018   3.333   6.911  1.3593 -0.5791  2.2752
 3725TIP3    H232811   1.937   3.345   7.038 -0.6115  0.8978  0.9438
 3726TIP3   OH232812   3.927   1.048   1.253 -0.1010 -0.5260 -0.0656
 3726TIP3    H132813   3.881   1.116   1.204 -1.4184 -1.4253 -0.1409
 3726TIP3    H232814   3.896   0.965   1.215  0.6957 -1.1893  0.6789
 3727TIP3   OH232815   0.521   0.399   8.235  0.2186 -0.2697  0.6515
 3727TIP3    H132816   0.467   0.459   8.184 -0.7994 -1.0518  0.7748
 3727TIP3    H232817   0.589   0.455   8.274  0.2832  0.5255 -0.5468
 3728TIP3   OH232818   2.837   1.271   1.154  0.4619  0.8437  0.6095
 3728TIP3    H132819   2.908   1.209   1.140  0.9505  0.8805  2.5745
 3728TIP3    H232820   2.880   1.357   1.150 -0.1235  1.0934 -1.6035
 3729TIP3   OH232821   6.099   4.547   6.762  0.0263 -0.1031 -0.2391
 3729TIP3    H132822   6.009   4.515   6.759 -0.8978  1.9239  1.8831
 3729TIP3    H232823   6.091   4.635   6.801  3.0465 -0.5645  1.7497
 3730TIP3   OH232824   5.480   0.356   7.329  0.3676  0.1619  0.4561
 3730TIP3    H132825   5.555   0.410   7.353 -0.1493  0.7528  0.7653
 3730TIP3    H232826   5.421   0.416   7.285 -0.9351  0.2396  2.2120
 3731TIP3   OH232827   4.899   6.407   6.684  0.0275 -0.0460  0.6667
 3731TIP3    H132828   4.830   6.419   6.619  0.5455 -0.1981  0.0787
 3731TIP3    H232829   4.975   6.380   6.633  0.1665 -1.1942  1.4454
 3732TIP3   OH232830   4.718   1.181   0.008 -0.5338  0.2647 -0.1987
 3732TIP3    H132831   4.641   1.167   0.063 -1.1011  1.2090 -0.7162
 3732TIP3    H232832   4.683   1.221  -0.071  0.6472  2.3754  0.2705
 3733TIP3   OH232833   3.323   3.544   1.678 -0.0948 -0.3474 -0.7967
 3733TIP3    H132834   3.231   3.525   1.666  0.3146 -1.6973 -2.0801
 3733TIP3    H232835   3.368   3.461   1.663  1.2050 -0.2843  2.1405
 3734TIP3   OH232836   3.347   0.882   8.985  0.0758  0.7163  0.1651
 3734TIP3    H132837   3.326   0.972   9.012  0.7126  1.2617 -1.0554
 3734TIP3    H232838   3.369   0.837   9.066 -0.1215  1.7022  0.7833
 3735TIP3   OH232839   1.362   5.660   0.792 -0.4264 -0.6098 -0.6366
 3735TIP3    H132840   1.408   5.606   0.856  0.2304 -1.4328 -1.7587
 3735TIP3    H232841   1.286   5.608   0.768 -0.3539 -0.5686 -0.9552
 3736TIP3   OH232842   4.641   4.242   6.501  0.1444 -0.2725 -0.3519
 3736TIP3    H132843   4.593   4.195   6.433 -1.2205  0.9597 -0.2727
 3736TIP3    H232844   4.615   4.199   6.583  0.5944 -0.7563 -0.4545
 3737TIP3   OH232845   0.348   5.054   9.076  0.1282 -0.4132 -0.5830
 3737TIP3    H132846   0.308   5.081   9.159  1.6793  1.8170 -0.4580
 3737TIP3    H232847   0.434   5.021   9.100 -0.2569 -1.8763 -1.1390
 3738TIP3   OH232848   1.185   5.955   1.503  0.1653 -0.3313  0.0814
 3738TIP3    H132849   1.159   5.942   1.594  1.7636 -0.2619  0.5768
 3738TIP3    H232850   1.105   5.985   1.459 -0.7861 -0.9750  1.3072
 3739TIP3   OH232851   0.167   4.085   8.864 -0.4414  0.8889 -0.0062
 3739TIP3    H132852   0.170   4.072   8.959 -0.5481 -2.2005 -0.3351
 3739TIP3    H232853   0.077   4.110   8.846 -0.3618  1.7487  0.7060
 3740TIP3   OH232854   5.753   6.347   1.281 -0.1143 -0.1220  0.1918
 3740TIP3    H132855   5.741   6.252   1.283  0.0392 -0.1509 -0.2445
 3740TIP3    H232856   5.843   6.359   1.249 -0.1055  0.1693  0.3210
 3741TIP3   OH232857   0.993   1.755   7.583 -0.2007 -0.4186  0.4587
 3741TIP3    H132858   0.973   1.661   7.579 -0.4683 -0.3382 -0.2553
 3741TIP3    H232859   1.027   1.775   7.496 -1.1703  0.3781  0.2475
 3742TIP3   OH232860   5.893   1.619   0.292  0.4121 -0.3859 -0.1487
 3742TIP3    H132861   5.901   1.633   0.198 -0.4059 -0.1324 -0.1889
 3742TIP3    H232862   5.858   1.530   0.300  0.3515 -0.3567 -0.0878
 3743TIP3   OH232863   2.138   2.971   7.631 -0.3478  0.9187  0.0371
 3743TIP3    H132864   2.094   2.886   7.638  1.2736 -0.3002 -2.5505
 3743TIP3    H232865   2.169   2.990   7.719 -0.0733 -1.6417  0.5834
 3744TIP3   OH232866   6.280   4.974   8.066  0.2672  0.4015  0.1572
 3744TIP3    H132867   6.287   4.906   8.133  1.8694 -1.6134 -1.9334
 3744TIP3    H232868   6.313   5.053   8.109 -0.5362 -0.3423  2.2935
 3745TIP3   OH232869   3.515   0.528   0.315 -0.0935  0.0888  0.4500
 3745TIP3    H132870   3.426   0.563   0.320 -0.0874  0.1771 -0.0468
 3745TIP3    H232871   3.563   0.576   0.383 -0.3694  0.1981  0.5693
 3746TIP3   OH232872   1.688   5.971   7.012 -0.5767  0.4300  0.4529
 3746TIP3    H132873   1.731   5.889   6.986 -0.9361  0.1533  0.7132
 3746TIP3    H232874   1.733   6.039   6.962 -0.8917 -0.0276 -0.4730
 3747TIP3   OH232875   6.146   3.993   0.814 -0.7630 -0.4244 -0.2015
 3747TIP3    H132876   6.054   3.997   0.788 -0.0536  0.7630 -2.9827
 3747TIP3    H232877   6.173   4.085   0.821  0.1082 -0.7482  1.0901
 3748TIP3   OH232878   6.323   1.094   8.703  0.0343 -0.6909 -0.6807
 3748TIP3    H132879   6.353   1.146   8.778 -1.3900 -0.2130 -0.4209
 3748TIP3    H232880   6.401   1.083   8.649  0.3240  2.0025 -0.9206
 3749TIP3   OH232881   1.286   0.690   1.685 -0.0868 -0.4556  0.4215
 3749TIP3    H132882   1.364   0.743   1.702 -0.8856  0.8263  0.2602
 3749TIP3    H232883   1.251   0.669   1.771 -0.1350 -0.1547  0.4746
 3750TIP3   OH232884   5.178   2.441   8.741  0.3397  0.0330  0.2806
 3750TIP3    H132885   5.244   2.413   8.804  0.8565  1.0502  0.2113
 3750TIP3    H232886   5.128   2.362   8.721  0.8228 -0.5100  1.1848
 3751TIP3   OH232887   4.749   5.080   0.610 -0.3432 -0.6476 -0.2393
 3751TIP3    H132888   4.751   5.171   0.640 -0.6173 -0.9144  0.6219
 3751TIP3    H232889   4.778   5.084   0.519  0.0960  0.2462 -0.0731
 3752TIP3   OH232890   3.629   6.028   6.484  0.0930 -0.4979  0.0438
 3752TIP3    H132891   3.690   5.985   6.423 -1.3203 -1.4688 -0.7479
 3752TIP3    H232892   3.563   6.068   6.428  0.7748  1.8420  0.8286
 3753TIP3   OH232893   3.051   4.335   7.000  0.0607  0.1595  0.6555
 3753TIP3    H132894   2.984   4.277   7.037 -0.5945 -0.6698 -1.6776
 3753TIP3    H232895   3.025   4.346   6.908  3.1967 -0.3147 -0.4012
 3754TIP3   OH232896   5.559   5.387   0.700  0.4618  0.1654  0.1538
 3754TIP3    H132897   5.612   5.320   0.743  0.8607  0.2665 -0.1721
 3754TIP3    H232898   5.504   5.423   0.769  0.4966 -0.2553  0.4008
 3755TIP3   OH232899   3.247   4.753   0.004  0.0653  0.2445 -0.1009
 3755TIP3    H132900   3.295   4.802   0.070  1.0235 -0.1015 -0.5232
 3755TIP3    H232901   3.315   4.718  -0.054 -0.5140 -2.1424  0.5486
 3756TIP3   OH232902   5.406   0.648   8.385  0.0455 -0.3362  0.2328
 3756TIP3    H132903   5.494   0.663   8.349 -0.8851  2.7436 -1.0533
 3756TIP3    H232904   5.357   0.608   8.314 -0.2960  0.5725 -0.0646
 3757TIP3   OH232905   0.074   6.025   8.589 -0.7926  0.1388 -0.4922
 3757TIP3    H132906   0.148   6.078   8.561 -0.4065  1.1187  2.1789
 3757TIP3    H232907   0.005   6.088   8.609 -1.4603 -0.5898 -0.4401
 3758TIP3   OH232908   6.718   2.028   1.957  0.6160  0.4846  0.1067
 3758TIP3    H132909   6.685   2.117   1.941  2.3324  1.3828  1.1581
 3758TIP3    H232910   6.704   2.015   2.051  0.2662 -0.4279 -0.0631
 3759TIP3   OH232911   1.359   2.107   0.908 -0.3235  0.4363  0.0083
 3759TIP3    H132912   1.376   2.174   0.974 -0.5113 -0.0100  0.5183
 3759TIP3    H232913   1.273   2.130   0.872 -1.5284 -0.8523  1.8768
 3760TIP3   OH232914   4.897   2.985   2.156 -0.3115  0.9842 -0.4607
 3760TIP3    H132915   4.957   2.915   2.132 -0.9719  0.6399 -1.1442
 3760TIP3    H232916   4.906   2.994   2.251  0.2288  0.3987 -0.4555
 3761TIP3   OH232917   6.321   0.134   7.736 -0.4455  0.2138  0.1279
 3761TIP3    H132918   6.281   0.201   7.680 -0.7799 -0.1189 -0.0376
 3761TIP3    H232919   6.332   0.058   7.679 -1.1533 -0.2570  0.6072
 3762TIP3   OH232920   6.371   3.521   0.181 -0.3489  0.2957 -0.0678
 3762TIP3    H132921   6.435   3.587   0.206  0.5037 -0.0422 -1.2659
 3762TIP3    H232922   6.399   3.441   0.226  0.9654 -0.2178 -1.6829
 3763TIP3   OH232923   2.677   3.132   1.303 -0.2468 -0.0791 -0.3451
 3763TIP3    H132924   2.737   3.193   1.346 -0.0787 -1.0735  0.9056
 3763TIP3    H232925   2.596   3.139   1.354 -1.2364  1.2125 -1.9850
 3764TIP3   OH232926   1.330   2.648   0.676 -0.6715 -0.0004  0.2468
 3764TIP3    H132927   1.260   2.643   0.611 -0.7607 -1.5792  0.4110
 3764TIP3    H232928   1.398   2.590   0.642  1.1608  2.4543 -0.5406
 3765TIP3   OH232929   4.880   1.885   1.213  0.3820 -0.1442  0.2953
 3765TIP3    H132930   4.954   1.830   1.238  1.7234  0.6363 -1.7525
 3765TIP3    H232931   4.892   1.966   1.262  1.3416  0.2810 -0.6325
 3766TIP3   OH232932   1.546   2.338   0.578  0.7047 -0.4475 -0.8508
 3766TIP3    H132933   1.573   2.330   0.487  0.7367  0.7827 -0.9720
 3766TIP3    H232934   1.614   2.392   0.618 -0.3927  0.8224 -0.6269
 3767TIP3   OH232935   2.120   4.041   7.021 -0.4890 -0.2307  0.7267
 3767TIP3    H132936   2.163   4.104   7.079 -1.4278  1.7112 -0.5565
 3767TIP3    H232937   2.135   4.076   6.933 -0.5530 -2.1698 -0.1077
 3768TIP3   OH232938   4.990   5.141   7.582  0.3078  0.5557 -0.2105
 3768TIP3    H132939   5.004   5.202   7.510 -1.9750  0.2180 -1.0397
 3768TIP3    H232940   4.915   5.177   7.629  0.1030 -0.6147  0.3979
 3769TIP3   OH232941   3.753   2.109   7.906 -0.4243  0.4043  0.1854
 3769TIP3    H132942   3.795   2.193   7.888  0.5124  0.0406  0.6410
 3769TIP3    H232943   3.821   2.044   7.891 -0.8653 -0.2081  0.7822
 3770TIP3   OH232944   1.039   2.971   6.937  0.2585  0.5154 -0.4671
 3770TIP3    H132945   0.968   3.024   6.972  0.3356 -0.4568  1.2359
 3770TIP3    H232946   1.111   3.033   6.926  0.0742  0.9497  0.6554
 3771TIP3   OH232947   3.988   5.156   0.477  0.4296 -0.0524 -0.3752
 3771TIP3    H132948   3.912   5.103   0.500  1.5908 -0.9193  1.7271
 3771TIP3    H232949   3.980   5.235   0.530  0.3359  0.4718 -1.1460
 3772TIP3   OH232950   5.570   4.348   2.549  0.1379 -0.3477  0.0691
 3772TIP3    H132951   5.503   4.389   2.604 -0.1322 -1.0514  0.2729
 3772TIP3    H232952   5.564   4.394   2.465 -1.4281 -1.2051 -0.3182
 3773TIP3   OH232953   4.212   0.656   7.545 -0.0430  0.0367  0.0690
 3773TIP3    H132954   4.265   0.722   7.500  1.9575 -1.0108  0.7361
 3773TIP3    H232955   4.273   0.583   7.560 -2.1826 -2.0346 -0.7588
 3774TIP3   OH232956   2.842   5.225   8.349 -0.1143 -0.0577  0.4953
 3774TIP3    H132957   2.887   5.140   8.353 -0.2667 -0.0947  1.8177
 3774TIP3    H232958   2.832   5.242   8.255 -0.5657 -1.7597  0.1913
 3775TIP3   OH232959   0.268   4.051   1.516  0.3179  0.6272 -0.0685
 3775TIP3    H132960   0.326   4.029   1.589 -0.1288  1.6069  0.6015
 3775TIP3    H232961   0.275   4.146   1.507  0.0164  0.5727 -1.0090
 3776TIP3   OH232962   5.582   3.063   1.956  0.0503  0.4662  0.4367
 3776TIP3    H132963   5.652   3.126   1.973 -0.6706  1.3530  0.2278
 3776TIP3    H232964   5.553   3.035   2.043 -1.1520  2.1852  0.6373
 3777TIP3   OH232965   6.525   5.739   8.113  0.2179  0.7093 -0.1761
 3777TIP3    H132966   6.443   5.717   8.158  0.5455  0.3189  0.2375
 3777TIP3    H232967   6.594   5.701   8.168  0.6619  0.7662 -0.6832
 3778TIP3   OH232968   3.300   0.862   2.297 -0.3574 -0.3241 -0.0830
 3778TIP3    H132969   3.336   0.945   2.327  0.4648 -0.9452  0.7518
 3778TIP3    H232970   3.268   0.879   2.209 -0.8932  1.0520  0.3591
 3779TIP3   OH232971   5.915   3.892   1.838  0.0393  0.2096  0.3982
 3779TIP3    H132972   5.896   3.853   1.924  1.0754  0.6470  0.8454
 3779TIP3    H232973   5.836   3.877   1.787 -1.0447  0.9066  1.7814
 3780TIP3   OH232974   4.307   0.348   6.921 -1.0434  0.4763 -0.8370
 3780TIP3    H132975   4.264   0.415   6.869 -0.3045 -0.7473 -3.2039
 3780TIP3    H232976   4.393   0.337   6.879 -0.6082 -0.9673  0.3407
 3781TIP3   OH232977   4.802   4.793   1.504 -0.2402 -0.3341 -0.3781
 3781TIP3    H132978   4.719   4.816   1.546 -0.3828  0.7309 -1.1781
 3781TIP3    H232979   4.833   4.717   1.552 -0.5591  0.6052  1.4054
 3782TIP3   OH232980   3.560   2.007   8.096  0.2240 -0.3440  0.1170
 3782TIP3    H132981   3.637   2.015   8.039  0.5674  2.1328  0.8164
 3782TIP3    H232982   3.552   2.093   8.137 -1.8273 -1.1344  1.5018
 3783TIP3   OH232983   1.704   0.471   8.593 -0.9098  0.6728 -0.5660
 3783TIP3    H132984   1.677   0.511   8.510 -0.8927  1.1848 -0.3341
 3783TIP3    H232985   1.760   0.537   8.634  3.2122 -1.4453 -2.3206
 3784TIP3   OH232986   0.220   6.044   0.164 -0.4405 -0.5038 -0.1757
 3784TIP3    H132987   0.165   6.114   0.199  0.3162 -0.4110  0.8739
 3784TIP3    H232988   0.279   6.021   0.236  0.0741 -1.4503 -0.8699
 3785TIP3   OH232989   5.153   5.392   7.800  0.2203 -0.1478 -0.6713
 3785TIP3    H132990   5.075   5.396   7.855 -0.3987  0.0135 -1.5430
 3785TIP3    H232991   5.215   5.337   7.850 -0.7832 -1.0572 -0.3925
 3786TIP3   OH232992   6.338   4.130   1.223  0.2925  0.3505  0.6570
 3786TIP3    H132993   6.243   4.137   1.230  0.2048  1.1004 -0.7828
 3786TIP3    H232994   6.364   4.075   1.297 -1.2103  0.4445  1.2898
 3787TIP3   OH232995   6.063   6.415   1.629 -0.5061  0.0908 -0.4550
 3787TIP3    H132996   6.125   6.350   1.596  1.0025  0.7740  0.9262
 3787TIP3    H232997   6.015   6.443   1.551  2.6773  1.3850 -2.1340
 3788TIP3   OH232998   5.675   4.496   9.033  0.0531 -0.4529  0.7541
 3788TIP3    H132999   5.587   4.461   9.047  0.3399 -1.5177 -0.0327
 3788TIP3    H233000   5.695   4.474   8.942  2.2126 -2.6813  1.6845
 3789TIP3   OH233001   0.659   4.792   6.459 -0.1494  0.3327  0.3530
 3789TIP3    H133002   0.615   4.718   6.417 -0.6507  0.8470 -0.0351
 3789TIP3    H233003   0.624   4.794   6.548 -0.9418  0.7504  0.0426
 3790TIP3   OH233004   0.403   6.324   1.291 -0.1328  0.3620 -0.0417
 3790TIP3    H133005   0.323   6.325   1.343 -0.1644  0.2727 -0.0874
 3790TIP3    H233006   0.468   6.280   1.346 -0.7761 -1.8628 -0.9427
 3791TIP3   OH233007   5.561   1.854   8.858 -0.0763 -0.0324 -0.1956
 3791TIP3    H133008   5.633   1.908   8.891  0.5620 -0.7628 -0.3707
 3791TIP3    H233009   5.553   1.878   8.766 -0.9039  0.9601  0.1149
 3792TIP3   OH233010   3.507   3.751   6.929  0.3269 -0.2828 -0.2679
 3792TIP3    H133011   3.572   3.819   6.947 -0.7502  0.2916  1.7312
 3792TIP3    H233012   3.509   3.741   6.834  2.1679  0.8728 -0.3983
 3793TIP3   OH233013   2.617   6.561   7.275  0.1016  0.4460 -0.2136
 3793TIP3    H133014   2.603   6.520   7.361 -0.3261  3.3126  1.2191
 3793TIP3    H233015   2.529   6.580   7.243  0.2649 -0.5120 -1.2614
 3794TIP3   OH233016   5.175   0.911   0.645  0.5279  0.1908  0.1178
 3794TIP3    H133017   5.184   0.951   0.559  0.6966  1.1021  0.5531
 3794TIP3    H233018   5.223   0.969   0.704  1.5532 -1.1230  0.6284
 3795TIP3   OH233019   4.525   1.888   0.515  0.0275 -0.3198 -0.4336
 3795TIP3    H133020   4.487   1.870   0.430 -1.3093  0.1469  0.0283
 3795TIP3    H233021   4.465   1.952   0.555  0.9214 -0.1005  0.6252
 3796TIP3   OH233022   1.346   0.837   8.535 -0.0358  0.7745 -0.0643
 3796TIP3    H133023   1.416   0.874   8.481 -1.0141  1.8913 -0.6274
 3796TIP3    H233024   1.315   0.762   8.485  0.7251  0.2987  0.1697
 3797TIP3   OH233025   3.527   3.125   1.388 -0.1334 -0.6461  0.2029
 3797TIP3    H133026   3.490   3.101   1.472  0.2132 -1.5271  0.1092
 3797TIP3    H233027   3.457   3.172   1.343  0.2343  1.4628  1.6719
 3798TIP3   OH233028   1.693   3.620   2.201 -0.2792  0.3583  0.1599
 3798TIP3    H133029   1.641   3.645   2.125  0.5225  0.7350 -0.2841
 3798TIP3    H233030   1.673   3.528   2.215 -1.1055  0.5136  0.0479
 3799TIP3   OH233031   2.975   2.229   8.789 -0.1325 -0.2040 -0.6031
 3799TIP3    H133032   2.885   2.201   8.806  0.1075 -2.2567 -2.3211
 3799TIP3    H233033   3.029   2.168   8.840  0.3493  1.4407  0.9732
 3800TIP3   OH233034   1.897   5.100   8.031  0.1136 -0.1263  0.4124
 3800TIP3    H133035   1.850   5.180   8.054  0.8735  1.2465 -2.3246
 3800TIP3    H233036   1.837   5.053   7.973  0.7452 -0.0596 -0.3204
 3801TIP3   OH233037   5.849   0.838   1.521 -0.2780  0.2120 -0.2050
 3801TIP3    H133038   5.788   0.869   1.589 -0.2553  2.2657 -1.0282
 3801TIP3    H233039   5.815   0.875   1.440  0.1511 -1.5279 -1.2222
 3802TIP3   OH233040   5.192   5.512   1.039  0.5638  0.4111  0.0226
 3802TIP3    H133041   5.214   5.551   1.123  0.0264 -0.1507  0.4345
 3802TIP3    H233042   5.138   5.577   0.995 -1.0449 -0.1608  1.0546
 3803TIP3   OH233043   0.394   1.351   8.095  0.1118  0.0315 -0.4500
 3803TIP3    H133044   0.451   1.315   8.162  2.5398  1.6318 -1.5002
 3803TIP3    H233045   0.397   1.288   8.023 -0.6734 -0.5939  0.0514
 3804TIP3   OH233046   2.894   2.777   1.076 -0.2691  0.2014  0.5994
 3804TIP3    H133047   2.981   2.768   1.114 -0.5573  0.5457  1.3726
 3804TIP3    H233048   2.835   2.776   1.151 -0.8783  0.6244  0.1407
 3805TIP3   OH233049   4.768   3.224   7.105 -0.4438  0.5780  0.3074
 3805TIP3    H133050   4.720   3.304   7.126  1.0155  1.5563  0.0089
 3805TIP3    H233051   4.795   3.190   7.191 -0.3818  0.8322  0.3897
 3806TIP3   OH233052   0.324   3.463   2.222  0.1147  0.3155 -0.4451
 3806TIP3    H133053   0.246   3.423   2.260  0.6689 -0.5162 -0.1519
 3806TIP3    H233054   0.300   3.554   2.207 -1.0763 -0.0435 -0.8312
 3807TIP3   OH233055   2.713   4.071   7.878  0.6248 -0.6684  0.3711
 3807TIP3    H133056   2.747   4.149   7.922 -0.3505 -0.5254  0.8928
 3807TIP3    H233057   2.691   4.011   7.949  1.5509 -1.5113 -0.0308
 3808TIP3   OH233058   5.303   5.956   1.100 -0.1717  0.1921  0.1302
 3808TIP3    H133059   5.230   6.017   1.092  0.7309  1.2674 -0.1689
 3808TIP3    H233060   5.343   5.955   1.013 -1.1214 -2.1099 -0.3501
 3809TIP3   OH233061   0.146   5.483   1.333  0.0518  0.2651  0.4384
 3809TIP3    H133062   0.223   5.538   1.318 -0.5478  0.7734 -0.8981
 3809TIP3    H233063   0.123   5.450   1.247 -0.4730 -0.9366  1.0146
 3810TIP3   OH233064   4.281   1.021   2.079  0.9756 -0.1900  0.9278
 3810TIP3    H133065   4.357   0.984   2.123  1.2193  2.1139  2.5799
 3810TIP3    H233066   4.213   1.025   2.147 -1.2041 -3.3911 -0.7767
 3811TIP3   OH233067   0.282   0.302   1.752  0.0621 -0.1546  1.1555
 3811TIP3    H133068   0.202   0.343   1.785  1.3992  1.0281  3.1018
 3811TIP3    H233069   0.348   0.372   1.754  1.0545 -0.9286 -0.9866
 3812TIP3   OH233070   1.232   5.825   7.480 -1.0463 -0.0998  0.1021
 3812TIP3    H133071   1.325   5.833   7.502 -1.0428 -1.4581  0.6275
 3812TIP3    H233072   1.231   5.780   7.396 -1.1938  1.5210 -0.7964
 3813TIP3   OH233073   6.504   6.453   0.328  0.4521  0.1943 -0.2403
 3813TIP3    H133074   6.438   6.389   0.353  0.0049  1.0700  0.8991
 3813TIP3    H233075   6.560   6.463   0.405  1.6823 -0.2352 -1.0561
 3814TIP3   OH233076   3.791   1.254   8.813 -0.1316  0.1542  0.2706
 3814TIP3    H133077   3.843   1.326   8.777 -1.5016  0.8560 -0.3852
 3814TIP3    H233078   3.701   1.284   8.805 -0.6024 -0.4333  2.6286
 3815TIP3   OH233079   4.754   0.057   2.461 -0.5238  0.1424  0.0295
 3815TIP3    H133080   4.766   0.150   2.445 -1.2243  0.2653  0.1772
 3815TIP3    H233081   4.842   0.024   2.479 -0.0099  0.4310 -1.7533
 3816TIP3   OH233082   5.436   5.798   7.029 -0.4665 -0.3917 -0.0710
 3816TIP3    H133083   5.478   5.857   6.966 -1.2231 -0.4023 -0.6036
 3816TIP3    H233084   5.509   5.759   7.077  0.1009  0.0728 -0.5261
 3817TIP3   OH233085   5.501   5.811   7.933 -0.4381 -0.3526 -0.1507
 3817TIP3    H133086   5.433   5.752   7.967  0.0870 -0.3744  0.9170
 3817TIP3    H233087   5.549   5.839   8.011  1.5749 -1.3098 -0.9712
 3818TIP3   OH233088   3.588   0.282   6.370  0.3722 -0.4007 -0.3194
 3818TIP3    H133089   3.508   0.232   6.389  0.3329 -0.9753 -1.8345
 3818TIP3    H233090   3.644   0.267   6.446 -0.9020 -0.0628  0.7394
 3819TIP3   OH233091   3.102   6.602   0.233 -0.0183  0.1387 -0.4877
 3819TIP3    H133092   3.042   6.604   0.307  0.4408 -1.3280 -0.0470
 3819TIP3    H233093   3.069   6.533   0.177  1.3768 -0.8791 -0.1083
 3820TIP3   OH233094   3.289   2.296   7.275  0.1277 -0.0253  0.0420
 3820TIP3    H133095   3.367   2.252   7.311 -0.1677  0.0151  0.7505
 3820TIP3    H233096   3.319   2.335   7.193  0.7328 -0.4255  0.0700
 3821TIP3   OH233097   1.395   1.065   0.507  0.9135 -0.2416 -0.1218
 3821TIP3    H133098   1.318   1.115   0.481 -0.5598 -2.1540  0.3759
 3821TIP3    H233099   1.448   1.127   0.556  0.7399  1.6872 -2.2044
 3822TIP3   OH233100   0.476   4.719   1.507 -0.6319 -0.1083 -0.1692
 3822TIP3    H133101   0.390   4.688   1.479 -0.7262  0.9475 -1.1343
 3822TIP3    H233102   0.489   4.800   1.458  1.4430 -0.8610 -0.9685
 3823TIP3   OH233103   3.501   2.913   1.157 -0.3615 -0.7054  0.7343
 3823TIP3    H133104   3.479   2.879   1.070 -1.3647  1.3187  0.1277
 3823TIP3    H233105   3.431   2.975   1.177  0.1631 -0.6932  2.7465
 3824TIP3   OH233106   2.553   4.390   0.375 -0.4129 -0.6006  0.3445
 3824TIP3    H133107   2.540   4.431   0.290  1.2467 -1.9221 -0.6174
 3824TIP3    H233108   2.493   4.436   0.434 -0.8212  1.0711 -1.2914
 3825TIP3   OH233109   6.245   5.236   0.325 -0.1747 -0.1016  0.1562
 3825TIP3    H133110   6.158   5.274   0.323 -0.7515 -1.3599  0.3885
 3825TIP3    H233111   6.234   5.149   0.288  1.0500 -0.1602 -0.1078
 3826TIP3   OH233112   0.907   3.867   7.785 -0.7080  0.6837 -0.2897
 3826TIP3    H133113   0.820   3.842   7.816 -1.5264  2.8162 -0.6505
 3826TIP3    H233114   0.955   3.785   7.777 -2.3982 -0.4655  0.7837
 3827TIP3   OH233115   3.061   5.498   1.456 -0.6356 -0.7236 -0.0456
 3827TIP3    H133116   3.065   5.560   1.529 -1.0696  0.4104 -0.9679
 3827TIP3    H233117   3.150   5.495   1.422 -0.6772 -0.3690 -0.1897
 3828TIP3   OH233118   4.672   6.570   0.464  0.1573 -0.2675  0.4317
 3828TIP3    H133119   4.692   6.656   0.426 -0.1695 -0.9499 -1.3739
 3828TIP3    H233120   4.595   6.585   0.518 -0.1069  0.5216 -0.1372
 3829TIP3   OH233121   1.001   0.530   7.733  0.0549 -0.5341 -0.0484
 3829TIP3    H133122   1.068   0.464   7.716  1.6154  0.6830  1.1044
 3829TIP3    H233123   1.037   0.611   7.697 -0.8141  0.1412  0.5424
 3830TIP3   OH233124   0.490   5.139   1.767 -0.1778 -0.3818 -0.5013
 3830TIP3    H133125   0.429   5.130   1.841 -0.1365  2.0471 -0.0918
 3830TIP3    H233126   0.434   5.163   1.693 -0.0331 -1.2516 -0.9084
 3831TIP3   OH233127   6.273   5.623   7.220  0.1135 -0.6226 -0.2017
 3831TIP3    H133128   6.260   5.620   7.315 -2.1253 -1.5484 -0.4677
 3831TIP3    H233129   6.251   5.534   7.191 -0.6803  0.0443 -1.7273
 3832TIP3   OH233130   4.202   4.954   0.358 -0.4097 -0.4583  0.3784
 3832TIP3    H133131   4.112   4.936   0.329 -0.8586  1.6383  0.2679
 3832TIP3    H233132   4.195   5.037   0.406  1.8449  1.3055 -2.0323
 3833TIP3   OH233133   5.067   0.906   8.555  0.1988 -0.3443 -0.6828
 3833TIP3    H133134   5.019   0.970   8.503  2.3901  2.5079  0.5189
 3833TIP3    H233135   5.119   0.959   8.616  2.4236 -3.2728  0.2105
 3834TIP3   OH233136   0.083   1.840   1.767  0.1599  0.4380 -0.2988
 3834TIP3    H133137   0.011   1.893   1.804 -0.8589 -0.9261 -0.2374
 3834TIP3    H233138   0.159   1.864   1.819 -0.7904  0.1520  1.3021
 3835TIP3   OH233139   3.652   1.596   8.983  0.4637 -0.1920  0.6721
 3835TIP3    H133140   3.642   1.669   9.044  0.7746  0.3069  0.1374
 3835TIP3    H233141   3.565   1.556   8.979  0.4044 -0.1268  1.3161
 3836TIP3   OH233142   4.266   0.873   7.085 -0.9197  0.6145 -0.3411
 3836TIP3    H133143   4.272   0.964   7.057 -1.0722  0.2745 -1.5500
 3836TIP3    H233144   4.232   0.827   7.009 -0.1075 -0.5791 -0.0129
 3837TIP3   OH233145   0.545   6.345   2.071  0.1682  0.0570  0.0302
 3837TIP3    H133146   0.587   6.346   2.157  0.0160  0.5880  0.1023
 3837TIP3    H233147   0.554   6.435   2.039  2.6066 -0.6762 -1.6847
 3838TIP3   OH233148   0.263   5.063   7.383 -0.1294  0.3493 -0.8075
 3838TIP3    H133149   0.306   5.064   7.298  0.4913 -1.8541 -0.5788
 3838TIP3    H233150   0.227   4.975   7.392 -3.1350  1.5141 -0.1617
 3839TIP3   OH233151   3.429   5.281   1.407  0.0241 -0.1253  0.2612
 3839TIP3    H133152   3.388   5.366   1.394 -1.3803 -0.3005  2.9342
 3839TIP3    H233153   3.498   5.297   1.473 -0.7977 -1.1459  1.4135
 3840TIP3   OH233154   1.302   2.266   0.601 -0.1483  0.6743  0.1830
 3840TIP3    H133155   1.397   2.267   0.613 -0.0529  2.5158 -0.4858
 3840TIP3    H233156   1.290   2.242   0.509 -0.3373  0.5719  0.2332
 3841TIP3   OH233157   0.607   1.014   0.334 -0.0595 -0.6273 -0.1784
 3841TIP3    H133158   0.536   1.054   0.284  1.1785 -0.0298 -1.5304
 3841TIP3    H233159   0.593   0.920   0.325  1.0301 -0.6134 -3.1486
 3842TIP3   OH233160   2.294   6.624   0.408 -0.7890  0.3207  0.1854
 3842TIP3    H133161   2.207   6.625   0.367 -0.7930  0.1256  0.1878
 3842TIP3    H233162   2.283   6.673   0.489 -0.4433  2.0086 -0.7253
 3843TIP3   OH233163   3.403   3.892   8.375 -0.1496  0.0767  0.0943
 3843TIP3    H133164   3.391   3.917   8.283 -0.5690  2.4528  0.7414
 3843TIP3    H233165   3.462   3.958   8.411 -0.8267 -0.1897  1.7952
 3844TIP3   OH233166   0.334   4.979   8.384 -0.1989 -0.1976 -0.0189
 3844TIP3    H133167   0.325   5.050   8.448 -1.6037 -0.8358  0.5133
 3844TIP3    H233168   0.401   4.922   8.422  0.0823  0.2139  0.1234
 3845TIP3   OH233169   0.293   1.284   8.518  0.0863  0.2617  0.0082
 3845TIP3    H133170   0.305   1.244   8.604  0.0281 -1.8373 -0.8927
 3845TIP3    H233171   0.264   1.373   8.536  2.0281  0.5383  2.1660
 3846TIP3   OH233172   1.932   2.900   8.284  0.4678 -0.2395  0.0604
 3846TIP3    H133173   1.857   2.920   8.228 -0.1817 -0.9233  0.6693
 3846TIP3    H233174   1.915   2.948   8.365  0.9367 -0.0082  0.0272
 3847TIP3   OH233175   3.326   4.018   7.320 -0.1823  0.0481  0.1722
 3847TIP3    H133176   3.411   3.992   7.286 -0.1785  1.1147 -0.6724
 3847TIP3    H233177   3.344   4.097   7.372 -0.5306 -0.2146  0.6982
 3848TIP3   OH233178   5.954   2.030   6.984  0.6540 -0.4843  0.6498
 3848TIP3    H133179   5.989   2.101   6.931  1.0860 -0.0372  1.5130
 3848TIP3    H233180   5.990   1.950   6.945  2.4767 -0.0565  1.3544
 3849TIP3   OH233181   5.029   5.702   0.885 -0.3543 -0.0225 -0.0021
 3849TIP3    H133182   5.119   5.688   0.854 -0.0212  1.0684  0.4291
 3849TIP3    H233183   4.975   5.698   0.806  0.3915  1.9396 -0.6655
 3850TIP3   OH233184   0.578   6.244   7.771  0.3414 -0.1529 -0.0419
 3850TIP3    H133185   0.639   6.307   7.808 -0.0964  1.2638 -1.6150
 3850TIP3    H233186   0.502   6.296   7.745  0.0442 -1.2632 -1.5795
 3851TIP3   OH233187   4.467   6.614   0.682 -0.0996  0.3448 -0.2762
 3851TIP3    H133188   4.513   6.567   0.751  1.7293  0.5239 -1.3085
 3851TIP3    H233189   4.467   6.706   0.711 -1.5504  0.1060  0.6055
 3852TIP3   OH233190   0.036   3.694   6.791  0.3550 -0.2619  0.1643
 3852TIP3    H133191   0.076   3.768   6.745  2.1582 -1.1754  0.1627
 3852TIP3    H233192   0.067   3.617   6.743  0.8054 -1.1491  1.8256
 3853TIP3   OH233193   6.483   0.849   8.456  0.6699  0.4626  0.0439
 3853TIP3    H133194   6.433   0.909   8.400 -0.3057  1.1394  1.5809
 3853TIP3    H233195   6.548   0.904   8.499  1.4032 -0.0542 -0.3687
 3854TIP3   OH233196   4.733   3.641   8.926  1.1235  0.2167 -0.2161
 3854TIP3    H133197   4.798   3.589   8.878 -0.2963 -0.7945 -1.1064
 3854TIP3    H233198   4.678   3.576   8.970 -0.0630  1.0084 -0.5007
 3855TIP3   OH233199   3.977   0.736   0.589  0.3108  0.4360  0.6303
 3855TIP3    H133200   4.038   0.663   0.594  1.1317  1.2042  2.6924
 3855TIP3    H233201   4.024   0.811   0.625 -1.1473  1.5491  0.3569
 3856TIP3   OH233202   2.528   5.739   6.649 -0.6081 -0.5569  0.0359
 3856TIP3    H133203   2.449   5.690   6.626 -0.4508 -0.6020 -0.4199
 3856TIP3    H233204   2.557   5.779   6.567 -0.2921 -0.3391  0.2467
 3857TIP3   OH233205   5.422   2.221   1.271 -0.5076 -0.3894 -0.2743
 3857TIP3    H133206   5.428   2.203   1.177 -1.1092 -1.0608 -0.1861
 3857TIP3    H233207   5.329   2.223   1.290 -0.3816 -0.7773  0.4103
 3858TIP3   OH233208   1.701   1.825   7.442  0.0404  0.1160  0.2397
 3858TIP3    H133209   1.635   1.790   7.502  1.1280  0.5851  1.7731
 3858TIP3    H233210   1.783   1.821   7.491  1.3471 -1.1892 -1.9011
 3859TIP3   OH233211   4.794   1.740   0.368 -0.0831 -0.2975 -0.7981
 3859TIP3    H133212   4.854   1.791   0.421 -0.3303 -0.1437 -0.6623
 3859TIP3    H233213   4.845   1.664   0.339 -0.3096 -1.0655  0.7419
 3860TIP3   OH233214   4.871   5.522   8.517 -0.7265  0.4147  0.3343
 3860TIP3    H133215   4.919   5.521   8.599  0.5282 -0.2319 -0.3707
 3860TIP3    H233216   4.892   5.438   8.476  1.8320  2.1509 -2.3577
 3861TIP3   OH233217   5.492   2.878   0.342  0.2926 -0.0682  0.0181
 3861TIP3    H133218   5.477   2.972   0.352  1.7146  0.0328  1.6836
 3861TIP3    H233219   5.547   2.871   0.264 -0.0566  0.4459 -0.2800
 3862TIP3   OH233220   5.264   1.663   0.433  0.1153 -0.0845  0.6917
 3862TIP3    H133221   5.339   1.647   0.491  1.2199 -1.5956 -1.0483
 3862TIP3    H233222   5.260   1.759   0.425  0.6869  0.1033  2.2422
 3863TIP3   OH233223   4.734   3.838   1.236  0.8058 -0.7304  0.6334
 3863TIP3    H133224   4.705   3.927   1.258 -0.1524 -0.8082 -0.2577
 3863TIP3    H233225   4.715   3.787   1.315 -0.3353 -0.5039  0.5259
 3864TIP3   OH233226   1.222   1.605   0.047 -0.8767  0.0286  0.4101
 3864TIP3    H133227   1.306   1.598   0.093 -1.5246 -0.8388  1.5197
 3864TIP3    H233228   1.194   1.514   0.036 -0.7834  0.2107 -1.6792
 3865TIP3   OH233229   5.693   1.640   2.149  0.0509 -0.3477 -0.4815
 3865TIP3    H133230   5.600   1.634   2.171 -0.5170  0.3945 -2.4362
 3865TIP3    H233231   5.728   1.553   2.165 -0.3376 -0.0147  2.7405
 3866TIP3   OH233232   6.228   0.113   1.492  0.5582  0.3589  0.3818
 3866TIP3    H133233   6.280   0.048   1.445  1.5277  0.9185  0.6668
 3866TIP3    H233234   6.193   0.170   1.424 -1.5032 -1.2379 -0.0322
 3867TIP3   OH233235   5.416   5.124   8.468 -0.2772 -0.4214 -0.4900
 3867TIP3    H133236   5.335   5.165   8.498  0.0431  0.0979 -0.3237
 3867TIP3    H233237   5.419   5.040   8.513  0.1736  0.3194  0.9162
 3868TIP3   OH233238   4.671   3.215   0.388 -0.0114  0.2207 -0.4863
 3868TIP3    H133239   4.639   3.298   0.353 -0.9880  1.0105  2.0648
 3868TIP3    H233240   4.722   3.177   0.317 -1.7919  1.7048 -2.6766
 3869TIP3   OH233241   4.646   5.611   0.709  0.1717 -0.3363 -0.8142
 3869TIP3    H133242   4.659   5.619   0.803 -2.2209 -0.6372 -0.3946
 3869TIP3    H233243   4.605   5.693   0.683 -2.7676 -1.6296 -0.7807
 3870TIP3   OH233244   5.850   4.957   0.699  0.2956  0.1410 -0.2870
 3870TIP3    H133245   5.927   4.958   0.642 -0.0732 -1.7114 -0.8796
 3870TIP3    H233246   5.782   4.916   0.646  0.3950 -3.3172  1.9619
 3871TIP3   OH233247   5.088   4.338   1.731  0.0632 -0.0068  0.1501
 3871TIP3    H133248   5.060   4.428   1.714 -0.4332 -0.4995 -2.0156
 3871TIP3    H233249   5.133   4.311   1.651  0.2672 -1.6634  0.7693
 3872TIP3   OH233250   2.440   0.784   2.177  0.3646 -0.4180  0.4046
 3872TIP3    H133251   2.386   0.745   2.245 -0.2546  0.1621  0.2495
 3872TIP3    H233252   2.441   0.878   2.196 -0.4898 -0.1305 -0.8314
 3873TIP3   OH233253   4.743   3.895   8.553 -0.2094 -0.4899 -0.0166
 3873TIP3    H133254   4.778   3.877   8.640  0.2621  1.4477  0.2522
 3873TIP3    H233255   4.724   3.989   8.554  0.2756 -0.3126 -2.1537
 3874TIP3   OH233256   5.978   1.833   8.858  0.3615 -0.1850  0.0254
 3874TIP3    H133257   6.048   1.868   8.912 -0.5030  0.2175  0.9125
 3874TIP3    H233258   6.011   1.748   8.827  0.7064 -0.6171  1.5161
 3875TIP3   OH233259   1.110   4.890   1.376 -0.6160 -0.0838  0.2781
 3875TIP3    H133260   1.043   4.917   1.440 -0.2063  1.0775  0.2458
 3875TIP3    H233261   1.162   4.825   1.422  0.1139  1.2536  1.4198
 3876TIP3   OH233262   6.617   0.008   7.807 -0.3705 -0.5911 -0.1408
 3876TIP3    H133263   6.549  -0.012   7.742  0.0143  1.5942 -1.3252
 3876TIP3    H233264   6.579   0.077   7.861 -0.4676 -2.0045  1.6534
 3877TIP3   OH233265   6.050   2.247   8.663  0.0889 -0.2169 -0.0080
 3877TIP3    H133266   6.001   2.254   8.745  1.3934  0.3539  0.7632
 3877TIP3    H233267   6.068   2.154   8.653 -0.4276 -0.3331  0.1375
 3878TIP3   OH233268   3.368   1.541   8.223  0.5718 -0.6922  0.3192
 3878TIP3    H133269   3.350   1.452   8.193 -0.6783 -0.7133  1.0400
 3878TIP3    H233270   3.461   1.554   8.205  0.3587 -1.4313 -1.6088
 3879TIP3   OH233271   1.459   1.043   8.097  0.3575  0.2720  0.3220
 3879TIP3    H133272   1.378   0.992   8.094  1.5096 -1.6163 -0.1527
 3879TIP3    H233273   1.433   1.127   8.133 -1.6109 -0.7052  1.3304
 3880TIP3   OH233274   1.093   2.618   8.065  0.0350 -0.2331  0.1581
 3880TIP3    H133275   1.008   2.598   8.106  0.0010 -1.2509 -0.3974
 3880TIP3    H233276   1.095   2.714   8.062 -0.8954 -0.1841  0.5866
 3881TIP3   OH233277   3.598   5.032   0.767  0.6071  0.0094  0.3216
 3881TIP3    H133278   3.555   5.022   0.852 -2.9708  1.2146 -1.1579
 3881TIP3    H233279   3.641   5.117   0.772  0.0573  0.2642  0.8118
 3882TIP3   OH233280   2.369   5.176   8.659  0.4880  0.1106 -0.5438
 3882TIP3    H133281   2.361   5.155   8.566  0.7427 -0.0011 -0.5403
 3882TIP3    H233282   2.436   5.244   8.663  0.4401  0.1528 -0.4465
 3883TIP3   OH233283   0.959   5.237   2.237  0.0974  0.5876  0.0544
 3883TIP3    H133284   0.937   5.323   2.273 -2.0850 -0.2323  0.8502
 3883TIP3    H233285   0.876   5.203   2.204  1.3600 -0.2543 -2.4987
 3884TIP3   OH233286   3.209   4.552   8.468  0.7261 -0.3151  0.4108
 3884TIP3    H133287   3.200   4.646   8.480 -0.7177 -0.4153  0.2911
 3884TIP3    H233288   3.152   4.531   8.394  0.0062 -1.4532  1.2441
 3885TIP3   OH233289   2.437   4.908   0.017  0.0389  0.5768  0.1620
 3885TIP3    H133290   2.417   4.923  -0.076  0.0768 -0.5475 -0.0487
 3885TIP3    H233291   2.415   4.990   0.060 -1.8512  0.4986 -0.5561
 3886TIP3   OH233292   1.540   3.332   7.141  0.3194 -0.0423 -0.8192
 3886TIP3    H133293   1.487   3.283   7.204  0.3816  1.3423  0.3731
 3886TIP3    H233294   1.530   3.285   7.058 -1.4061 -0.7636 -0.2370
 3887TIP3   OH233295   6.631   5.985   0.592 -0.1582  0.2642 -0.2445
 3887TIP3    H133296   6.604   6.062   0.642 -1.4530 -0.2925 -0.0590
 3887TIP3    H233297   6.583   5.992   0.510 -1.8053 -1.3034  0.5188
 3888TIP3   OH233298   4.416   3.960   8.944  0.3500 -0.0674 -0.1892
 3888TIP3    H133299   4.439   4.053   8.942  0.4677 -0.0646  0.6686
 3888TIP3    H233300   4.498   3.916   8.966  0.7711 -0.5840 -2.4977
 3889TIP3   OH233301   2.236   2.055   8.784 -0.0563  0.3916  0.3860
 3889TIP3    H133302   2.213   2.118   8.716  0.2567 -1.1391 -1.2320
 3889TIP3    H233303   2.324   2.081   8.811 -0.0741  0.8691  0.0022
 3890TIP3   OH233304   1.037   0.662   7.146 -0.2856  0.2367  0.5928
 3890TIP3    H133305   1.064   0.709   7.067 -1.5895 -3.0413 -2.0653
 3890TIP3    H233306   1.117   0.618   7.176  0.1930  1.4087  1.0776
 3891TIP3   OH233307   2.662   2.659   0.188 -0.6806 -0.5147 -0.0502
 3891TIP3    H133308   2.713   2.691   0.262 -0.4325  0.7050 -0.7150
 3891TIP3    H233309   2.722   2.666   0.113 -1.3118 -0.5797 -0.5747
 3892TIP3   OH233310   4.670   4.299   0.080 -0.0389 -0.4806  0.2899
 3892TIP3    H133311   4.596   4.259   0.126 -0.2606 -0.4949 -0.0722
 3892TIP3    H233312   4.743   4.239   0.096  0.2170  0.1751  1.6943
 3893TIP3   OH233313   2.374   5.160   0.132 -0.2166  0.2567  0.2079
 3893TIP3    H133314   2.355   5.254   0.135 -0.0291  0.3190 -0.3152
 3893TIP3    H233315   2.412   5.140   0.217 -2.5557  0.1326  1.2986
 3894TIP3   OH233316   4.209   0.832   1.878  0.2463  0.4184 -0.3510
 3894TIP3    H133317   4.131   0.853   1.826  0.6585  1.2235 -0.6707
 3894TIP3    H233318   4.208   0.896   1.950 -0.8349 -1.2830  1.2314
 3895TIP3   OH233319   5.268   5.794   0.751 -0.6753  0.0120  0.2047
 3895TIP3    H133320   5.324   5.764   0.679  0.5538 -2.2500  1.9780
 3895TIP3    H233321   5.327   5.843   0.809 -0.8701 -0.9114  1.2215
 3896TIP3   OH233322   3.417   6.027   6.984  0.0764  0.8528 -0.3363
 3896TIP3    H133323   3.445   6.032   6.893 -2.3521  1.9016 -1.1130
 3896TIP3    H233324   3.324   6.003   6.979  0.1185 -0.0230  1.9198
 3897TIP3   OH233325   6.461   6.154   0.798  0.4160 -0.0404 -0.3614
 3897TIP3    H133326   6.485   6.241   0.765  0.7615  0.3339  0.7974
 3897TIP3    H233327   6.399   6.172   0.869 -1.8774 -0.9105 -2.0395
 3898TIP3   OH233328   5.878   5.522   9.090  0.0215  0.2967 -0.2230
 3898TIP3    H133329   5.870   5.430   9.116 -0.7921  0.2064 -0.7447
 3898TIP3    H233330   5.835   5.571   9.161 -0.6161  0.1803 -0.5230
 3899TIP3   OH233331   6.127   2.072   6.605 -0.0063  0.0818 -0.5835
 3899TIP3    H133332   6.040   2.054   6.569 -1.1873  0.0128  2.0217
 3899TIP3    H233333   6.181   1.999   6.574 -1.2123 -0.5802 -1.2113
 3900TIP3   OH233334   0.956   6.230   1.420  0.2907  0.7452  0.1465
 3900TIP3    H133335   1.009   6.268   1.350  1.7612 -0.1640  0.7241
 3900TIP3    H233336   0.913   6.305   1.461 -1.1151  1.2629 -2.0688
 3901TIP3   OH233337   2.948   0.442   0.293 -0.1575  0.4324 -0.1809
 3901TIP3    H133338   2.883   0.504   0.326 -0.8428 -1.1254  1.5881
 3901TIP3    H233339   2.945   0.369   0.355  2.1145 -0.4419 -0.9878
 3902TIP3   OH233340   5.604   0.241   0.217  0.2917 -0.5602 -0.5717
 3902TIP3    H133341   5.659   0.303   0.168  0.7059  0.2477  0.8361
 3902TIP3    H233342   5.517   0.252   0.181  0.6568 -0.2802 -1.3941
 3903TIP3   OH233343   0.332   6.741   1.231 -0.2158 -0.1137  0.6049
 3903TIP3    H133344   0.346   6.745   1.326  1.6006 -1.1808  0.4374
 3903TIP3    H233345   0.370   6.657   1.205 -1.8431 -0.4407 -0.9173
 3904TIP3   OH233346   5.381   4.474   0.670 -0.4980  0.7473  0.5489
 3904TIP3    H133347   5.334   4.436   0.744  0.1636 -1.5442 -0.1371
 3904TIP3    H233348   5.313   4.491   0.605 -0.5842 -1.8173 -0.1406
 3905TIP3   OH233349   2.320   5.160   1.395 -0.6649  0.2630 -0.0045
 3905TIP3    H133350   2.367   5.208   1.463  0.7053  0.6968 -1.2316
 3905TIP3    H233351   2.378   5.160   1.320 -2.1737 -0.1504 -1.2298
 3906TIP3   OH233352   4.787   6.444   0.236  0.8028 -0.6383 -0.3360
 3906TIP3    H133353   4.879   6.465   0.254  1.0934 -2.1503  0.0261
 3906TIP3    H233354   4.742   6.465   0.318  0.7669  0.3303 -0.5896
 3907TIP3   OH233355   4.867   6.243   2.089 -0.2898  0.1841 -0.2660
 3907TIP3    H133356   4.889   6.331   2.119  0.7123  0.2233 -1.0704
 3907TIP3    H233357   4.883   6.187   2.165  0.1624  0.5585 -0.0782
 3908TIP3   OH233358   2.269   0.244   9.081 -0.0883  0.9264  0.4385
 3908TIP3    H133359   2.267   0.329   9.125  0.5072 -0.2658  2.9468
 3908TIP3    H233360   2.279   0.181   9.152 -1.8567 -1.3682 -1.2062
 3909TIP3   OH233361   1.729   3.191   6.909 -0.3535  0.2695 -0.4706
 3909TIP3    H133362   1.662   3.253   6.881 -2.2071 -1.4067 -0.0045
 3909TIP3    H233363   1.726   3.121   6.843 -0.1654 -0.5858  0.4148
 3910TIP3   OH233364   4.757   4.418   8.776  0.2009  0.3039  0.2887
 3910TIP3    H133365   4.845   4.431   8.812  1.3306 -1.0708 -1.7759
 3910TIP3    H233366   4.752   4.480   8.703 -0.5845  0.4038  0.4192
 3911TIP3   OH233367   2.388   1.505   9.122 -0.3169 -0.2620  0.4760
 3911TIP3    H133368   2.435   1.586   9.101  0.0264 -0.0188  2.0634
 3911TIP3    H233369   2.433   1.437   9.071  0.0917  0.3648 -0.0194
 3912TIP3   OH233370   6.605   5.400   0.436 -0.2928 -0.1174 -0.5123
 3912TIP3    H133371   6.650   5.484   0.428 -0.3257 -0.0864 -0.3793
 3912TIP3    H233372   6.514   5.423   0.456 -0.3721 -0.1805 -0.8019
 3913TIP3   OH233373   6.581   2.038   1.691  0.3875 -0.3679 -0.3619
 3913TIP3    H133374   6.597   2.104   1.759 -2.5427  1.3168 -1.1450
 3913TIP3    H233375   6.617   2.078   1.611  0.3451 -0.5905 -0.4912
 3914TIP3   OH233376   1.239   4.587   2.478  0.6145 -0.1911 -0.7142
 3914TIP3    H133377   1.214   4.532   2.552 -1.8293 -1.0075 -2.0428
 3914TIP3    H233378   1.163   4.642   2.461  1.1638  0.1008 -2.4988
 3915TIP3   OH233379   3.082   6.116   9.042 -0.1047  0.4816 -0.0848
 3915TIP3    H133380   3.126   6.168   8.975  1.4228  1.1295  1.3283
 3915TIP3    H233381   2.990   6.140   9.034 -0.0893  0.0106 -2.3583
 3916TIP3   OH233382   0.336   5.107   6.820 -0.1281  0.4543 -0.4458
 3916TIP3    H133383   0.386   5.175   6.865 -2.1178  1.0478  1.0228
 3916TIP3    H233384   0.360   5.117   6.728  1.0437  1.9110 -0.0335
 3917TIP3   OH233385   3.489   6.485   9.050  0.2499 -0.0982  0.3585
 3917TIP3    H133386   3.440   6.414   9.007  0.2628 -0.0616  0.2836
 3917TIP3    H233387   3.570   6.492   8.999  1.1232 -1.3292  1.5144
 3918TIP3   OH233388   0.308   6.534   7.901 -0.0252  0.1183 -0.6024
 3918TIP3    H133389   0.309   6.517   7.806  3.9096  2.0114 -1.1165
 3918TIP3    H233390   0.310   6.447   7.941 -1.5084 -0.7208 -2.2142
 3919TIP3   OH233391   4.009   5.794   0.021  0.1600 -0.1525  0.3268
 3919TIP3    H133392   3.994   5.875  -0.029 -1.3548  0.1779  1.2687
 3919TIP3    H233393   4.012   5.726  -0.046 -1.9565  0.2619 -0.2575
 3920TIP3   OH233394   0.852   2.505   0.393 -0.2095  0.3385  0.1555
 3920TIP3    H133395   0.801   2.435   0.351  0.6617  0.0846 -0.5218
 3920TIP3    H233396   0.944   2.479   0.380  0.1039  0.4251  1.9612
 3921TIP3   OH233397   1.094   4.967   8.971 -0.4576 -0.2149  0.0787
 3921TIP3    H133398   1.160   5.012   8.917  0.0731 -2.8151 -1.6398
 3921TIP3    H233399   1.144   4.906   9.024 -1.2757  0.0118  1.1439
 3922TIP3   OH233400   6.527   0.591   8.554 -0.4391 -0.5707  0.6683
 3922TIP3    H133401   6.514   0.678   8.518 -0.5890 -0.1729  1.6506
 3922TIP3    H233402   6.438   0.555   8.561 -0.5068 -0.2371  1.6109
 3923TIP3   OH233403   2.861   3.902   0.211 -0.0823  0.2152  0.4246
 3923TIP3    H133404   2.886   3.934   0.298  0.2652  4.0539 -0.9307
 3923TIP3    H233405   2.766   3.894   0.216  0.1273 -2.6319  1.9583
 3924TIP3   OH233406   1.447   2.773   0.882 -0.3740  0.1740  0.2613
 3924TIP3    H133407   1.387   2.753   0.954 -0.3272 -0.6213  0.0830
 3924TIP3    H233408   1.426   2.709   0.815  0.5240  0.0373  0.1067
 3925TIP3   OH233409   6.111   5.851   2.247  0.3093 -0.0891 -0.4492
 3925TIP3    H133410   6.198   5.885   2.225 -0.1470  0.6445 -1.2231
 3925TIP3    H233411   6.106   5.858   2.342  1.4825 -1.1348 -0.2867
 3926TIP3   OH233412   3.288   1.091   7.792  0.4148 -0.4246  0.1688
 3926TIP3    H133413   3.198   1.081   7.761  0.4972 -0.4983 -0.0569
 3926TIP3    H233414   3.304   1.185   7.793 -0.1834 -0.3098  1.7495
 3927TIP3   OH233415   4.362   4.255   8.186 -0.1436 -0.0746  0.4521
 3927TIP3    H133416   4.367   4.332   8.129 -3.2370 -0.0099  0.0896
 3927TIP3    H233417   4.354   4.181   8.126 -0.0759 -0.3850  0.8176
 3928TIP3   OH233418   6.618   1.422   0.779  0.5453 -0.1491  0.1407
 3928TIP3    H133419   6.684   1.456   0.719  1.1525 -1.1381  0.2334
 3928TIP3    H233420   6.574   1.353   0.731  0.6216 -0.5315  0.6069
 3929TIP3   OH233421   5.283   1.385   7.835  0.4451  0.2148  0.4401
 3929TIP3    H133422   5.372   1.395   7.803 -0.2198  1.2597 -1.1989
 3929TIP3    H233423   5.230   1.376   7.756 -0.8431 -1.0769  1.4052
 3930TIP3   OH233424   1.504   5.237   1.375 -0.7772  0.1156  0.6618
 3930TIP3    H133425   1.417   5.199   1.366 -1.0153  1.0890 -2.8232
 3930TIP3    H233426   1.562   5.176   1.329 -0.1398  0.9148  0.3792
 3931TIP3   OH233427   1.711   1.604   2.414 -0.8793  0.4081  0.5298
 3931TIP3    H133428   1.798   1.577   2.384 -1.5620 -0.1426 -1.0681
 3931TIP3    H233429   1.707   1.572   2.504  0.3908  0.0183  0.4792
 3932TIP3   OH233430   0.014   2.955   0.550  0.4219  0.4377 -0.2160
 3932TIP3    H133431   0.079   2.992   0.490  1.7005  3.1703  2.6167
 3932TIP3    H233432   0.066   2.917   0.621 -1.0173  1.4187  1.4217
 3933TIP3   OH233433   1.495   2.483   1.240 -0.0102 -0.0339 -0.1910
 3933TIP3    H133434   1.577   2.523   1.210 -0.1785  0.3058 -0.2066
 3933TIP3    H233435   1.464   2.542   1.309  0.6457 -1.0862  1.0410
 3934TIP3   OH233436   4.482   0.678   0.487  0.0596  0.1426  0.4824
 3934TIP3    H133437   4.491   0.726   0.405 -2.2808  0.2596  0.2421
 3934TIP3    H233438   4.555   0.616   0.486 -0.7569 -0.9397 -2.4286
 3935TIP3   OH233439   2.128   2.919   1.374 -0.0944  0.2994 -0.0913
 3935TIP3    H133440   2.206   2.966   1.345  0.4401  0.9910  2.2252
 3935TIP3    H233441   2.158   2.828   1.386 -0.5280 -0.1980 -2.2667
 3936TIP3   OH233442   5.357   6.500   0.497 -0.4042  0.0844 -0.2745
 3936TIP3    H133443   5.404   6.531   0.574  0.2122 -1.4257 -0.0075
 3936TIP3    H233444   5.357   6.575   0.437  0.4674  0.7847  0.5734
 3937TIP3   OH233445   0.239   2.380   1.214  0.0876  0.5363 -0.2304
 3937TIP3    H133446   0.218   2.471   1.191 -0.3555  0.3540 -0.5368
 3937TIP3    H233447   0.303   2.388   1.285  0.8616  1.0998 -0.9677
 3938TIP3   OH233448   3.660   4.141   1.994  0.1204  0.7585 -0.4228
 3938TIP3    H133449   3.726   4.187   1.942  0.4824  0.2087 -0.4505
 3938TIP3    H233450   3.616   4.211   2.043 -0.4436  1.3289 -1.6895
 3939TIP3   OH233451   2.403   1.531   1.329  0.2272 -0.1226 -0.6144
 3939TIP3    H133452   2.435   1.576   1.407  0.0248  0.2191 -0.7277
 3939TIP3    H233453   2.482   1.508   1.280  0.3528 -0.3212 -0.3195
 3940TIP3   OH233454   4.318   4.212   1.491  0.1425  0.1451  0.4024
 3940TIP3    H133455   4.370   4.289   1.466 -0.1202  1.0690  2.5040
 3940TIP3    H233456   4.370   4.168   1.558 -0.7872 -0.1312  0.9682
 3941TIP3   OH233457   5.766   4.947   0.060 -0.4780 -0.2747  0.2722
 3941TIP3    H133458   5.719   4.901   0.130 -0.8444  0.4166  0.4933
 3941TIP3    H233459   5.802   4.877   0.006 -1.2058 -0.8243  0.4724
 3942TIP3   OH233460   0.641   1.739   7.980  0.1001  0.2083 -0.2007
 3942TIP3    H133461   0.590   1.726   7.900  0.3029 -0.2460 -0.2637
 3942TIP3    H233462   0.639   1.653   8.023 -0.0987  0.4752  0.3384
 3943TIP3   OH233463   2.406   0.163   1.007 -0.2607 -0.8150  0.1878
 3943TIP3    H133464   2.323   0.156   1.053 -0.4302  0.9485  0.2236
 3943TIP3    H233465   2.423   0.257   1.002  1.7797 -1.1288  0.2481
 3944TIP3   OH233466   2.571   1.818   7.693 -0.1548 -0.5902 -0.4069
 3944TIP3    H133467   2.611   1.904   7.708 -1.1445 -0.0331 -0.9186
 3944TIP3    H233468   2.481   1.828   7.722  0.2908 -2.1475  1.7169
 3945TIP3   OH233469   1.612   2.525   7.981 -0.3959 -0.4475 -0.0615
 3945TIP3    H133470   1.564   2.601   8.013 -3.4951 -2.5235  0.7612
 3945TIP3    H233471   1.699   2.532   8.021 -0.6564  2.4229  0.2209
 3946TIP3   OH233472   6.205   4.311   1.571  0.6720 -0.0538  0.2964
 3946TIP3    H133473   6.126   4.265   1.597  0.1998 -0.5085 -1.7785
 3946TIP3    H233474   6.273   4.277   1.629  0.1050 -2.5916 -0.4095
 3947TIP3   OH233475   3.704   4.464   7.847  0.2362  0.1030  0.0236
 3947TIP3    H133476   3.645   4.535   7.821  0.8426  0.5230 -0.2171
 3947TIP3    H233477   3.791   4.501   7.837  0.5308 -0.2343  1.1788
 3948TIP3   OH233478   4.396   3.883   1.487  0.2042  0.2801 -1.1146
 3948TIP3    H133479   4.454   3.952   1.456 -1.0274  1.4398 -0.9390
 3948TIP3    H233480   4.397   3.890   1.582 -0.4364  0.5108 -1.1188
 3949TIP3   OH233481   6.536   3.870   7.684 -0.0560 -0.2108  0.1862
 3949TIP3    H133482   6.490   3.953   7.685  0.2902 -0.0204  0.4605
 3949TIP3    H233483   6.484   3.814   7.626 -0.2118  0.2378 -0.1084
 3950TIP3   OH233484   0.536   1.657   1.089 -0.4133  0.4564  0.2187
 3950TIP3    H133485   0.453   1.666   1.042 -0.7687 -1.5198  0.4089
 3950TIP3    H233486   0.512   1.624   1.176  0.4269  1.8606  1.0312
 3951TIP3   OH233487   1.922   3.550   7.865  0.0056 -0.2501  0.2458
 3951TIP3    H133488   1.891   3.586   7.782 -1.2407 -2.2327 -0.1966
 3951TIP3    H233489   1.868   3.593   7.931 -0.0678  0.1902 -0.0941
 3952TIP3   OH233490   5.218   1.310   6.931 -0.1714  0.0937  0.3922
 3952TIP3    H133491   5.288   1.250   6.905  0.6665  1.2997 -0.2579
 3952TIP3    H233492   5.177   1.335   6.848 -1.8227 -1.0767  0.8066
 3953TIP3   OH233493   1.055   5.403   8.608 -0.5326 -0.2872  0.0259
 3953TIP3    H133494   1.148   5.382   8.600 -0.9867 -2.5313  0.0609
 3953TIP3    H233495   1.043   5.424   8.700 -0.2274 -0.9156  0.2119
 3954TIP3   OH233496   3.897   4.665   7.222  0.1014  0.3713 -0.2546
 3954TIP3    H133497   3.909   4.583   7.173 -1.9483 -0.6247  0.7704
 3954TIP3    H233498   3.854   4.724   7.160  1.0511  0.4882 -0.8190
 3955TIP3   OH233499   5.736   5.437   0.979 -0.5075  0.0740  0.0512
 3955TIP3    H133500   5.725   5.356   0.928 -1.8039 -0.6845  1.4519
 3955TIP3    H233501   5.755   5.406   1.068 -0.0797  1.3438  0.4180
 3956TIP3   OH233502   4.435   5.750   7.750 -0.2520  0.0490  0.2981
 3956TIP3    H133503   4.423   5.776   7.841  0.0895 -2.7242  1.2216
 3956TIP3    H233504   4.347   5.735   7.717 -0.4007  1.4542  0.0117
 3957TIP3   OH233505   4.176   6.156   3.037 -0.6022  0.2741 -0.1582
 3957TIP3    H133506   4.259   6.118   3.066 -0.9163 -0.0690  0.3107
 3957TIP3    H233507   4.147   6.210   3.111 -0.4907  0.9058 -0.5626
 3958TIP3   OH233508   6.180   3.855   8.469  0.2881  0.3185  0.0664
 3958TIP3    H133509   6.248   3.800   8.508 -0.7964 -2.8171 -2.0716
 3958TIP3    H233510   6.222   3.893   8.391 -0.0413 -0.6969 -0.6212
 3959TIP3   OH233511   2.310   1.230   6.751 -0.0676 -0.1893 -0.7703
 3959TIP3    H133512   2.382   1.259   6.808  0.0927  0.6769 -1.3850
 3959TIP3    H233513   2.329   1.139   6.731  1.3575  0.2662 -1.6305
 3960TIP3   OH233514   2.251   4.281   8.004  0.3061  0.0171  0.2367
 3960TIP3    H133515   2.181   4.220   7.982 -1.2871  2.3074 -1.4970
 3960TIP3    H233516   2.308   4.232   8.063 -1.8393 -2.4976  0.3898
 3961TIP3   OH233517   0.912   6.563   7.428  0.0213  0.1988  0.8170
 3961TIP3    H133518   0.851   6.635   7.411 -0.0436 -0.0424  0.0018
 3961TIP3    H233519   0.877   6.521   7.506 -0.6745  0.2724  0.5569
 3962TIP3   OH233520   1.808   2.351   7.698 -0.2763  0.7094 -0.8171
 3962TIP3    H133521   1.871   2.373   7.629 -0.9234  0.9474 -1.3464
 3962TIP3    H233522   1.857   2.294   7.758  0.3590  0.6701 -1.3573
 3963TIP3   OH233523   0.996   0.494   1.058  0.1505  0.0233 -0.3070
 3963TIP3    H133524   0.955   0.433   1.120  1.3710  0.2168  0.7248
 3963TIP3    H233525   0.969   0.581   1.089  0.9175  0.1291  0.0815
 3964TIP3   OH233526   0.894   2.075   7.390  0.3738 -0.3045  0.1362
 3964TIP3    H133527   0.837   1.997   7.394  0.9883 -0.7171  1.3555
 3964TIP3    H233528   0.976   2.047   7.431  0.3717  1.1835  1.2436
 3965TIP3   OH233529   1.275   5.609   7.926 -0.2578  0.0813  0.4415
 3965TIP3    H133530   1.333   5.623   8.001  1.8564 -2.2201 -0.6380
 3965TIP3    H233531   1.288   5.518   7.901 -2.2515  0.2636 -1.6535
 3966TIP3   OH233532   6.166   0.668   0.456 -0.7618  0.8615  0.8453
 3966TIP3    H133533   6.075   0.682   0.483 -0.6856 -1.5165  2.5916
 3966TIP3    H233534   6.210   0.638   0.535  1.5638  1.8294 -0.0077
 3967TIP3   OH233535   5.796   2.063   1.926  0.2834  0.1308 -0.4105
 3967TIP3    H133536   5.755   2.042   2.010 -1.4783  0.1420 -1.2400
 3967TIP3    H233537   5.890   2.063   1.945  0.1178 -2.8913  0.8665
 3968TIP3   OH233538   2.335   4.396   8.899 -0.2299 -0.3334 -0.4968
 3968TIP3    H133539   2.369   4.485   8.895 -1.2438  0.0866 -0.1879
 3968TIP3    H233540   2.404   4.342   8.861  0.6160  0.5162 -0.2117
 3969TIP3   OH233541   0.617   5.017   0.021  0.4855 -0.4460 -0.6680
 3969TIP3    H133542   0.645   5.108   0.004 -0.4772 -0.3318 -1.7889
 3969TIP3    H233543   0.587   5.018   0.112 -1.0176  0.7711 -1.1420
 3970TIP3   OH233544   4.070   2.714   8.729 -0.0891  0.1299 -0.0592
 3970TIP3    H133545   4.017   2.794   8.734 -0.4908 -0.2161  1.8282
 3970TIP3    H233546   4.156   2.739   8.760  0.1586  0.1002 -0.6973
 3971TIP3   OH233547   6.243   0.570   0.997  0.1282  0.1466 -0.7324
 3971TIP3    H133548   6.275   0.548   1.084  0.5863 -2.5079 -1.4914
 3971TIP3    H233549   6.153   0.540   0.995 -0.0271  0.6185 -1.0410
 3972TIP3   OH233550   2.657   5.354   0.383 -0.0442  0.1310 -0.3385
 3972TIP3    H133551   2.599   5.280   0.402 -1.1295  0.9219 -0.4726
 3972TIP3    H233552   2.714   5.360   0.459 -0.5093 -0.3261  0.0530
 3973TIP3   OH233553   1.183   3.578   8.179  0.6153  0.3270  0.0289
 3973TIP3    H133554   1.106   3.635   8.175 -0.7214 -1.4348 -2.5064
 3973TIP3    H233555   1.163   3.514   8.247  1.7602  2.1963  2.2873
 3974TIP3   OH233556   4.583   6.004   1.991  0.0915 -0.8310 -0.8426
 3974TIP3    H133557   4.601   5.923   2.037  0.4544  0.1075  0.7356
 3974TIP3    H233558   4.540   6.060   2.055 -0.2977  0.1767 -1.9313
 3975TIP3   OH233559   5.498   5.364   2.144  0.0239  0.4188 -0.4670
 3975TIP3    H133560   5.408   5.332   2.143  0.4340 -0.7814 -0.9710
 3975TIP3    H233561   5.498   5.434   2.209 -1.2717  0.4583 -0.4781
 3976TIP3   OH233562   3.316   5.451   8.706  0.1583 -0.4196 -0.4060
 3976TIP3    H133563   3.293   5.381   8.767  0.4691 -0.8611 -0.7923
 3976TIP3    H233564   3.267   5.527   8.738 -0.1559 -0.8002  0.0347
 3977TIP3   OH233565   4.046   3.007   6.429  0.2281  0.4052  1.0608
 3977TIP3    H133566   4.031   2.915   6.409 -0.9555  0.4218  1.7685
 3977TIP3    H233567   4.043   3.012   6.524 -1.9020  1.4660  1.0128
 3978TIP3   OH233568   2.475   6.072   0.122  0.5167 -0.2855  0.6653
 3978TIP3    H133569   2.424   5.994   0.099  0.5448 -0.4182  1.0345
 3978TIP3    H233570   2.499   6.110   0.038 -2.7508  1.5079  0.3661
 3979TIP3   OH233571   6.447   3.185   8.221  0.0721 -0.1586 -0.0402
 3979TIP3    H133572   6.368   3.238   8.213 -0.5390 -1.1586 -0.7247
 3979TIP3    H233573   6.451   3.161   8.314 -0.1855  0.2521  0.0772
 3980TIP3   OH233574   1.855   5.925   6.796 -0.3266 -0.1881  0.1347
 3980TIP3    H133575   1.864   5.860   6.726  1.4280  1.4824 -1.2837
 3980TIP3    H233576   1.808   5.998   6.755  0.7805  0.8476  0.6521
 3981TIP3   OH233577   1.635   2.354   0.275  0.6025 -0.3980 -0.0073
 3981TIP3    H133578   1.696   2.416   0.316  0.0569  0.2888 -0.2243
 3981TIP3    H233579   1.691   2.282   0.245  1.2630  0.0606  0.1052
 3982TIP3   OH233580   2.987   1.908   7.104  0.4189  0.1752  0.7137
 3982TIP3    H133581   2.985   1.987   7.050 -0.1056 -1.3474 -1.6410
 3982TIP3    H233582   2.895   1.889   7.122  0.5708  0.4184  1.7921
 3983TIP3   OH233583   6.213   6.682   0.415  0.4035  0.0074 -0.3980
 3983TIP3    H133584   6.219   6.760   0.359  1.2144  1.6873  1.8404
 3983TIP3    H233585   6.119   6.672   0.432  0.3459  1.2535  0.1805
 3984TIP3   OH233586   6.066   3.060   1.240  0.3080 -0.2819 -0.6137
 3984TIP3    H133587   6.142   3.078   1.185 -0.0763  1.3617 -0.6615
 3984TIP3    H233588   6.101   3.014   1.316  1.1630 -0.6111 -1.1946
 3985TIP3   OH233589   5.101   4.544   9.094 -0.0135 -0.1479  0.4404
 3985TIP3    H133590   5.033   4.548   9.161  0.0617  1.2666  0.4759
 3985TIP3    H233591   5.146   4.628   9.102  0.2335 -0.1095 -1.1393
 3986TIP3   OH233592   4.452   2.741   8.606  0.4395  0.0949  0.0162
 3986TIP3    H133593   4.469   2.663   8.552  2.6015  0.4628  0.0882
 3986TIP3    H233594   4.519   2.804   8.579 -0.8531  1.7117  0.4431
 3987TIP3   OH233595   0.736   4.995   1.141 -0.6803  0.5253  0.4422
 3987TIP3    H133596   0.780   5.077   1.161 -2.2801  1.8364 -1.0809
 3987TIP3    H233597   0.797   4.949   1.083  0.7560 -0.0020  2.2500
 3988TIP3   OH233598   5.745   5.293   2.161 -0.4854  0.7465  0.2035
 3988TIP3    H133599   5.760   5.222   2.099  0.4323  1.4563 -0.4093
 3988TIP3    H233600   5.654   5.319   2.146 -0.4618  0.4917 -0.3921
 3989TIP3   OH233601   5.324   0.317   1.863 -0.1778 -0.5225  0.1396
 3989TIP3    H133602   5.298   0.399   1.820 -0.8249 -0.0308  1.4196
 3989TIP3    H233603   5.386   0.277   1.802  2.4546  2.2974  0.7001
 3990TIP3   OH233604   3.895   0.831   6.836  0.2889 -0.3835  0.0628
 3990TIP3    H133605   3.911   0.738   6.819  0.5473 -0.3902  0.3314
 3990TIP3    H233606   3.816   0.832   6.890 -1.9037 -0.2411 -2.9522
 3991TIP3   OH233607   0.983   2.200   6.835  0.2195 -0.1064 -0.5618
 3991TIP3    H133608   0.903   2.219   6.785 -0.1086  0.7675  0.2722
 3991TIP3    H233609   0.960   2.221   6.925  1.5908  0.7463 -0.3958
 3992TIP3   OH233610   2.009   6.534   8.546 -0.3655  0.1235 -0.2607
 3992TIP3    H133611   1.965   6.534   8.631 -0.0031 -1.3693 -0.0401
 3992TIP3    H233612   1.958   6.595   8.492 -0.6192  1.0693  0.9971
 3993TIP3   OH233613   3.342   3.463   7.044 -0.2843  0.1901  0.3575
 3993TIP3    H133614   3.394   3.512   7.108  2.0907 -1.9288  0.2415
 3993TIP3    H233615   3.283   3.410   7.097 -1.4635  1.6227  0.5466
 3994TIP3   OH233616   2.509   1.985   0.947  0.2540  0.6566 -0.2413
 3994TIP3    H133617   2.542   2.075   0.938  0.5640  0.6888  0.9637
 3994TIP3    H233618   2.414   1.993   0.934 -0.0077  1.5264  1.7343
 3995TIP3   OH233619   0.415   2.641   8.265  0.0489  0.3571 -0.0229
 3995TIP3    H133620   0.449   2.670   8.350  0.7282  2.1751 -0.8706
 3995TIP3    H233621   0.493   2.625   8.212 -0.3147 -2.1855  0.0594
 3996TIP3   OH233622   1.083   4.711   8.182  0.3444  0.1632 -0.1495
 3996TIP3    H133623   0.997   4.670   8.178 -0.0730  0.7876  1.6212
 3996TIP3    H233624   1.144   4.639   8.163 -0.4933 -0.5674 -0.1735
 3997TIP3   OH233625   2.486   4.277   8.557 -0.3035  0.2824 -0.0610
 3997TIP3    H133626   2.439   4.310   8.480  1.0316  1.1357 -0.5426
 3997TIP3    H233627   2.554   4.342   8.574  1.0707 -1.1692  0.2615
 3998TIP3   OH233628   0.218   1.784   1.321 -0.1339 -0.7187 -0.2877
 3998TIP3    H133629   0.165   1.760   1.245 -1.1453 -0.0177  0.1708
 3998TIP3    H233630   0.206   1.710   1.382  0.4734 -1.1621 -0.6987
 3999TIP3   OH233631   3.645   1.640   0.440  0.5519 -0.3603  0.7142
 3999TIP3    H133632   3.670   1.597   0.359  0.6000 -1.4880  1.3151
 3999TIP3    H233633   3.726   1.646   0.490  0.3087 -0.6925  1.1478
 4000TIP3   OH233634   1.702   2.008   8.790  0.5598 -0.2754 -0.1414
 4000TIP3    H133635   1.704   2.088   8.737 -2.3838 -0.3647 -0.5513
 4000TIP3    H233636   1.751   2.031   8.870 -2.5889  3.0519  1.1219
 4001TIP3   OH233637   1.318   4.935   1.792 -0.2277 -0.1413  0.6611
 4001TIP3    H133638   1.290   5.023   1.818  1.3962  1.2438 -1.8428
 4001TIP3    H233639   1.245   4.901   1.741 -0.4799  0.1513  0.8232
 4002TIP3   OH233640   2.804   4.606   0.874 -0.0394 -0.1605  0.1015
 4002TIP3    H133641   2.757   4.622   0.792 -0.6960  0.1687  0.5226
 4002TIP3    H233642   2.734   4.586   0.937  0.3341  0.8626  0.8701
 4003TIP3   OH233643   5.993   1.532   0.545  0.9983  0.2870  0.4792
 4003TIP3    H133644   5.932   1.526   0.471  0.2995 -0.7381  1.1094
 4003TIP3    H233645   6.080   1.525   0.506  0.6319 -0.3611 -0.2272
 4004TIP3   OH233646   6.124   1.038   6.613 -0.3059 -0.0835  0.1295
 4004TIP3    H133647   6.160   1.025   6.701 -0.9757  1.7256  0.7411
 4004TIP3    H233648   6.030   1.020   6.623 -0.6736  1.7144  0.2308
 4005TIP3   OH233649   0.854   4.443   2.512 -0.2441  0.5328  0.3070
 4005TIP3    H133650   0.829   4.352   2.529  0.1348  0.1654 -1.0364
 4005TIP3    H233651   0.888   4.443   2.423 -2.8589  2.4939 -0.8464
 4006TIP3   OH233652   1.033   1.639   6.920 -0.3322  0.1356 -0.3384
 4006TIP3    H133653   1.008   1.714   6.866 -0.6061 -0.5161 -1.1320
 4006TIP3    H233654   1.000   1.660   7.007 -0.0592  1.1151 -0.4571
 4007TIP3   OH233655   3.972   0.421   7.276 -0.4371  0.2394 -0.0270
 4007TIP3    H133656   4.027   0.489   7.238 -1.6653  0.2016 -2.0551
 4007TIP3    H233657   3.984   0.430   7.370  2.4739  0.6435 -0.3419
 4008TIP3   OH233658   4.430   4.409   7.941  0.2839  0.3019  0.3844
 4008TIP3    H133659   4.418   4.373   7.853 -0.1758 -0.0154  0.5760
 4008TIP3    H233660   4.520   4.385   7.965  0.8529  1.4728 -0.4950
 4009TIP3   OH233661   2.827   6.159   0.969 -0.2070 -0.3955 -0.0656
 4009TIP3    H133662   2.811   6.175   0.876  1.0591 -0.0750 -0.2463
 4009TIP3    H233663   2.916   6.122   0.972  0.7277  1.7566  1.1850
 4010TIP3   OH233664   1.498   2.229   8.099  0.1346  0.3643  0.0187
 4010TIP3    H133665   1.492   2.241   8.194 -0.5002  1.0777 -0.0942
 4010TIP3    H233666   1.573   2.283   8.073  2.4255 -2.3862  0.4778
 4011TIP3   OH233667   4.532   5.479   0.396 -0.5932 -0.1302 -0.3973
 4011TIP3    H133668   4.437   5.488   0.409 -0.6007 -0.8806  0.0995
 4011TIP3    H233669   4.563   5.434   0.474  0.3222  0.8956 -0.1481
 4012TIP3   OH233670   4.298   2.721   7.344 -0.0487  1.2305  0.0435
 4012TIP3    H133671   4.376   2.728   7.290 -0.1179 -1.2194 -0.4931
 4012TIP3    H233672   4.331   2.704   7.432  0.1985 -2.6964 -0.6256
 4013TIP3   OH233673   2.551   2.532   7.293 -0.1982 -0.4807 -0.5690
 4013TIP3    H133674   2.581   2.455   7.341  1.7441  2.0370  2.7063
 4013TIP3    H233675   2.617   2.547   7.225  0.5854 -0.5744  0.1572
 4014TIP3   OH233676   3.451   6.303   0.214  0.7314 -0.3265 -1.1197
 4014TIP3    H133677   3.507   6.381   0.211 -0.1571  0.7119  3.2205
 4014TIP3    H233678   3.368   6.333   0.175  0.4291  0.9447  0.4119
 4015TIP3   OH233679   4.689   1.307   0.713 -0.7342  0.3764 -0.4233
 4015TIP3    H133680   4.694   1.392   0.669  0.5476 -0.2893 -1.6264
 4015TIP3    H233681   4.779   1.287   0.738 -0.8825 -1.0441 -0.9739
 4016TIP3   OH233682   1.502   2.249   8.372 -0.0404  0.1206 -0.2194
 4016TIP3    H133683   1.592   2.255   8.406  0.0710 -2.8681  0.2341
 4016TIP3    H233684   1.448   2.288   8.441  0.7502  0.2530  0.3461
 4017TIP3   OH233685   4.750   4.197   0.546  0.2576  0.2798 -0.1304
 4017TIP3    H133686   4.810   4.272   0.542 -0.3469  0.9480  1.8961
 4017TIP3    H233687   4.777   4.150   0.625 -0.9869 -0.1981  0.0316
 4018TIP3   OH233688   5.185   5.450   0.202  0.6254  0.6774  0.1500
 4018TIP3    H133689   5.196   5.460   0.107  1.4548  1.5005  0.3222
 4018TIP3    H233690   5.116   5.514   0.224  0.3871  0.4407  0.0978
 4019TIP3   OH233691   6.038   6.304   8.232  0.3544 -0.4894  0.3015
 4019TIP3    H133692   6.106   6.360   8.271  0.1264  0.5328 -0.7002
 4019TIP3    H233693   6.087   6.241   8.180  0.5971 -0.9745  1.0859
 4020TIP3   OH233694   3.694   4.599   8.367 -0.1692  0.4523 -0.4588
 4020TIP3    H133695   3.625   4.538   8.393  0.2456 -0.0378 -0.4883
 4020TIP3    H233696   3.732   4.560   8.289 -0.7410  1.4042 -1.2252
 4021TIP3   OH233697   3.650   5.347   1.542 -0.3905 -0.2185 -0.1102
 4021TIP3    H133698   3.672   5.330   1.634 -0.3922 -3.9509 -0.6716
 4021TIP3    H233699   3.726   5.395   1.508  0.7063 -0.9124  1.2471
 4022TIP3   OH233700   4.408   5.942   2.614 -0.2401 -0.1252 -1.0238
 4022TIP3    H133701   4.450   5.874   2.667  1.0145  1.6462  0.4104
 4022TIP3    H233702   4.316   5.941   2.640 -0.1837 -1.0768 -0.8450
 4023TIP3   OH233703   1.370   0.164   0.183 -0.2760 -0.2444 -0.4107
 4023TIP3    H133704   1.289   0.209   0.209 -0.2925  0.3601 -1.4103
 4023TIP3    H233705   1.439   0.227   0.203  0.1775 -1.4220  2.0548
 4024TIP3   OH233706   4.092   2.630   7.783  0.1872  0.4839 -0.2888
 4024TIP3    H133707   4.056   2.610   7.697  0.6849 -2.4294  0.0981
 4024TIP3    H233708   4.023   2.608   7.845  0.6425  0.3326  0.1794
 4025TIP3   OH233709   1.678   6.558   7.214 -0.0725 -0.7549  0.3090
 4025TIP3    H133710   1.667   6.510   7.296  1.2053 -0.3114  0.7613
 4025TIP3    H233711   1.621   6.512   7.152 -2.0640 -0.3409  1.7163
 4026TIP3   OH233712   2.566   4.389   7.220  0.2536  0.0252 -0.0980
 4026TIP3    H133713   2.624   4.345   7.282  2.7200  0.9355 -1.6078
 4026TIP3    H233714   2.551   4.475   7.258 -0.0846 -0.2008  0.2810
 4027TIP3   OH233715   5.100   6.072   1.367 -0.2335  0.3081 -0.1437
 4027TIP3    H133716   5.099   6.042   1.277 -0.8009 -0.0177 -0.0364
 4027TIP3    H233717   5.008   6.066   1.395 -0.0853  0.5375  0.4063
 4028TIP3   OH233718   2.457   0.283   1.309  0.5263 -0.5339 -0.1904
 4028TIP3    H133719   2.460   0.331   1.392 -0.0915 -2.5294  1.0436
 4028TIP3    H233720   2.386   0.221   1.320 -2.4068  1.7649 -3.7629
 4029TIP3   OH233721   1.220   2.788   7.694  0.7678  0.1249  0.1628
 4029TIP3    H133722   1.184   2.758   7.611  0.0435  0.7924  0.2224
 4029TIP3    H233723   1.314   2.775   7.686  0.6585 -0.2153 -0.5973
 4030TIP3   OH233724   3.198   1.398   6.613  0.4704 -0.2072 -0.0194
 4030TIP3    H133725   3.273   1.400   6.554 -1.0183  2.0517 -2.0292
 4030TIP3    H233726   3.130   1.350   6.564  0.2227 -1.2549  1.2974
 4031TIP3   OH233727   0.887   0.503   7.460 -0.0166 -0.1635 -0.1244
 4031TIP3    H133728   0.904   0.572   7.524 -0.9448  0.4088 -0.4698
 4031TIP3    H233729   0.860   0.427   7.511  0.8950 -0.2413  0.2525
 4032TIP3   OH233730   3.201   6.018   0.135 -0.3402 -0.3074  0.3847
 4032TIP3    H133731   3.125   6.026   0.077 -0.7109  0.7703  0.9718
 4032TIP3    H233732   3.276   6.013   0.076 -0.6673  1.2381 -0.2198
 4033TIP3   OH233733   3.186   6.364   6.997  0.1916  0.2424  0.7350
 4033TIP3    H133734   3.102   6.370   6.953  0.2040 -2.1098  0.2586
 4033TIP3    H233735   3.244   6.423   6.948 -0.8731  0.9928  0.3582
 4034TIP3   OH233736   4.401   2.914   6.802  0.0726  0.2275  0.7065
 4034TIP3    H133737   4.484   2.898   6.756  0.0670  2.3243 -0.1544
 4034TIP3    H233738   4.348   2.837   6.783  1.2483 -0.4200 -0.0875
 4035TIP3   OH233739   2.137   4.981   7.967 -0.6315 -0.4768  0.1450
 4035TIP3    H133740   2.133   4.918   7.895 -0.5094 -0.1073 -0.1852
 4035TIP3    H233741   2.047   5.009   7.981 -0.4861  0.4925 -0.7886
 4036TIP3   OH233742   1.917   3.507   8.906  0.3851  0.4568  0.1681
 4036TIP3    H133743   1.888   3.579   8.851  0.3322  0.6201  0.4112
 4036TIP3    H233744   1.836   3.463   8.933  0.4591 -0.2908 -0.7824
 4037TIP3   OH233745   3.366   3.114   7.160  0.1332 -0.2657 -0.6190
 4037TIP3    H133746   3.275   3.088   7.144  0.4775 -1.3545 -0.9041
 4037TIP3    H233747   3.363   3.163   7.242 -0.4077 -2.3782  0.7160
 4038TIP3   OH233748   0.007   4.530   1.994  0.1135 -0.3931 -0.5498
 4038TIP3    H133749   0.082   4.582   1.968 -0.3087  1.0829  0.9794
 4038TIP3    H233750   0.045   4.455   2.041  0.6753 -0.7358 -1.5265
 4039TIP3   OH233751   1.721   0.105   7.924 -0.4159 -0.0154 -0.4743
 4039TIP3    H133752   1.672   0.048   7.864  0.8782 -0.8521 -0.7760
 4039TIP3    H233753   1.742   0.048   7.998 -0.4467  0.5198 -0.0523
 4040TIP3   OH233754   0.183   2.902   0.775  0.4871 -0.2788  0.3571
 4040TIP3    H133755   0.243   2.944   0.836  1.5260 -1.0333 -0.1254
 4040TIP3    H233756   0.104   2.885   0.827  1.0829 -0.2683  1.2836
 4041TIP3   OH233757   5.687   1.449   7.386 -0.5730  0.5640 -0.3911
 4041TIP3    H133758   5.606   1.497   7.370 -0.5599 -0.0068 -2.3949
 4041TIP3    H233759   5.753   1.494   7.333 -0.1047 -0.3882 -0.6414
 4042TIP3   OH233760   3.247   0.219   2.196 -0.1870  0.4442  0.4721
 4042TIP3    H133761   3.214   0.278   2.128 -0.5323 -0.8409 -0.5291
 4042TIP3    H233762   3.173   0.206   2.255 -0.3458  0.3989  0.2640
 4043TIP3   OH233763   4.773   5.304   1.567 -0.3178 -0.5356  0.1816
 4043TIP3    H133764   4.851   5.308   1.622  1.2035 -1.6921 -1.7170
 4043TIP3    H233765   4.804   5.329   1.480 -2.4353  0.4743 -0.3507
 4044TIP3   OH233766   0.657   4.749   8.206 -0.1533 -0.3833 -0.1472
 4044TIP3    H133767   0.638   4.661   8.238 -1.2273 -0.3048 -0.5450
 4044TIP3    H233768   0.724   4.736   8.140  0.8300 -0.7287  0.8790
 4045TIP3   OH233769   5.429   3.457   1.292  0.1437  0.1094 -0.2935
 4045TIP3    H133770   5.380   3.481   1.214  0.1173 -0.5551 -0.4849
 4045TIP3    H233771   5.395   3.514   1.361  0.8282  1.3680 -0.9669
 4046TIP3   OH233772   0.592   4.450   0.506 -0.3304 -0.1422 -0.0243
 4046TIP3    H133773   0.609   4.502   0.585  2.5426  1.1467 -1.3326
 4046TIP3    H233774   0.672   4.401   0.491 -1.2681 -1.3418 -1.4885
 4047TIP3   OH233775   2.462   1.748   0.532 -0.0137  0.1026  0.3634
 4047TIP3    H133776   2.516   1.826   0.518 -1.4313  1.0762  0.0895
 4047TIP3    H233777   2.438   1.720   0.443  0.4992 -0.6727  0.4619
 4048TIP3   OH233778   1.852   4.443   2.311  0.1258 -0.2310 -0.2105
 4048TIP3    H133779   1.814   4.363   2.274 -2.0072  0.8512 -0.5145
 4048TIP3    H233780   1.821   4.445   2.402  0.3479  0.1314 -0.1410
 4049TIP3   OH233781   6.587   3.349   0.972 -0.3068  0.2406 -0.7191
 4049TIP3    H133782   6.641   3.422   1.002 -0.7898  0.1427  0.4310
 4049TIP3    H233783   6.538   3.321   1.049  0.7873 -2.1067 -0.7693
 4050TIP3   OH233784   6.347   4.533   9.016  0.0828  0.1925 -0.4633
 4050TIP3    H133785   6.294   4.483   9.079 -0.8672 -2.5703 -3.2044
 4050TIP3    H233786   6.284   4.591   8.973  0.2457  0.3148 -0.5386
 4051TIP3   OH233787   5.671   6.491   1.537  0.4900 -0.1468 -0.1125
 4051TIP3    H133788   5.737   6.467   1.472 -1.1292  0.5729 -2.1119
 4051TIP3    H233789   5.588   6.492   1.488 -0.6293  1.5841  1.6933
 4052TIP3   OH233790   3.339   1.267   1.356 -0.2532 -0.2546  0.8898
 4052TIP3    H133791   3.265   1.208   1.370 -1.2439  0.8164  0.3489
 4052TIP3    H233792   3.360   1.257   1.263 -0.4023  0.2012  0.8040
 4053TIP3   OH233793   0.538   5.513   0.422  0.3387 -0.1965  0.0922
 4053TIP3    H133794   0.587   5.435   0.397 -0.0731 -0.2582 -0.5432
 4053TIP3    H233795   0.593   5.586   0.394  0.9132 -0.2340  1.0489
 4054TIP3   OH233796   2.024   1.860   7.089  0.0703  0.3263  0.1179
 4054TIP3    H133797   1.989   1.931   7.034 -1.0438 -0.4758 -0.2349
 4054TIP3    H233798   2.014   1.892   7.178 -1.6261  0.1289  0.0319
 4055TIP3   OH233799   2.007   1.612   8.149 -0.0113  0.3179 -0.1760
 4055TIP3    H133800   2.023   1.699   8.185  1.6606  0.4261 -1.0715
 4055TIP3    H233801   2.010   1.624   8.054  0.1550 -0.6957 -0.3109
 4056TIP3   OH233802   3.407   3.624   9.028 -0.4427 -0.0007  0.2019
 4056TIP3    H133803   3.411   3.702   9.083  0.8079  0.2877 -0.2698
 4056TIP3    H233804   3.344   3.567   9.072 -3.3964  2.2683 -0.7971
 4057TIP3   OH233805   0.401   6.711   8.597  0.3425 -0.2795  0.3401
 4057TIP3    H133806   0.367   6.688   8.510  0.1818 -0.5352  0.4693
 4057TIP3    H233807   0.324   6.710   8.654  0.7336 -2.3146  0.9300
 4058TIP3   OH233808   1.942   4.518   7.568  0.3849  0.4779  0.1508
 4058TIP3    H133809   1.873   4.584   7.569 -0.8412 -0.7279 -0.8571
 4058TIP3    H233810   2.023   4.568   7.577 -0.5821  1.9595  1.0020
 4059TIP3   OH233811   0.928   4.229   0.087 -0.6162 -0.6151  0.3672
 4059TIP3    H133812   0.965   4.153   0.042 -1.1116 -2.0006  2.1542
 4059TIP3    H233813   0.995   4.297   0.080 -0.9519 -0.4501 -3.0053
 4060TIP3   OH233814   2.139   5.594   1.649 -0.3256  0.2489 -0.3579
 4060TIP3    H133815   2.133   5.685   1.619 -0.7760  0.3171 -0.0676
 4060TIP3    H233816   2.117   5.542   1.571  1.4030  0.3319 -0.9418
 4061TIP3   OH233817   3.010   6.596   8.413  0.0606  0.4586  0.2663
 4061TIP3    H133818   3.064   6.675   8.421 -1.2059  1.5096 -0.8940
 4061TIP3    H233819   2.947   6.603   8.484 -0.5174  0.9163 -0.2723
 4062TIP3   OH233820   3.521   4.523   1.152 -0.7420 -0.0631 -0.3239
 4062TIP3    H133821   3.529   4.560   1.064 -0.1745  0.2634 -0.1423
 4062TIP3    H233822   3.525   4.599   1.210  0.8164 -0.4073  0.0701
 4063TIP3   OH233823   0.851   6.371   7.622 -0.1175 -0.3280  0.2280
 4063TIP3    H133824   0.842   6.281   7.654 -1.0158 -0.4842 -0.4613
 4063TIP3    H233825   0.767   6.412   7.642 -0.2827 -0.0996 -0.8930
 4064TIP3   OH233826   0.636   1.608   0.643 -0.1591  0.0748 -0.2464
 4064TIP3    H133827   0.571   1.538   0.646  0.5938 -0.6159  1.2467
 4064TIP3    H233828   0.596   1.681   0.690  0.5459 -0.7658  1.7582
 4065TIP3   OH233829   2.432   6.374   8.152 -0.0545  0.1689  0.0454
 4065TIP3    H133830   2.455   6.433   8.224 -2.0506  0.4743  0.4976
 4065TIP3    H233831   2.383   6.303   8.193 -3.3433  1.5341 -1.1486
 4066TIP3   OH233832   0.218   4.602   1.139 -0.0131 -0.0553  0.5370
 4066TIP3    H133833   0.157   4.532   1.115 -0.6009  1.2563 -2.1944
 4066TIP3    H233834   0.296   4.584   1.087 -0.3758  1.5214 -0.6457
 4067TIP3   OH233835   2.966   5.753   7.684  0.0574  0.3404  0.2330
 4067TIP3    H133836   2.965   5.667   7.642 -0.6720 -0.7735  2.3469
 4067TIP3    H233837   3.031   5.803   7.635  0.5508 -1.4264 -1.0326
 4068TIP3   OH233838   3.027   4.640   1.520  0.2328  0.2361 -0.2659
 4068TIP3    H133839   3.047   4.717   1.466  0.2298 -0.0351 -0.6546
 4068TIP3    H233840   3.003   4.572   1.457  0.1898 -0.0716  0.0811
 4069TIP3   OH233841   2.916   4.423   7.292 -0.3467  0.2480 -0.4364
 4069TIP3    H133842   2.874   4.347   7.333  2.0123 -0.9918 -0.1525
 4069TIP3    H233843   2.987   4.386   7.240  0.2907  2.2238 -1.0449
 4070TIP3   OH233844   0.812   1.744   8.265  0.0363 -0.7716 -0.0193
 4070TIP3    H133845   0.828   1.650   8.252  1.6259 -0.4496 -0.5796
 4070TIP3    H233846   0.717   1.753   8.259 -0.0108 -2.0587 -2.1240
 4071TIP3   OH233847   1.233   0.580   0.513 -0.1837 -0.7996 -0.2923
 4071TIP3    H133848   1.316   0.536   0.527 -0.7991 -1.7623  0.4353
 4071TIP3    H233849   1.183   0.520   0.456 -0.1518  0.0660 -1.2718
 4072TIP3   OH233850   0.892   1.629   0.550 -0.1752  0.6818  0.1823
 4072TIP3    H133851   0.797   1.630   0.556 -0.3668  3.2039 -1.8292
 4072TIP3    H233852   0.915   1.536   0.559 -2.7930 -0.0010  0.6812
 4073TIP3   OH233853   3.328   4.948   0.472  0.3676  0.2915  0.1602
 4073TIP3    H133854   3.368   4.929   0.556 -0.6796  2.4412  1.2126
 4073TIP3    H233855   3.234   4.947   0.489  0.0635 -0.6167 -1.3411
 4074TIP3   OH233856   0.515   0.823   7.856 -0.3185  0.6478 -0.0263
 4074TIP3    H133857   0.424   0.846   7.836 -1.5847  0.6464  4.5980
 4074TIP3    H233858   0.515   0.727   7.857 -0.7630  0.6372  1.4668
 4075TIP3   OH233859   5.663   1.716   8.206  0.2536 -0.2348 -0.2625
 4075TIP3    H133860   5.665   1.812   8.202 -0.6202 -0.2378 -1.2441
 4075TIP3    H233861   5.749   1.691   8.237  0.8618  0.8263 -1.0385
 4076TIP3   OH233862   3.383   2.163   7.748  0.3522 -0.3814  0.0077
 4076TIP3    H133863   3.399   2.072   7.721  0.2067 -0.7037  0.9500
 4076TIP3    H233864   3.438   2.215   7.690  1.3639 -1.1617  0.2273
 4077TIP3   OH233865   4.649   6.107   2.357 -0.1679  0.2038  0.2293
 4077TIP3    H133866   4.556   6.106   2.378  0.4327 -2.1349  3.4913
 4077TIP3    H233867   4.685   6.181   2.406 -0.1272  0.4422 -0.1538
 4078TIP3   OH233868   2.859   6.035   8.217 -0.0435 -0.0038 -0.1177
 4078TIP3    H133869   2.770   6.058   8.243 -0.4948 -1.7968  0.1091
 4078TIP3    H233870   2.866   5.941   8.236  1.7152 -0.0278 -0.6500
 4079TIP3   OH233871   3.604   2.880   1.888  0.5510 -0.2295  0.2968
 4079TIP3    H133872   3.566   2.914   1.970 -0.1717  1.1840 -0.5857
 4079TIP3    H233873   3.596   2.785   1.896 -2.6942 -0.0709  0.4700
 4080TIP3   OH233874   5.770   1.823   2.454 -0.0523 -0.0770 -0.0505
 4080TIP3    H133875   5.697   1.763   2.445  0.2903 -0.6184  0.7128
 4080TIP3    H233876   5.731   1.910   2.444 -0.7981 -0.3581  0.3565
 4081TIP3   OH233877   6.644   2.632   8.267 -0.5767  0.2497  0.3921
 4081TIP3    H133878   6.609   2.557   8.219 -1.9758  0.7167  0.6583
 4081TIP3    H233879   6.578   2.651   8.334  0.2961  1.0134  1.0677
 4082TIP3   OH233880   3.537   2.037   1.406  0.7563 -0.3617  0.2781
 4082TIP3    H133881   3.553   1.952   1.447 -1.1132 -0.3436  1.1645
 4082TIP3    H233882   3.570   2.101   1.469 -1.4047 -0.3631  1.5345
 4083TIP3   OH233883   4.940   5.116   0.947  0.0215  0.1297  0.8199
 4083TIP3    H133884   4.959   5.022   0.954  0.6357  0.3002  1.6290
 4083TIP3    H233885   5.021   5.159   0.976  0.1063  0.9210 -0.4980
 4084TIP3   OH233886   0.396   6.407   8.667  0.2203  0.2194  0.6117
 4084TIP3    H133887   0.490   6.387   8.665 -0.1006 -1.3395 -0.0260
 4084TIP3    H233888   0.367   6.395   8.577 -0.6269  0.5585  0.8359
 4085TIP3   OH233889   5.019   2.693   1.171 -0.4085 -0.2788 -0.3674
 4085TIP3    H133890   4.976   2.699   1.256 -0.4979 -3.4605 -0.0913
 4085TIP3    H233891   5.013   2.782   1.135 -1.0927  0.9754  2.5538
 4086TIP3   OH233892   3.478   5.185   7.538  0.1046  0.6059 -0.2140
 4086TIP3    H133893   3.565   5.224   7.537  0.5980 -0.4270 -2.0292
 4086TIP3    H233894   3.430   5.232   7.471 -0.1438 -0.0468 -0.5034
 4087TIP3   OH233895   1.685   6.426   0.775  0.3342  0.1469 -0.2494
 4087TIP3    H133896   1.653   6.361   0.711 -0.0478 -2.5016  2.3958
 4087TIP3    H233897   1.779   6.431   0.760  0.2528 -0.4414 -1.0071
 4088TIP3   OH233898   1.492   5.672   6.702  0.5208  0.3802 -0.1206
 4088TIP3    H133899   1.401   5.665   6.731  0.5002 -1.5919 -0.4981
 4088TIP3    H233900   1.493   5.747   6.643 -0.8569  0.4437 -0.0880
 4089TIP3   OH233901   1.457   3.016   8.076  0.4550 -0.0742  0.4457
 4089TIP3    H133902   1.462   2.943   8.014 -0.9530  0.6262 -0.5466
 4089TIP3    H233903   1.542   3.015   8.120  0.0030 -3.1742  1.4940
 4090TIP3   OH233904   4.017   6.489   1.407  0.8270 -0.2953  0.3423
 4090TIP3    H133905   3.946   6.433   1.437  1.1377 -1.5239 -1.0745
 4090TIP3    H233906   4.044   6.451   1.323  3.2909 -0.0028  0.9197
 4091TIP3   OH233907   3.836   5.022   7.163  0.0875  0.0574 -0.5350
 4091TIP3    H133908   3.783   5.072   7.225 -0.8774  0.5400 -1.6999
 4091TIP3    H233909   3.772   4.976   7.108  0.9269 -0.8181 -0.8170
 4092TIP3   OH233910   4.145   4.016   8.056 -0.5000 -0.2515 -0.4499
 4092TIP3    H133911   4.238   4.033   8.070 -0.3278 -0.1548 -1.6133
 4092TIP3    H233912   4.128   3.933   8.100  0.0737 -0.1554 -0.0370
 4093TIP3   OH233913   6.575   4.262   2.295 -0.0243 -0.4059  0.0714
 4093TIP3    H133914   6.596   4.217   2.376  2.3956 -1.4382 -1.0273
 4093TIP3    H233915   6.532   4.343   2.322  1.6015 -0.2390  2.4171
 4094TIP3   OH233916   0.402   6.221   7.065 -0.8825 -0.5184  0.7021
 4094TIP3    H133917   0.382   6.285   7.134  1.1231  0.1290  0.7366
 4094TIP3    H233918   0.346   6.246   6.992 -0.5054  0.9595  0.8962
 4095TIP3   OH233919   6.260   2.900   0.570  0.4281 -0.2090 -0.2569
 4095TIP3    H133920   6.266   2.806   0.552  0.1728 -0.5521  1.2929
 4095TIP3    H233921   6.351   2.931   0.566  0.7859 -0.9551  1.2025
 4096TIP3   OH233922   4.456   1.474   0.330 -0.0287  0.5983 -0.1340
 4096TIP3    H133923   4.418   1.501   0.247 -0.9852 -0.4098 -0.0494
 4096TIP3    H233924   4.539   1.432   0.306 -0.2952  0.3204 -0.5882
 4097TIP3   OH233925   2.261   3.658   7.835  0.3478  0.1435 -0.1050
 4097TIP3    H133926   2.223   3.689   7.753  0.2795  1.1030  0.2879
 4097TIP3    H233927   2.310   3.580   7.809 -0.5944 -0.2245 -0.8730
 4098TIP3   OH233928   0.418   5.501   1.376 -0.1915 -0.2009  0.0694
 4098TIP3    H133929   0.430   5.409   1.396  0.5412  0.4253  2.9815
 4098TIP3    H233930   0.506   5.534   1.360 -0.2386  0.2747  0.7113
 4099TIP3   OH233931   2.095   3.230   8.309  0.1623 -0.2489 -0.1823
 4099TIP3    H133932   2.144   3.249   8.229  0.2638  0.5300  0.0539
 4099TIP3    H233933   2.120   3.299   8.370  0.6755 -1.2698  0.8028
 4100TIP3   OH233934   6.101   4.260   1.325  0.0207 -0.0130 -0.1952
 4100TIP3    H133935   6.127   4.295   1.410  1.3661  0.1676 -0.6605
 4100TIP3    H233936   6.006   4.259   1.328  0.0077  1.4652  0.7236
 4101TIP3   OH233937   1.734   0.386   0.520 -0.6406  0.5694  0.5131
 4101TIP3    H133938   1.687   0.440   0.456 -1.0246  1.0473  1.1868
 4101TIP3    H233939   1.826   0.401   0.501 -0.7480  0.4492 -0.1386
 4102TIP3   OH233940   4.347   2.779   1.206 -0.0810 -0.0434  0.3827
 4102TIP3    H133941   4.442   2.790   1.198 -0.4157  2.6292 -1.0904
 4102TIP3    H233942   4.322   2.729   1.127 -0.1711  1.9028 -0.8889
 4103TIP3   OH233943   4.746   1.824   8.205 -0.0598 -0.1417 -0.5245
 4103TIP3    H133944   4.736   1.729   8.213 -1.0766 -0.0419 -0.5194
 4103TIP3    H233945   4.749   1.856   8.295  0.5333 -0.1840 -0.5234
 4104TIP3   OH233946   5.358   2.051   7.589  0.4980 -0.5380  0.1179
 4104TIP3    H133947   5.431   2.102   7.624 -1.5731  1.7508  1.4163
 4104TIP3    H233948   5.360   2.069   7.494  0.8213  0.6421  0.3306
 4105TIP3   OH233949   6.001   5.470   8.846  0.0647 -0.5184  0.1116
 4105TIP3    H133950   6.054   5.545   8.818  0.2457 -0.7555 -0.1958
 4105TIP3    H233951   5.952   5.502   8.922  0.2709 -0.1432  0.0909
 4106TIP3   OH233952   2.914   0.645   6.576 -0.0427  0.7868 -0.3436
 4106TIP3    H133953   2.955   0.731   6.563 -0.3357  0.9220 -0.3871
 4106TIP3    H233954   2.839   0.663   6.633 -0.2236  0.5930 -0.5180
 4107TIP3   OH233955   2.556   1.687   8.695  0.7221  0.4459  0.4409
 4107TIP3    H133956   2.566   1.662   8.603 -1.0028  1.5247 -0.0923
 4107TIP3    H233957   2.555   1.603   8.742  0.6333 -0.1866 -0.6364
 4108TIP3   OH233958   3.540   5.397   0.029  0.5682  0.1264 -0.3040
 4108TIP3    H133959   3.595   5.321   0.045 -0.6800 -0.9121 -0.7757
 4108TIP3    H233960   3.593   5.472   0.057  1.8759 -0.8946  0.0221
 4109TIP3   OH233961   4.684   1.866   7.832  0.4744  0.1848 -0.0835
 4109TIP3    H133962   4.764   1.814   7.827  0.4321 -0.5970  3.8192
 4109TIP3    H233963   4.713   1.957   7.824  1.5901 -0.1544 -0.0033
 4110TIP3   OH233964   6.078   0.411   8.454 -0.2283  0.2949 -0.6267
 4110TIP3    H133965   6.045   0.349   8.389  1.6838  1.2641 -2.6668
 4110TIP3    H233966   6.010   0.479   8.459 -0.2899  0.3580 -1.8921
 4111TIP3   OH233967   2.257   5.445   6.400 -0.3201  0.4060 -0.4650
 4111TIP3    H133968   2.269   5.353   6.424  0.0720  0.5576 -0.0719
 4111TIP3    H233969   2.346   5.480   6.393 -0.4658  0.7176 -0.7645
 4112TIP3   OH233970   6.636   6.079   1.462 -0.0935  0.3772  0.2213
 4112TIP3    H133971   6.618   6.114   1.375  0.7286 -0.3262 -0.2545
 4112TIP3    H233972   6.651   6.156   1.516  0.6539  0.8005 -0.5599
 4113TIP3   OH233973   4.678   3.359   8.954  0.1003 -0.1288  0.2140
 4113TIP3    H133974   4.604   3.326   9.004 -0.4930 -1.4986 -1.4625
 4113TIP3    H233975   4.740   3.285   8.952  0.5838  0.2784 -0.1426
 4114TIP3   OH233976   2.004   1.982   8.956  0.4389  0.5149  0.3816
 4114TIP3    H133977   1.991   2.068   8.996  1.4973  0.0032  1.9372
 4114TIP3    H233978   2.069   1.997   8.888 -1.4454  1.4215 -1.3238
 4115TIP3   OH233979   2.977   4.927   7.380 -0.5747  0.5288 -0.2718
 4115TIP3    H133980   2.933   4.865   7.322 -0.1626 -0.2374  0.2175
 4115TIP3    H233981   2.907   4.963   7.435 -0.6999 -0.1382  0.0128
 4116TIP3   OH233982   3.773   3.418   8.074  0.0112  0.5069  0.4714
 4116TIP3    H133983   3.716   3.368   8.015  1.3139 -0.3450 -0.1270
 4116TIP3    H233984   3.802   3.354   8.139  1.4224  0.5330 -0.0929
 4117TIP3   OH233985   5.421   2.516   0.451 -0.5584 -0.1421 -0.0885
 4117TIP3    H133986   5.509   2.552   0.464 -0.6120  0.0906 -0.3707
 4117TIP3    H233987   5.435   2.422   0.443 -0.1923  0.0018 -1.3828
 4118TIP3   OH233988   0.936   6.416   0.934 -0.1351  0.4101 -0.0633
 4118TIP3    H133989   0.916   6.501   0.897 -1.3909 -0.2719 -1.0318
 4118TIP3    H233990   0.956   6.360   0.859 -0.2129 -0.3793  0.4827
 4119TIP3   OH233991   0.820   6.079   0.209  0.3222  0.5874 -0.2412
 4119TIP3    H133992   0.805   6.017   0.138 -0.0037  0.2492  0.1162
 4119TIP3    H233993   0.760   6.151   0.192  0.2957  0.5393 -0.3488
 4120TIP3   OH233994   3.322   0.434   8.386 -0.6953 -0.1166  0.4590
 4120TIP3    H133995   3.227   0.440   8.371 -0.6876  0.0936  0.4874
 4120TIP3    H233996   3.360   0.425   8.299 -0.7398 -0.1767  0.4454
 4121TIP3   OH233997   3.900   5.014   1.617  0.6466  0.4268 -0.2897
 4121TIP3    H133998   3.882   5.102   1.650  0.7325  0.2201  0.3354
 4121TIP3    H233999   3.827   4.961   1.650  1.1992  0.0358  0.3444
 4122TIP3   OH234000   4.647   3.412   0.863  0.1252  0.5503 -0.2200
 4122TIP3    H134001   4.632   3.480   0.929  3.4798  0.2678  1.0685
 4122TIP3    H234002   4.693   3.342   0.911  0.3351 -0.8481 -2.3222
 4123TIP3   OH234003   6.388   2.221   8.292 -0.2381  0.0370  0.2622
 4123TIP3    H134004   6.311   2.179   8.255 -0.0836  0.0791 -0.1119
 4123TIP3    H234005   6.423   2.274   8.221  0.1517 -0.0024  0.4229
 4124TIP3   OH234006   4.752   3.143   8.439 -0.4260  0.0044  0.2062
 4124TIP3    H134007   4.757   3.228   8.394 -1.3706 -0.5397 -0.9953
 4124TIP3    H234008   4.743   3.165   8.531 -0.3708  1.2039 -0.0541
 4125TIP3   OH234009   6.569   6.245   9.055  0.4291  0.0005 -0.3947
 4125TIP3    H134010   6.657   6.273   9.078  0.1832  0.1296  0.4226
 4125TIP3    H234011   6.528   6.322   9.017  0.7166 -0.1083 -0.9395
 4126TIP3   OH234012   0.967   4.350   7.546 -0.4523  0.0238  0.1809
 4126TIP3    H134013   0.934   4.349   7.456 -3.2574 -1.2088  1.1139
 4126TIP3    H234014   1.017   4.269   7.554  1.4318  1.0429 -0.7438
 4127TIP3   OH234015   5.957   2.648   1.590  0.3717  0.1110 -0.0053
 4127TIP3    H134016   5.883   2.601   1.626  0.4093 -0.2806 -0.4295
 4127TIP3    H234017   5.961   2.730   1.639 -0.3252  0.1216  0.0303
 4128TIP3   OH234018   6.658   6.680   0.998 -0.1556 -0.2645 -0.8188
 4128TIP3    H134019   6.741   6.636   0.981 -1.0135 -1.8067 -1.1921
 4128TIP3    H234020   6.610   6.620   1.055 -1.2439  0.3292 -1.0848
 4129TIP3   OH234021   1.175   5.810   8.213 -0.4175 -0.7992 -0.5227
 4129TIP3    H134022   1.237   5.738   8.209  0.0577 -0.6891  2.4156
 4129TIP3    H234023   1.229   5.888   8.198 -0.1289 -0.8115  0.3972
 4130TIP3   OH234024   0.579   3.598   0.425 -0.6938  0.9087 -0.2589
 4130TIP3    H134025   0.564   3.523   0.483  1.6070 -0.1960 -0.9836
 4130TIP3    H234026   0.584   3.674   0.484  0.0543  0.0305  0.8370
 4131TIP3   OH234027   3.614   2.486   7.130  0.0449 -0.3600 -0.0805
 4131TIP3    H134028   3.649   2.398   7.120 -1.4252 -1.0082  0.2739
 4131TIP3    H234029   3.596   2.495   7.223  0.0011  0.2385 -0.1404
 4132TIP3   OH234030   3.076   2.725   0.674  0.5871 -0.1200  0.6966
 4132TIP3    H134031   3.061   2.684   0.759 -2.8020  0.1025  0.3233
 4132TIP3    H234032   3.075   2.652   0.612 -0.3921  0.0107  0.5424
 4133TIP3   OH234033   3.724   0.632   0.527  0.3596  0.3651 -0.1556
 4133TIP3    H134034   3.683   0.704   0.574  2.0576  0.4670  1.3196
 4133TIP3    H234035   3.818   0.652   0.530  0.6557 -0.4144 -2.3427
 4134TIP3   OH234036   3.934   1.863   7.348 -0.5958 -0.5426 -0.6935
 4134TIP3    H134037   3.977   1.805   7.411 -0.1105  1.6056  1.1040
 4134TIP3    H234038   3.983   1.851   7.267  2.9328  1.0156  0.9791
 4135TIP3   OH234039   3.620   3.427   1.441  0.0912 -0.1319 -0.0757
 4135TIP3    H134040   3.535   3.386   1.425 -0.1788 -0.3147  1.7224
 4135TIP3    H234041   3.668   3.364   1.493  0.0542  1.3561  1.8659
 4136TIP3   OH234042   0.517   0.356   6.929 -0.2978 -0.4941 -0.4535
 4136TIP3    H134043   0.438   0.348   6.876 -1.3560  2.7577  0.3847
 4136TIP3    H234044   0.584   0.308   6.881 -1.6742  0.5839 -3.6988
 4137TIP3   OH234045   5.626   0.296   2.048 -0.3710 -0.1399  0.5169
 4137TIP3    H134046   5.700   0.293   1.988  0.2104 -0.0799  1.2079
 4137TIP3    H234047   5.661   0.339   2.127 -1.0628 -0.3605  0.9555
 4138TIP3   OH234048   4.765   3.814   0.746  0.0816  0.1841 -0.1296
 4138TIP3    H134049   4.767   3.906   0.774  0.3466 -0.0818  0.7389
 4138TIP3    H234050   4.761   3.764   0.827 -0.3581 -0.5699 -0.6081
 4139TIP3   OH234051   2.049   5.053   7.300  0.0700  0.2655 -0.1922
 4139TIP3    H134052   2.003   5.124   7.345 -0.5391 -0.9836  1.2356
 4139TIP3    H234053   1.982   4.987   7.286  1.0351 -0.8495  0.3215
 4140TIP3   OH234054   0.862   0.745   8.296 -0.2706  0.0860  0.0807
 4140TIP3    H134055   0.915   0.742   8.375 -1.4238  2.3887  1.0310
 4140TIP3    H234056   0.883   0.829   8.256 -1.3028 -0.1035 -0.9147
 4141TIP3   OH234057   6.256   0.741   1.480 -0.4632 -0.2153  0.0882
 4141TIP3    H134058   6.334   0.706   1.437 -0.4531 -0.9927  0.7240
 4141TIP3    H234059   6.184   0.694   1.439 -0.4496 -1.0042  0.9507
 4142TIP3   OH234060   1.554   3.221   0.738 -0.3460  0.1473 -0.3599
 4142TIP3    H134061   1.574   3.139   0.784  0.1154 -0.0907 -0.9680
 4142TIP3    H234062   1.636   3.244   0.694 -0.7632  0.3914 -1.0197
 4143TIP3   OH234063   0.581   0.211   0.496 -0.4921 -0.1806 -0.1212
 4143TIP3    H134064   0.628   0.167   0.424  0.0150  0.8250 -0.4304
 4143TIP3    H234065   0.628   0.185   0.575  0.1538  0.2485 -0.3585
 4144TIP3   OH234066   4.636   4.350   1.172  0.4773 -0.7109  0.7348
 4144TIP3    H134067   4.625   4.267   1.218 -0.6870 -0.4127  1.0057
 4144TIP3    H234068   4.553   4.396   1.184  0.6672 -0.0240 -0.4569
 4145TIP3   OH234069   4.115   2.079   6.273 -0.1485 -0.4612 -0.2962
 4145TIP3    H134070   4.135   2.161   6.318 -1.6356 -1.0802  1.6223
 4145TIP3    H234071   4.024   2.089   6.244 -0.6070 -1.6855  0.6484
 4146TIP3   OH234072   2.813   4.274   0.345 -0.7989  0.1248 -0.0198
 4146TIP3    H134073   2.721   4.298   0.346 -0.1453  2.9832  1.6284
 4146TIP3    H234074   2.853   4.336   0.283  0.3319  0.4122  0.9690
 4147TIP3   OH234075   3.900   4.376   7.115  0.3389  0.0374 -0.5473
 4147TIP3    H134076   3.979   4.400   7.067 -0.8662 -0.0835 -2.7457
 4147TIP3    H234077   3.929   4.310   7.178  1.8065 -0.9846 -2.1971
 4148TIP3   OH234078   3.495   2.612   0.459  0.1971 -0.2601  0.1104
 4148TIP3    H134079   3.431   2.628   0.390  0.3777 -1.5406 -0.3956
 4148TIP3    H234080   3.544   2.536   0.428  1.9402  0.6616  0.5059
 4149TIP3   OH234081   1.006   5.657   7.497  0.2765  0.2576 -0.5397
 4149TIP3    H134082   1.001   5.563   7.477 -1.9970  0.2068  0.0645
 4149TIP3    H234083   1.074   5.690   7.438  0.5794 -1.6106 -1.3190
 4150TIP3   OH234084   2.923   2.836   8.770 -0.3209 -0.1432 -0.0088
 4150TIP3    H134085   3.010   2.816   8.805  0.0461 -0.4758 -1.0595
 4150TIP3    H234086   2.869   2.852   8.847  0.4546 -0.8495  0.7044
 4151TIP3   OH234087   4.901   6.621   6.854 -0.2190 -0.0009  0.5660
 4151TIP3    H134088   4.879   6.567   6.778 -2.0121 -1.1339  1.8189
 4151TIP3    H234089   4.900   6.711   6.821 -0.8487 -0.4717 -0.7625
 4152TIP3   OH234090   1.866   1.119   1.177  0.0282  0.1883 -0.3192
 4152TIP3    H134091   1.793   1.132   1.117 -0.0826  1.5000  0.0717
 4152TIP3    H234092   1.847   1.177   1.251  0.9062 -0.2831  0.2956
 4153TIP3   OH234093   3.758   3.386   5.791  0.6068  0.2836 -0.3832
 4153TIP3    H134094   3.765   3.373   5.696  0.7756 -0.6460 -0.2610
 4153TIP3    H234095   3.687   3.327   5.817  2.0247 -1.1951  0.3514
 4154TIP3   OH234096   1.280   0.188   7.422  0.4575  0.8920  0.6169
 4154TIP3    H134097   1.359   0.193   7.475  1.6963 -0.0899 -1.0327
 4154TIP3    H234098   1.298   0.119   7.359 -2.1777 -0.1230  0.8639
 4155TIP3   OH234099   3.211   6.734   8.630  0.1267 -0.0358  0.5687
 4155TIP3    H134100   3.239   6.753   8.541  1.1637 -3.1478  0.1245
 4155TIP3    H234101   3.284   6.763   8.685  2.0202 -2.9808 -0.1439
 4156TIP3   OH234102   2.994   6.149   7.386  0.2320 -0.6340  0.1032
 4156TIP3    H134103   2.933   6.084   7.352  1.3461 -1.4944 -0.3154
 4156TIP3    H234104   3.037   6.184   7.308 -0.2015  0.4618  0.3418
 4157TIP3   OH234105   5.105   1.667   6.851 -0.3824  0.1004 -0.1246
 4157TIP3    H134106   5.145   1.643   6.767  1.1867 -1.9019  1.1265
 4157TIP3    H234107   5.034   1.726   6.827 -1.5840 -2.3075 -3.0865
 4158TIP3   OH234108   1.335   1.710   1.252 -0.0892 -0.1429 -0.0070
 4158TIP3    H134109   1.331   1.633   1.195  1.8912  0.2695 -0.7666
 4158TIP3    H234110   1.368   1.780   1.195 -2.3528  1.4672  0.5071
 4159TIP3   OH234111   6.718   0.047   1.578 -0.1514 -0.6500 -0.5554
 4159TIP3    H134112   6.742   0.105   1.506  3.8539 -0.4425  0.6855
 4159TIP3    H234113   6.684   0.106   1.646  2.9106  0.3241  0.3022
 4160TIP3   OH234114   1.104   6.287   8.936  0.5199  0.4177 -0.6404
 4160TIP3    H134115   1.061   6.202   8.947 -0.2229  0.7889 -0.6695
 4160TIP3    H234116   1.123   6.291   8.842  1.2923 -0.0596 -0.5171
 4161TIP3   OH234117   0.191   0.737   0.052  0.1646 -0.4559 -0.0815
 4161TIP3    H134118   0.217   0.821   0.016 -0.2479 -1.3102 -2.5667
 4161TIP3    H234119   0.273   0.691   0.070  0.4926 -1.2634 -3.1997
 4162TIP3   OH234120   5.900   5.228   0.039 -0.5008  0.1112 -0.0434
 4162TIP3    H134121   5.954   5.262   0.110 -1.4041 -0.7211  1.0817
 4162TIP3    H234122   5.899   5.134   0.053  0.8285 -0.3009 -2.2961
 4163TIP3   OH234123   0.148   2.825   8.332  0.6345 -0.0927 -0.2569
 4163TIP3    H134124   0.100   2.858   8.408 -0.7933 -0.1646 -1.0748
 4163TIP3    H234125   0.202   2.753   8.366 -1.1999 -1.2068  0.4486
 4164TIP3   OH234126   0.522   3.243   7.865  0.3386  0.1673 -0.7417
 4164TIP3    H134127   0.555   3.236   7.775 -0.0355  1.4008 -0.9906
 4164TIP3    H234128   0.440   3.193   7.864  0.8683 -0.7257 -0.7904
 4165TIP3   OH234129   1.802   0.982   8.149  0.7536  0.3574 -0.1818
 4165TIP3    H134130   1.828   0.895   8.179 -1.1702 -0.4106 -0.6255
 4165TIP3    H234131   1.879   1.015   8.102  0.9417 -1.8543 -1.5650
 4166TIP3   OH234132   2.722   3.297   1.756 -0.6533 -0.3436 -0.0208
 4166TIP3    H134133   2.809   3.295   1.797 -1.3557  1.4519  1.7059
 4166TIP3    H234134   2.692   3.206   1.760 -0.0335 -0.5123  2.0978
 4167TIP3   OH234135   6.725   3.419   9.108 -0.3599  0.4656 -0.1959
 4167TIP3    H134136   6.784   3.353   9.071 -0.8204 -0.5524  0.7935
 4167TIP3    H234137   6.691   3.378   9.188 -0.0866  2.2168  0.8683
 4168TIP3   OH234138   4.388   2.703   1.485  0.1871 -0.0250  0.4554
 4168TIP3    H134139   4.419   2.792   1.469  0.8372 -0.1759  0.8569
 4168TIP3    H234140   4.308   2.696   1.432 -0.4682  1.1344  1.2514
 4169TIP3   OH234141   4.127   5.519   1.041  0.2999 -0.2626  0.6061
 4169TIP3    H134142   4.044   5.536   0.996 -0.3436  0.0970  1.8683
 4169TIP3    H234143   4.112   5.439   1.091  0.4274  0.2573  1.4945
 4170TIP3   OH234144   5.330   0.339   0.715 -0.0541 -0.6178 -0.7113
 4170TIP3    H134145   5.322   0.247   0.687  0.0722 -1.2391  1.1822
 4170TIP3    H234146   5.417   0.344   0.754 -0.8064 -0.2250  0.9929
 4171TIP3   OH234147   4.356   1.778   1.685 -0.5668 -0.1072 -0.1197
 4171TIP3    H134148   4.437   1.766   1.635 -0.5711  0.6747 -0.3219
 4171TIP3    H234149   4.379   1.753   1.774 -0.0793  0.1956 -0.1616
 4172TIP3   OH234150   6.272   0.146   0.244  0.1027  0.0795 -0.4529
 4172TIP3    H134151   6.238   0.153   0.156 -1.6837  1.8360  0.3124
 4172TIP3    H234152   6.271   0.235   0.278  2.5846 -0.2440  0.7333
 4173TIP3   OH234153   5.716   1.645   7.105  0.5002 -0.5917  0.3777
 4173TIP3    H134154   5.641   1.686   7.149  0.6312  1.7343 -1.3545
 4173TIP3    H234155   5.705   1.668   7.013  3.1878 -0.3821  0.0259
 4174TIP3   OH234156   2.515   6.437   1.056  0.9556 -0.4158 -0.1386
 4174TIP3    H134157   2.495   6.444   0.962  0.3335  1.7261  0.0879
 4174TIP3    H234158   2.429   6.425   1.097  1.0088  0.4579  0.2564
 4175TIP3   OH234159   2.368   3.649   0.073 -0.0852  0.5037 -0.1922
 4175TIP3    H134160   2.369   3.553   0.080  2.9578  0.5728  2.7469
 4175TIP3    H234161   2.444   3.669   0.018 -1.1964  1.2597 -1.4911
 4176TIP3   OH234162   5.935   3.349   2.158 -0.0889  0.3569  0.3515
 4176TIP3    H134163   6.015   3.395   2.133 -0.5759  0.6676 -0.7013
 4176TIP3    H234164   5.866   3.415   2.152 -0.7183 -0.3618 -0.6695
 4177TIP3   OH234165   6.266   5.105   7.826  0.8691  0.1200 -0.8355
 4177TIP3    H134166   6.274   5.046   7.751 -0.0126  0.0602 -0.8895
 4177TIP3    H234167   6.306   5.056   7.898  2.2459  0.4073 -1.3654
 4178TIP3   OH234168   5.621   5.702   2.064 -0.1930  0.3854 -0.4303
 4178TIP3    H134169   5.604   5.683   2.157  0.3094  0.7760 -0.2494
 4178TIP3    H234170   5.715   5.723   2.062 -0.6583  2.7919 -0.6021
 4179TIP3   OH234171   5.584   6.195   8.612  0.1896 -0.1396 -0.2319
 4179TIP3    H134172   5.620   6.175   8.526  0.2194 -2.3360  0.2478
 4179TIP3    H234173   5.653   6.247   8.654  0.2428  0.8199 -1.4249
 4180TIP3   OH234174   5.589   5.184   0.040  0.3551 -0.0500 -0.5293
 4180TIP3    H134175   5.631   5.214  -0.041  0.4545 -0.7604 -0.7507
 4180TIP3    H234176   5.636   5.104   0.062 -0.2936 -0.3638 -0.2828
 4181TIP3   OH234177   4.382   0.937   0.552 -0.2261  0.4332  0.6818
 4181TIP3    H134178   4.433   0.891   0.486  0.1412  1.5243  0.1867
 4181TIP3    H234179   4.448   0.984   0.605 -0.5055 -0.4218  1.8354
 4182TIP3   OH234180   2.888   3.829   8.518 -0.0028 -0.3802  0.0124
 4182TIP3    H134181   2.971   3.864   8.551  0.0108 -1.9843  1.8092
 4182TIP3    H234182   2.825   3.900   8.532  0.5185 -0.1477  1.2609
 4183TIP3   OH234183   0.252   1.538   0.414 -0.4816 -0.2350 -0.1662
 4183TIP3    H134184   0.330   1.492   0.384  0.2414  0.4007  0.6822
 4183TIP3    H234185   0.255   1.623   0.371  0.2320  0.4436  1.1553
 4184TIP3   OH234186   4.357   2.895   1.935  0.1179  0.4938  0.4403
 4184TIP3    H134187   4.372   2.964   1.999 -1.4440  1.2758 -0.0093
 4184TIP3    H234188   4.324   2.940   1.857 -0.5931 -0.7145  0.0112
 4185TIP3   OH234189   0.779   1.888   0.910 -0.2366  0.3281  0.1897
 4185TIP3    H134190   0.788   1.927   0.823 -0.3110 -0.6924 -0.2900
 4185TIP3    H234191   0.695   1.843   0.907 -0.3436  0.4846  0.8766
 4186TIP3   OH234192   3.943   5.419   7.188  0.3934  0.1373 -0.1940
 4186TIP3    H134193   3.873   5.473   7.225  1.1366  0.7592  0.3395
 4186TIP3    H234194   3.949   5.344   7.247 -0.9971 -0.8484 -1.2282
 4187TIP3   OH234195   1.091   5.086   8.450 -0.0531  0.2021 -0.3469
 4187TIP3    H134196   1.112   5.073   8.358 -1.0103 -0.7080 -0.4465
 4187TIP3    H234197   1.092   4.998   8.488 -0.9226  0.4377  0.2353
 4188TIP3   OH234198   2.243   0.317   0.548 -0.3010  0.5707 -0.8513
 4188TIP3    H134199   2.332   0.310   0.582 -0.7548 -2.7455 -0.0100
 4188TIP3    H234200   2.254   0.328   0.453  1.1432 -2.5458 -1.1724
 4189TIP3   OH234201   5.737   0.912   0.069 -0.0804  0.0622  0.2635
 4189TIP3    H134202   5.790   0.857   0.127 -0.6863 -1.1802 -0.3367
 4189TIP3    H234203   5.780   0.906  -0.016  0.6726  1.6983  0.4780
 4190TIP3   OH234204   4.255   2.008   7.903  0.3255 -0.3747  0.1649
 4190TIP3    H134205   4.249   2.031   7.995 -0.1748  1.2374 -0.2355
 4190TIP3    H234206   4.330   2.056   7.870  2.4614 -3.3154  0.3132
 4191TIP3   OH234207   6.507   6.421   8.645 -0.2130 -0.2716  0.5080
 4191TIP3    H134208   6.569   6.393   8.713  0.1210  0.4018  0.4910
 4191TIP3    H234209   6.555   6.408   8.563  0.1379  0.7681  0.5246
 4192TIP3   OH234210   4.617   2.724   7.301 -0.1335 -0.3264 -0.0787
 4192TIP3    H134211   4.608   2.804   7.249 -1.2043 -0.6240 -0.3804
 4192TIP3    H234212   4.623   2.654   7.236  1.0960 -0.4795  0.1790
 4193TIP3   OH234213   5.539   2.585   0.792 -0.0697  0.1052 -0.3388
 4193TIP3    H134214   5.569   2.630   0.713 -0.3764 -0.1589 -0.6063
 4193TIP3    H234215   5.543   2.492   0.770  1.5647 -0.0861  0.5465
 4194TIP3   OH234216   1.972   1.648   6.914  0.3250 -0.0007  0.2332
 4194TIP3    H134217   1.909   1.696   6.860  0.6570 -0.2842 -0.4059
 4194TIP3    H234218   1.992   1.709   6.986  2.2253  1.6597 -1.5641
 4195TIP3   OH234219   0.452   5.920   8.645 -0.1614 -0.0040  0.1746
 4195TIP3    H134220   0.357   5.905   8.648 -0.0074 -1.1452  2.7986
 4195TIP3    H234221   0.490   5.838   8.679  1.6989  0.8858  0.3761
 4196TIP3   OH234222   4.535   2.117   8.006 -0.4179  0.0979  0.0640
 4196TIP3    H134223   4.527   2.077   8.092  0.2701  0.2172  0.1826
 4196TIP3    H234224   4.594   2.060   7.958  1.8760  1.7704  0.7464
 4197TIP3   OH234225   1.332   3.612   0.157  0.4816  0.6218 -0.4082
 4197TIP3    H134226   1.293   3.527   0.135  0.9352  0.6573 -1.3828
 4197TIP3    H234227   1.300   3.631   0.245  1.2800 -1.1006  0.2997
 4198TIP3   OH234228   3.037   3.750   8.837  0.1195 -0.1012 -0.1559
 4198TIP3    H134229   3.071   3.749   8.926  1.7854  0.0742 -0.7536
 4198TIP3    H234230   2.993   3.666   8.828 -1.7705  0.6474  1.4168
 4199TIP3   OH234231   0.057   2.437   7.420 -0.5217  0.1379  0.1015
 4199TIP3    H134232  -0.030   2.444   7.460 -0.6450 -1.1540  0.0888
 4199TIP3    H234233   0.073   2.343   7.414  0.0784  0.3183 -1.6331
 4200TIP3   OH234234   2.654   3.777   7.400 -0.5248 -0.0275  0.2925
 4200TIP3    H134235   2.655   3.688   7.366 -0.2977  0.3288 -0.6657
 4200TIP3    H234236   2.607   3.771   7.483 -0.5061 -1.0349  0.2354
 4201TIP3   OH234237   1.043   0.897   8.775 -0.2419  0.2406 -0.2104
 4201TIP3    H134238   1.034   0.847   8.855 -1.2296  0.4109 -0.1954
 4201TIP3    H234239   1.126   0.944   8.784  0.8488 -1.5627 -0.3473
 4202TIP3   OH234240   0.695   3.717   8.717 -0.5980 -0.2795  0.2894
 4202TIP3    H134241   0.698   3.625   8.691  0.1274 -0.1255 -0.2017
 4202TIP3    H234242   0.641   3.718   8.796  0.2071 -1.2662  0.8750
 4203TIP3   OH234243   4.229   5.797   0.785  0.0919 -0.0992  0.1621
 4203TIP3    H134244   4.138   5.799   0.754 -0.0578 -1.6113  0.4361
 4203TIP3    H234245   4.252   5.704   0.787  1.4575  0.2220  0.6678
 4204TIP3   OH234246   2.579   5.019   1.269 -0.7497 -0.0199 -0.4855
 4204TIP3    H134247   2.504   4.991   1.216 -1.3796 -0.1304  0.4290
 4204TIP3    H234248   2.582   4.955   1.341 -0.7280  0.8747  0.3249
 4205TIP3   OH234249   2.479   2.892   7.910  0.0883  0.0322  0.1501
 4205TIP3    H134250   2.518   2.875   7.824 -2.5292  1.0531 -1.3641
 4205TIP3    H234251   2.548   2.872   7.972  1.3886 -3.1242 -2.0395
 4206TIP3   OH234252   5.020   4.965   0.457 -0.0699  0.2913  0.1099
 4206TIP3    H134253   5.030   5.052   0.419 -0.5350 -0.0365 -0.7992
 4206TIP3    H234254   4.935   4.934   0.425  0.4435 -0.8189 -0.2532
 4207TIP3   OH234255   4.776   1.086   2.176  0.0707 -0.3907 -0.2312
 4207TIP3    H134256   4.700   1.033   2.202  0.9836 -3.3095 -2.8221
 4207TIP3    H234257   4.852   1.031   2.199  1.2928  1.3021 -0.0486
 4208TIP3   OH234258   2.731   3.470   0.509 -0.3619 -0.1637 -0.3897
 4208TIP3    H134259   2.684   3.553   0.501 -2.2054 -1.2074 -0.8879
 4208TIP3    H234260   2.675   3.415   0.563  1.0561 -0.9585  0.3381
 4209TIP3   OH234261   4.670   6.712   7.972 -0.4960 -0.4156 -0.2402
 4209TIP3    H134262   4.680   6.718   7.877 -0.2639 -1.2536 -0.2715
 4209TIP3    H234263   4.668   6.619   7.991  0.1550 -0.2673  0.6541
 4210TIP3   OH234264   4.829   2.739   2.022  0.2649 -0.0665  0.8312
 4210TIP3    H134265   4.914   2.746   2.066 -0.3768 -0.0831  2.1269
 4210TIP3    H234266   4.848   2.760   1.930  2.1710 -2.8702  0.4515
 4211TIP3   OH234267   5.624   5.627   7.130 -0.4007 -0.1057  0.1796
 4211TIP3    H134268   5.603   5.537   7.106 -1.8544 -0.6039  2.9072
 4211TIP3    H234269   5.715   5.638   7.105 -1.0398 -1.2181 -3.1258
 4212TIP3   OH234270   6.226   4.258   8.810 -0.5139  0.0787 -0.4126
 4212TIP3    H134271   6.198   4.318   8.880 -0.5418 -0.4100 -0.0010
 4212TIP3    H234272   6.218   4.171   8.849 -0.2966 -0.1816 -0.9504
 4213TIP3   OH234273   6.399   0.410   7.956  0.5445  0.2067  0.1284
 4213TIP3    H134274   6.318   0.441   7.915  0.4164 -1.2753 -0.7860
 4213TIP3    H234275   6.393   0.441   8.047 -1.2556 -0.2460  0.1912
 4214TIP3   OH234276   6.449   6.130   0.395  0.0421 -0.3667  0.5467
 4214TIP3    H134277   6.454   6.126   0.299 -0.9633 -0.4760  0.4859
 4214TIP3    H234278   6.357   6.147   0.413  0.4087  0.7385  1.4754
 4215TIP3   OH234279   6.372   2.771   0.976 -0.0409  0.8278  0.2171
 4215TIP3    H134280   6.320   2.810   1.047 -0.9129  1.8725 -0.9362
 4215TIP3    H234281   6.330   2.687   0.959 -0.3753  0.9603  0.3640
 4216TIP3   OH234282   1.047   5.956   1.764 -0.0672 -0.5044 -0.0164
 4216TIP3    H134283   1.096   5.932   1.842  0.0444 -0.4397 -0.0669
 4216TIP3    H234284   1.049   6.052   1.763  0.6342 -0.5211 -0.5508
 4217TIP3   OH234285   2.932   0.171   7.698 -0.4801 -0.7443  0.4143
 4217TIP3    H134286   2.914   0.104   7.633  2.0944 -1.0710 -0.0725
 4217TIP3    H234287   2.934   0.124   7.781 -2.7809 -0.4893  0.6871
 4218TIP3   OH234288   6.139   5.590   2.665 -0.8572  0.0532  0.1022
 4218TIP3    H134289   6.070   5.590   2.732  2.1192  2.0321  3.5051
 4218TIP3    H234290   6.120   5.667   2.612 -1.8984 -0.0794  0.2585
 4219TIP3   OH234291   3.322   2.668   0.250  0.4425 -0.0394 -0.2486
 4219TIP3    H134292   3.244   2.667   0.194 -0.6647  0.1079  1.2188
 4219TIP3    H234293   3.344   2.760   0.259  0.5656 -0.0565 -0.3761
 4220TIP3   OH234294   5.030   0.788   7.046 -0.0909  0.7261 -0.7144
 4220TIP3    H134295   5.008   0.854   6.980  1.0458  0.4125 -1.4225
 4220TIP3    H234296   4.988   0.708   7.014  1.5204  0.2670 -1.7589
 4221TIP3   OH234297   3.776   3.896   0.480 -0.0119 -0.3710 -0.3949
 4221TIP3    H134298   3.760   3.889   0.574  2.0257 -0.6132 -0.0231
 4221TIP3    H234299   3.867   3.926   0.473  0.7334 -2.7469 -2.2856
 4222TIP3   OH234300   2.030   4.973   0.017  0.2479  0.0494  0.0287
 4222TIP3    H134301   2.102   5.008   0.070  1.8048 -1.4056 -1.0003
 4222TIP3    H234302   1.990   5.050  -0.023 -0.7209  1.1556  2.9063
 4223TIP3   OH234303   5.657   0.957   7.816 -0.3504 -0.3263  0.3265
 4223TIP3    H134304   5.565   0.940   7.794 -0.3495 -0.8069  0.6756
 4223TIP3    H234305   5.689   0.873   7.850  0.4109 -0.3482 -0.4336
 4224TIP3   OH234306   1.799   1.342   6.296  0.5137 -0.0368  0.4682
 4224TIP3    H134307   1.728   1.286   6.327  0.0318  0.7801  0.8670
 4224TIP3    H234308   1.849   1.286   6.236  0.0809 -0.9064  0.8944
 4225TIP3   OH234309   2.911   5.661   0.416  0.0365 -0.3992  0.1658
 4225TIP3    H134310   2.818   5.645   0.399 -0.5651  1.5486  1.3406
 4225TIP3    H234311   2.913   5.704   0.502  2.0690 -0.6753  0.3132
 4226TIP3   OH234312   4.935   5.062   1.790 -0.1465  0.4979 -0.1816
 4226TIP3    H134313   4.869   5.066   1.859 -1.3228  1.8484 -1.3194
 4226TIP3    H234314   4.897   5.003   1.724  0.3617  0.2691 -0.2740
 4227TIP3   OH234315   6.266   2.541   7.075 -0.2129 -0.1817 -0.1283
 4227TIP3    H134316   6.176   2.540   7.109  0.5949 -1.3424  2.1922
 4227TIP3    H234317   6.321   2.543   7.153  1.7941 -1.2527 -1.4310
 4228TIP3   OH234318   0.312   3.364   8.843 -0.0108  0.1233  0.0230
 4228TIP3    H134319   0.245   3.304   8.875 -0.5003 -0.9661 -2.8053
 4228TIP3    H234320   0.373   3.309   8.795  1.1663  1.5317 -0.1589
 4229TIP3   OH234321   0.243   1.277   1.524  0.4986  0.5891 -0.5899
 4229TIP3    H134322   0.214   1.187   1.506 -1.4176  0.9071  0.6154
 4229TIP3    H234323   0.286   1.272   1.609 -1.8523  1.1572  0.7141
 4230TIP3   OH234324   2.353   1.654   8.325 -0.2994  0.0614 -0.4087
 4230TIP3    H134325   2.319   1.729   8.374  1.4257  0.8323 -0.3209
 4230TIP3    H234326   2.304   1.579   8.359 -1.4658  1.0134  0.1063
 4231TIP3   OH234327   6.340   1.129   1.617  0.0367 -0.1157 -0.3159
 4231TIP3    H134328   6.430   1.098   1.618 -0.1435 -0.7456  2.0516
 4231TIP3    H234329   6.344   1.215   1.576  1.7736  0.0315  0.0957
 4232TIP3   OH234330   5.417   2.220   0.487  0.0775  0.1271  0.0588
 4232TIP3    H134331   5.456   2.147   0.439  0.5217  0.3525  0.0705
 4232TIP3    H234332   5.336   2.238   0.441  1.5042  1.7591 -2.0008
 4233TIP3   OH234333   5.811   2.228   8.258 -0.0917  0.0692  0.5012
 4233TIP3    H134334   5.847   2.285   8.190 -0.5753 -0.6328 -0.3764
 4233TIP3    H234335   5.756   2.285   8.312  0.0076  0.5677  0.0787
 4234TIP3   OH234336   6.053   0.738   7.965 -0.2710 -0.5252 -0.5231
 4234TIP3    H134337   6.108   0.768   8.037  2.4540 -1.0598 -2.2510
 4234TIP3    H234338   6.008   0.818   7.936  1.1985  0.4026 -0.3618
 4235TIP3   OH234339   3.042   3.831   0.026 -0.3498 -0.1444 -0.0142
 4235TIP3    H134340   3.000   3.823   0.112  1.7564 -0.5507  1.0534
 4235TIP3    H234341   2.969   3.836  -0.036 -1.9580 -1.9659  1.5776
 4236TIP3   OH234342   4.650   5.340   8.019 -0.5683  0.1918 -0.3564
 4236TIP3    H134343   4.677   5.431   8.034  0.1873  0.1651 -1.4134
 4236TIP3    H234344   4.572   5.347   7.963 -0.5737  0.1955 -0.3488
 4237TIP3   OH234345   1.499   5.883   0.422 -0.1115 -0.2907  0.3022
 4237TIP3    H134346   1.574   5.930   0.459  0.4311 -1.9836  1.4821
 4237TIP3    H234347   1.440   5.869   0.497 -0.2840 -1.4028 -0.0212
 4238TIP3   OH234348   6.535   3.943   8.955  0.7258  0.1619 -0.0646
 4238TIP3    H134349   6.570   3.861   8.988 -0.0569 -0.0953  0.1511
 4238TIP3    H234350   6.514   3.925   8.863 -1.4756 -0.5842  0.5155
 4239TIP3   OH234351   5.628   2.375   8.372 -0.0961  0.3707  0.0547
 4239TIP3    H134352   5.624   2.453   8.428  0.9565 -0.5132  1.4314
 4239TIP3    H234353   5.536   2.357   8.350 -0.4874  1.0890  1.0262
 4240TIP3   OH234354   1.867   4.540   1.235 -0.2736  0.1122 -0.1941
 4240TIP3    H134355   1.778   4.509   1.221 -0.7766  1.5820 -0.3694
 4240TIP3    H234356   1.891   4.507   1.322 -0.2500 -1.9001 -0.8982
 4241TIP3   OH234357   1.295   0.420   1.099 -0.2165 -0.2084 -0.3009
 4241TIP3    H134358   1.323   0.462   1.017 -1.4136 -2.6283 -2.0789
 4241TIP3    H234359   1.226   0.476   1.132  0.9145  1.3102 -0.3987
 4242TIP3   OH234360   6.154   2.734   8.133 -0.3108 -0.3646  0.8044
 4242TIP3    H134361   6.153   2.660   8.073  0.2269  0.9867 -0.9807
 4242TIP3    H234362   6.244   2.768   8.126 -1.1957  1.9516 -0.4581
 4243TIP3   OH234363   4.236   0.518   2.379  0.2934  0.1017  0.5961
 4243TIP3    H134364   4.185   0.588   2.418  0.6300  1.6042 -1.5261
 4243TIP3    H234365   4.173   0.448   2.362 -0.4564  0.7119  0.8295
 4244TIP3   OH234366   4.465   3.143   8.137  0.3240 -0.0406 -0.1210
 4244TIP3    H134367   4.498   3.220   8.183  2.0989 -1.4999  1.1935
 4244TIP3    H234368   4.389   3.115   8.189  0.4522  0.0846  0.1364
 4245TIP3   OH234369   5.429   5.456   1.883 -0.4203 -0.1161  0.1362
 4245TIP3    H134370   5.400   5.540   1.920  1.5213  0.6426  0.0971
 4245TIP3    H234371   5.480   5.416   1.954 -1.0534 -1.1215  0.0336
 4246TIP3   OH234372   0.306   0.101   0.763  0.3911 -0.3550  0.2156
 4246TIP3    H134373   0.315   0.170   0.698  2.5833  0.2623  1.0540
 4246TIP3    H234374   0.382   0.044   0.749 -0.4551 -1.6407  0.6323
 4247TIP3   OH234375   5.132   0.321   7.136  0.3070 -0.4844 -0.3175
 4247TIP3    H134376   5.124   0.307   7.041 -0.2854 -1.4596 -0.1365
 4247TIP3    H234377   5.152   0.414   7.145 -0.5767 -0.1750 -1.3493
 4248TIP3   OH234378   5.645   4.432   8.766 -0.0394 -0.1958  0.5643
 4248TIP3    H134379   5.552   4.424   8.745  0.2888 -0.1156 -1.1085
 4248TIP3    H234380   5.682   4.346   8.743  0.4479  0.0786  0.3183
 4249TIP3   OH234381   4.795   0.550   8.820 -0.0786  0.4025 -0.5812
 4249TIP3    H134382   4.780   0.463   8.860  0.0441  1.4116  1.8584
 4249TIP3    H234383   4.886   0.548   8.793  0.1400  0.0029  0.1486
 4250TIP3   OH234384   2.186   3.240   0.697  0.4336  0.5769 -0.6271
 4250TIP3    H134385   2.162   3.330   0.673 -2.0082 -0.2544 -1.5771
 4250TIP3    H234386   2.136   3.222   0.776 -2.1923 -1.1345 -2.5275
 4251TIP3   OH234387   4.322   1.525   0.740 -0.5832  0.0458 -0.3585
 4251TIP3    H134388   4.391   1.498   0.679 -0.3104 -0.5593  0.2081
 4251TIP3    H234389   4.284   1.603   0.700  0.3358  0.3053 -0.7525
 4252TIP3   OH234390   3.992   0.522   1.247  0.5591  0.0950 -0.3745
 4252TIP3    H134391   3.907   0.566   1.253  0.5807  0.1394 -0.3901
 4252TIP3    H234392   3.971   0.430   1.229  0.5215  0.6426 -3.7911
 4253TIP3   OH234393   6.335   1.606   2.575 -0.3014 -0.7481 -0.0312
 4253TIP3    H134394   6.256   1.623   2.625  1.0806 -3.0685  3.3050
 4253TIP3    H234395   6.398   1.671   2.607 -0.3265 -0.0214 -1.3914
 4254TIP3   OH234396   4.407   0.036   1.071 -0.2387 -0.3795  0.0129
 4254TIP3    H134397   4.379  -0.055   1.061 -0.9601 -0.0740 -0.9342
 4254TIP3    H234398   4.372   0.062   1.156 -1.2060 -0.5857 -0.3131
 4255TIP3   OH234399   4.577   5.910   0.068 -0.4290 -0.5233 -0.1180
 4255TIP3    H134400   4.621   5.849   0.128  0.9955 -1.0053 -1.5800
 4255TIP3    H234401   4.645   5.973   0.045 -0.8406 -0.5752 -1.5154
 4256TIP3   OH234402   5.632   5.808   1.287  0.0620  0.5849  0.2574
 4256TIP3    H134403   5.616   5.722   1.249 -0.7432  1.1550 -0.7618
 4256TIP3    H234404   5.570   5.813   1.360  1.4787 -0.4377  1.5822
 4257TIP3   OH234405   4.308   2.399   7.477 -0.2954 -0.3216 -0.1561
 4257TIP3    H134406   4.330   2.485   7.514 -0.8135 -0.0394 -0.4835
 4257TIP3    H234407   4.392   2.354   7.470  0.1271  0.5487 -0.9296
 4258TIP3   OH234408   5.874   5.995   1.092 -0.4869 -0.0656 -0.0845
 4258TIP3    H134409   5.896   6.027   1.004 -0.1339 -0.9375 -0.3244
 4258TIP3    H234410   5.854   5.902   1.079 -3.7076  0.4749  0.2014
 4259TIP3   OH234411   1.939   6.540   1.342 -0.8744  0.1703  0.1033
 4259TIP3    H134412   1.970   6.528   1.432 -0.1779  0.9543 -0.0199
 4259TIP3    H234413   1.847   6.564   1.352 -0.4473  1.6491  0.6939
 4260TIP3   OH234414   6.629   0.913   0.482  0.1344  0.0105  0.2526
 4260TIP3    H134415   6.688   0.871   0.420  0.1670  0.4776 -0.0351
 4260TIP3    H234416   6.574   0.841   0.515  0.6693 -0.3797  0.3138
 4261TIP3   OH234417   3.937   4.915   0.306  1.2918  0.8272  1.2635
 4261TIP3    H134418   3.918   4.822   0.310 -1.1728  1.1513 -0.3700
 4261TIP3    H234419   3.872   4.955   0.364 -0.2879  1.7060 -0.9655
 4262TIP3   OH234420   4.047   2.097   1.519  0.2731  0.0203 -0.4311
 4262TIP3    H134421   4.033   2.144   1.601 -0.7670  0.1794 -0.6867
 4262TIP3    H234422   3.971   2.040   1.511  0.4060 -0.0463 -1.2550
 4263TIP3   OH234423   4.810   5.662   1.291  0.7760  0.0284 -0.2704
 4263TIP3    H134424   4.776   5.573   1.296  0.0519  0.2726 -0.6179
 4263TIP3    H234425   4.733   5.715   1.270  1.3349  0.6334 -0.8145
 4264TIP3   OH234426   6.309   6.366   8.291 -0.0426 -0.0191 -0.2732
 4264TIP3    H134427   6.387   6.419   8.275 -1.0631  1.2338 -1.3406
 4264TIP3    H234428   6.319   6.290   8.233  0.3707  0.1463 -0.4176
 4265TIP3   OH234429   5.755   1.012   0.678 -0.1422  0.5358 -0.4739
 4265TIP3    H134430   5.660   1.024   0.679 -0.0201  1.5356 -0.3126
 4265TIP3    H234431   5.772   0.944   0.743 -0.6448  1.1455  0.3005
 4266TIP3   OH234432   5.460   6.033   0.070 -0.1734  0.0488 -0.4487
 4266TIP3    H134433   5.488   6.110   0.020 -1.0718  0.8051  0.1820
 4266TIP3    H234434   5.364   6.036   0.066 -0.3285  0.7554  2.2053
 4267TIP3   OH234435   2.096   1.570   0.025  0.6547  0.4924 -0.1234
 4267TIP3    H134436   2.078   1.664   0.024 -0.5796  0.2738 -0.5155
 4267TIP3    H234437   2.187   1.562  -0.003  0.0303  1.4426 -2.7427
 4268TIP3   OH234438   2.004   0.506   8.800 -0.2640 -0.7280  0.6125
 4268TIP3    H134439   1.983   0.571   8.733  0.3468  1.3996  2.3945
 4268TIP3    H234440   1.919   0.476   8.832 -0.5501  0.0433  0.5837
 4269TIP3   OH234441   1.303   6.133   1.157  0.3548 -0.3853 -0.1372
 4269TIP3    H134442   1.223   6.130   1.208 -1.1859 -1.3432 -2.4399
 4269TIP3    H234443   1.360   6.194   1.204 -0.6662 -1.6427  2.9646
 4270TIP3   OH234444   3.523   4.301   8.633 -0.0042 -0.3770 -0.0690
 4270TIP3    H134445   3.584   4.278   8.703  0.1436  0.5757  0.1352
 4270TIP3    H234446   3.532   4.230   8.569  0.5934 -0.7500  0.4178
 4271TIP3   OH234447   5.487   2.251   1.994  0.2292 -0.4416  0.4932
 4271TIP3    H134448   5.567   2.235   2.044  1.5658  0.9485 -1.0453
 4271TIP3    H234449   5.486   2.345   1.979 -1.8910 -0.3798  0.7013
 4272TIP3   OH234450   3.050   2.985   0.958  0.2178 -0.5282 -0.2288
 4272TIP3    H134451   3.032   3.019   0.870 -0.8105  2.1029  0.8967
 4272TIP3    H234452   2.980   2.922   0.973 -0.1672 -0.2883 -0.9353
 4273TIP3   OH234453   2.104   2.560   7.852 -0.0423  0.2868 -0.1578
 4273TIP3    H134454   2.156   2.558   7.772 -1.5990  1.7121 -1.2521
 4273TIP3    H234455   2.167   2.539   7.921  1.1449 -2.0213 -1.7945
 4274TIP3   OH234456   4.603   3.160   1.259 -0.4739 -0.2808 -0.0741
 4274TIP3    H134457   4.657   3.093   1.302  0.6147 -1.4439 -3.0011
 4274TIP3    H234458   4.549   3.111   1.197 -2.0375  1.2987 -0.0533
 4275TIP3   OH234459   0.329   2.507   8.955  0.2220  1.2452  0.3904
 4275TIP3    H134460   0.386   2.505   8.879 -1.6263  1.4965 -1.0752
 4275TIP3    H234461   0.275   2.585   8.943 -1.0906  0.4959  1.1849
 4276TIP3   OH234462   4.878   5.821   2.054 -0.8323 -0.7301 -0.1270
 4276TIP3    H134463   4.876   5.768   1.974 -1.3150 -0.6104 -0.1944
 4276TIP3    H234464   4.845   5.764   2.122  0.2195 -1.0536  0.1239
 4277TIP3   OH234465   0.427   5.017   8.771 -0.1161  0.0340 -0.1235
 4277TIP3    H134466   0.410   5.039   8.862  1.0065 -0.0578  0.1226
 4277TIP3    H234467   0.352   4.964   8.745 -1.2987  1.4928  0.2145
 4278TIP3   OH234468   0.092   4.656   0.500 -0.0717  0.0545 -0.0888
 4278TIP3    H134469   0.171   4.609   0.475  0.1563  0.0024  0.6949
 4278TIP3    H234470   0.089   4.733   0.443  1.0099  0.5178  0.4599
 4279TIP3   OH234471   5.459   1.406   0.779  0.8571  0.0469  0.7032
 4279TIP3    H134472   5.364   1.405   0.796  0.5833 -1.4568 -0.6807
 4279TIP3    H234473   5.478   1.318   0.745  2.5141  0.7439 -0.2626
 4280TIP3   OH234474   4.522   5.850   0.684 -0.0892 -0.1138  0.0742
 4280TIP3    H134475   4.596   5.911   0.690  0.0612 -0.3645  1.0310
 4280TIP3    H234476   4.486   5.848   0.773 -0.4203 -1.0116 -0.0690
 4281TIP3   OH234477   6.016   4.361   8.498 -0.1153 -0.0075 -0.0364
 4281TIP3    H134478   5.968   4.287   8.461 -0.5113  0.0727  0.3141
 4281TIP3    H234479   6.061   4.325   8.575 -0.8655  0.2670  0.5404
 4282TIP3   OH234480   1.881   1.099   0.026  0.5199  0.2479  0.4317
 4282TIP3    H134481   1.931   1.062   0.099  0.8832 -0.0590  0.0319
 4282TIP3    H234482   1.794   1.059   0.033  1.2575 -1.6703 -0.7116
 4283TIP3   OH234483   0.133   4.921   0.791  0.3779  0.1801  0.7261
 4283TIP3    H134484   0.144   5.015   0.778  1.5188  0.1015  1.0296
 4283TIP3    H234485   0.049   4.900   0.750  1.0217  0.9772 -1.0973
 4284TIP3   OH234486   5.394   5.417   8.027  0.6291  0.3591 -0.2409
 4284TIP3    H134487   5.367   5.391   8.116 -1.1043 -0.4855 -0.9610
 4284TIP3    H234488   5.474   5.368   8.010 -1.0145 -2.4576 -0.4845
 4285TIP3   OH234489   6.702   2.496   1.233  0.3868 -0.3140  0.1303
 4285TIP3    H134490   6.625   2.510   1.179  0.2536  1.7913  0.7943
 4285TIP3    H234491   6.726   2.404   1.217 -0.2407 -0.0700 -2.6581
 4286TIP3   OH234492   1.904   3.973   6.457  0.2159 -0.2023 -0.3849
 4286TIP3    H134493   1.814   3.962   6.428 -0.1549  0.0117  0.6486
 4286TIP3    H234494   1.953   3.993   6.377 -0.6252 -0.4429 -0.9700
 4287TIP3   OH234495   4.378   1.579   0.989 -0.3512 -0.9573  0.5122
 4287TIP3    H134496   4.370   1.558   0.896 -2.1743  2.0616 -0.1470
 4287TIP3    H234497   4.290   1.566   1.024 -0.2230  0.0856  1.2636
 4288TIP3   OH234498   3.498   1.398   1.072 -0.0952 -0.5916  0.2450
 4288TIP3    H134499   3.583   1.432   1.045  0.5450 -0.0897  2.6141
 4288TIP3    H234500   3.434   1.453   1.028  0.8314 -0.1716 -0.5988
 4289TIP3   OH234501   2.880   2.613   7.783  0.0767  0.0750 -0.0536
 4289TIP3    H134502   2.905   2.657   7.702 -0.9095  1.3662  0.3115
 4289TIP3    H234503   2.878   2.683   7.849  1.1750 -0.9966  1.1703
 4290TIP3   OH234504   3.325   3.080   8.841  0.0234  0.8935 -0.7214
 4290TIP3    H134505   3.345   3.113   8.929  0.1729  1.7769 -1.0728
 4290TIP3    H234506   3.316   3.159   8.788 -0.3133  0.3733 -1.4506
 4291TIP3   OH234507   4.000   6.075   9.041  0.1494 -0.3226 -0.0062
 4291TIP3    H134508   3.940   6.148   9.058 -0.9193 -0.9356 -0.9316
 4291TIP3    H234509   4.017   6.080   8.947  2.1699  0.2629  0.3552
 4292TIP3   OH234510   3.569   4.248   7.697 -0.7077 -0.1517  0.4622
 4292TIP3    H134511   3.632   4.305   7.741 -3.5642  2.2937  1.7688
 4292TIP3    H234512   3.580   4.163   7.739  1.5657  0.2368  0.7444
 4293TIP3   OH234513   5.835   1.437   7.631  1.0867  0.4784 -0.2504
 4293TIP3    H134514   5.818   1.447   7.537  1.1918  0.7564 -0.2419
 4293TIP3    H234515   5.748   1.426   7.670  1.0513  0.2669 -0.3925
 4294TIP3   OH234516   5.775   1.795   7.713  0.4636 -0.6586 -0.0675
 4294TIP3    H134517   5.721   1.861   7.758  1.3945 -0.7087  1.1783
 4294TIP3    H234518   5.826   1.846   7.650 -1.8175 -0.7468 -2.1307
 4295TIP3   OH234519   5.909   4.636   7.292 -0.5954  0.3697  0.0580
 4295TIP3    H134520   5.920   4.731   7.302 -1.4623  0.4195  0.5932
 4295TIP3    H234521   5.853   4.627   7.215  0.7792  0.2125 -0.9732
 4296TIP3   OH234522   0.891   2.499   6.954 -0.1556 -0.1868 -0.7328
 4296TIP3    H134523   0.910   2.593   6.948  1.1746 -0.4752 -1.6268
 4296TIP3    H234524   0.870   2.472   6.865 -4.1791 -0.1133  0.0360
 4297TIP3   OH234525   6.084   0.331   0.849 -0.3279 -0.2736 -0.3390
 4297TIP3    H134526   6.029   0.255   0.867 -0.6344  0.2832  1.1991
 4297TIP3    H234527   6.043   0.373   0.774 -1.1041 -0.7261 -0.1809
 4298TIP3   OH234528   1.951   1.420   0.899  0.0616 -0.0838  0.1080
 4298TIP3    H134529   1.993   1.439   0.983  2.8567  1.0016 -1.4000
 4298TIP3    H234530   1.979   1.331   0.878  0.8015  0.2652 -0.4264
 4299TIP3   OH234531   2.465   1.267   6.984 -0.4985  0.0492 -0.1368
 4299TIP3    H134532   2.489   1.313   7.065  2.2203  0.9553 -1.3616
 4299TIP3    H234533   2.491   1.177   7.000 -0.4703  0.1101  0.1865
 4300TIP3   OH234534   2.157   4.620   7.702 -0.2901  0.4076 -0.5924
 4300TIP3    H134535   2.115   4.705   7.700  0.5344  0.8738  0.5171
 4300TIP3    H234536   2.248   4.637   7.677 -0.3020 -0.2796 -1.1515
 4301TIP3   OH234537   3.477   6.395   1.549  0.3731  0.6005  0.1426
 4301TIP3    H134538   3.441   6.309   1.528 -0.2794  0.7943  0.4548
 4301TIP3    H234539   3.449   6.412   1.639  0.2739  1.2537 -0.0077
 4302TIP3   OH234540   0.142   1.496   8.659 -0.5791  0.4980  0.4721
 4302TIP3    H134541   0.084   1.572   8.665 -0.7780  0.4820 -0.8661
 4302TIP3    H234542   0.214   1.516   8.719  0.5120  2.8003 -1.4142
 4303TIP3   OH234543   3.991   0.384   0.086  0.3003 -0.4454 -0.6012
 4303TIP3    H134544   3.923   0.447   0.112  0.1959  0.1995 -2.3359
 4303TIP3    H234545   4.072   0.435   0.085  1.0404 -1.3542  2.1047
 4304TIP3   OH234546   3.495   2.408   0.170 -0.1789 -0.3445  0.9876
 4304TIP3    H134547   3.485   2.386   0.077  0.8475 -1.6361  1.1591
 4304TIP3    H234548   3.405   2.419   0.201 -0.5211  0.7343 -0.2852
 4305TIP3   OH234549   4.274   0.522   1.275  0.4344  0.2562 -0.0611
 4305TIP3    H134550   4.277   0.447   1.334  2.7062  0.4205  0.1521
 4305TIP3    H234551   4.184   0.525   1.244 -0.3609 -0.9611  1.9365
 4306TIP3   OH234552   6.137   4.210   0.548 -0.0848 -0.7297 -0.3837
 4306TIP3    H134553   6.051   4.173   0.567 -0.5980  0.2101 -0.8567
 4306TIP3    H234554   6.194   4.133   0.537 -0.8804 -1.3571 -0.1954
 4307TIP3   OH234555   5.876   6.501   8.077 -0.5063  0.0279  0.0681
 4307TIP3    H134556   5.912   6.428   8.127 -1.0334  0.7876  1.6260
 4307TIP3    H234557   5.943   6.522   8.012  0.4551 -0.6396  0.8215
 4308TIP3   OH234558   1.153   6.363   8.154 -0.1111  0.4033  0.5826
 4308TIP3    H134559   1.125   6.275   8.128 -0.9736  0.3243  1.6950
 4308TIP3    H234560   1.223   6.385   8.092  0.2848 -1.1539  0.4338
 4309TIP3   OH234561   5.779   0.583   9.035 -0.5615  0.2608 -0.1883
 4309TIP3    H134562   5.685   0.572   9.023 -0.6269  1.6642 -1.1462
 4309TIP3    H234563   5.802   0.660   8.983  1.0422  0.2283  0.3984
 4310TIP3   OH234564   0.645   0.576   9.072  0.1550 -0.2804  0.1757
 4310TIP3    H134565   0.710   0.511   9.045 -1.3397 -1.2569 -1.2916
 4310TIP3    H234566   0.599   0.598   8.991 -2.5349 -1.0040  1.4027
 4311TIP3   OH234567   3.749   0.661   1.336  0.1385 -0.0254 -0.0922
 4311TIP3    H134568   3.757   0.719   1.261  0.3596  2.1362  1.5061
 4311TIP3    H234569   3.656   0.642   1.343  0.1637 -0.5846 -1.1155
 4312TIP3   OH234570   3.874   0.917   8.361  0.5486 -0.6801 -0.2562
 4312TIP3    H134571   3.899   0.837   8.315  0.2003 -0.9425  0.0011
 4312TIP3    H234572   3.905   0.904   8.451  0.9286 -0.3125 -0.3318
 4313TIP3   OH234573   1.187   6.334   7.093  0.1063 -0.0470 -0.1792
 4313TIP3    H134574   1.214   6.309   7.005 -0.2234  1.1010 -0.6323
 4313TIP3    H234575   1.269   6.342   7.142  0.4865  1.3917 -0.9779
 4314TIP3   OH234576   5.852   2.108   1.157  0.7410  0.3305  1.2860
 4314TIP3    H134577   5.786   2.040   1.146  1.9871 -0.7344 -0.0041
 4314TIP3    H234578   5.846   2.133   1.249 -0.6794 -0.5257  1.4596
 4315TIP3   OH234579   1.487   0.562   7.618  0.2884 -0.2362  0.1096
 4315TIP3    H134580   1.441   0.612   7.550  0.3444  1.3124  1.1492
 4315TIP3    H234581   1.562   0.617   7.641  0.8559 -1.2311  0.6937
 4316TIP3   OH234582   4.822   2.411   6.809  0.7407  0.0731  0.0616
 4316TIP3    H134583   4.798   2.498   6.837  1.8471 -0.0738  1.5813
 4316TIP3    H234584   4.823   2.416   6.713  1.3488  1.8912  0.1230
 4317TIP3   OH234585   5.352   3.952   0.021 -0.2911 -0.6336  0.7294
 4317TIP3    H134586   5.321   3.871   0.061  0.7145 -1.0285  0.7551
 4317TIP3    H234587   5.397   3.998   0.092 -0.5048 -0.2464  0.6162
 4318TIP3   OH234588   1.777   1.473   7.530  0.1560 -0.6570 -0.3548
 4318TIP3    H134589   1.713   1.482   7.458 -0.2689  0.6894  0.1637
 4318TIP3    H234590   1.728   1.497   7.608  0.7953 -1.4898  0.3158
 4319TIP3   OH234591   0.808   3.458   0.635 -0.4590 -0.0139 -0.1295
 4319TIP3    H134592   0.874   3.526   0.623 -0.2187 -0.2958 -0.4529
 4319TIP3    H234593   0.848   3.397   0.698 -0.4436 -0.1405 -0.2605
 4320TIP3   OH234594   6.443   0.445   1.210 -0.3583  0.5255 -0.5010
 4320TIP3    H134595   6.511   0.499   1.251  1.3547 -1.0856 -1.1047
 4320TIP3    H234596   6.433   0.371   1.270 -1.1206  0.4124 -0.7633
 4321TIP3   OH234597   4.660   3.483   7.082 -0.1673 -0.7210  0.1967
 4321TIP3    H134598   4.656   3.536   7.161  3.1846 -1.3533  0.9334
 4321TIP3    H234599   4.631   3.542   7.012 -0.4515  0.7552  1.4988
 4322TIP3   OH234600   0.444   6.391   0.621  0.2804 -0.0644 -0.6953
 4322TIP3    H134601   0.469   6.302   0.593  0.6441 -1.0662  2.3785
 4322TIP3    H234602   0.365   6.378   0.673  1.0648  1.1618  0.9008
 4323TIP3   OH234603   0.205   1.343   0.627 -0.1751  0.0709  1.1294
 4323TIP3    H134604   0.224   1.262   0.580  0.1997  1.0009 -0.4011
 4323TIP3    H234605   0.209   1.411   0.560 -2.0674  1.1804  2.0770
 4324TIP3   OH234606   1.941   0.260   7.850 -0.8201 -0.3355  0.5043
 4324TIP3    H134607   1.861   0.212   7.869 -0.4934 -1.4559 -0.7454
 4324TIP3    H234608   1.962   0.306   7.932 -1.8590 -1.2953  1.3434
 4325TIP3   OH234609   1.085   2.698   7.443 -0.2920 -0.2341  0.0500
 4325TIP3    H134610   0.990   2.696   7.432 -0.7676 -1.1706  3.3285
 4325TIP3    H234611   1.117   2.631   7.383 -1.9738 -1.4868  0.4749
 4326TIP3   OH234612   6.185   5.424   0.016 -0.9462  0.1928  0.3290
 4326TIP3    H134613   6.162   5.385   0.100 -0.5759  0.2651  0.4681
 4326TIP3    H234614   6.171   5.518   0.028  3.4286  0.8888  1.8839
 4327TIP3   OH234615   4.448   5.299   7.254 -0.3047 -0.5634  0.5773
 4327TIP3    H134616   4.451   5.229   7.189 -2.8020 -0.1073 -0.1577
 4327TIP3    H234617   4.533   5.295   7.298  1.0212 -1.6823 -1.8643
 4328TIP3   OH234618   2.876   0.969   1.330 -0.2425 -0.3782 -0.5101
 4328TIP3    H134619   2.849   0.877   1.334 -0.3677 -0.3027  1.1778
 4328TIP3    H234620   2.794   1.018   1.328 -0.2064 -0.2676  0.3700
 4329TIP3   OH234621   2.531   5.604   8.368 -0.0493  0.0243  0.3228
 4329TIP3    H134622   2.591   5.581   8.296 -0.9724 -2.2870  0.1811
 4329TIP3    H234623   2.458   5.648   8.325  0.8488  1.5932  0.3199
 4330TIP3   OH234624   4.872   3.554   6.741  0.2474  0.2687  0.1103
 4330TIP3    H134625   4.944   3.598   6.786  1.2179 -1.2242  0.0732
 4330TIP3    H234626   4.794   3.601   6.770  1.1449  1.4360  0.7536
 4331TIP3   OH234627   4.955   1.810   7.735  0.1133 -0.1072 -0.2719
 4331TIP3    H134628   4.985   1.831   7.823 -0.2544  1.0811 -0.4120
 4331TIP3    H234629   4.989   1.882   7.680  0.1364 -0.7027 -1.0603
 4332TIP3   OH234630   6.656   0.609   1.308 -0.3436 -0.4269 -0.3414
 4332TIP3    H134631   6.741   0.570   1.327  0.5133  0.3180 -2.3172
 4332TIP3    H234632   6.640   0.669   1.381  1.3812  0.2150 -0.4377
 4333TIP3   OH234633   3.505   2.844   0.887 -0.1812  0.2495  0.0414
 4333TIP3    H134634   3.526   2.757   0.851  0.7474  1.1835 -1.8506
 4333TIP3    H234635   3.481   2.895   0.810 -1.2820  1.5284  1.2054
 4334TIP3   OH234636   3.788   3.184   6.812 -0.2593 -0.1356  0.2422
 4334TIP3    H134637   3.732   3.238   6.868 -0.7954  0.1952 -0.6081
 4334TIP3    H234638   3.731   3.153   6.743  0.6652  0.4805 -0.8348
 4335TIP3   OH234639   1.314   1.741   7.330  0.0174  0.0347 -0.0295
 4335TIP3    H134640   1.232   1.724   7.284 -0.5441 -0.5818  1.1535
 4335TIP3    H234641   1.299   1.822   7.378  0.5590  0.6107 -0.8123
 4336TIP3   OH234642   1.744   1.917   1.100 -0.0742  0.4117  0.0965
 4336TIP3    H134643   1.785   2.001   1.117  0.3684  0.2129  0.0120
 4336TIP3    H234644   1.815   1.853   1.108 -0.5628 -0.0349  0.9657
 4337TIP3   OH234645   3.552   2.970   8.552 -0.3105  0.1652 -0.0969
 4337TIP3    H134646   3.473   3.020   8.533 -0.1198  1.6929  2.5686
 4337TIP3    H234647   3.521   2.888   8.590 -0.6191  0.3945  0.1444
 4338TIP3   OH234648   1.132   2.228   0.812  0.0630  0.6021 -0.0939
 4338TIP3    H134649   1.188   2.262   0.742 -0.7566  1.7658 -0.2242
 4338TIP3    H234650   1.053   2.199   0.766  0.6123 -1.2352  0.0592
 4339TIP3   OH234651   3.630   2.147   6.798  0.2067  0.6362 -0.7629
 4339TIP3    H134652   3.539   2.148   6.771  0.0351  1.1693 -0.2005
 4339TIP3    H234653   3.678   2.120   6.720 -0.5603 -1.3255 -0.5881
 4340TIP3   OH234654   0.336   2.993   6.985  0.3321  0.1828  0.0956
 4340TIP3    H134655   0.355   2.909   7.027  1.3261  0.5699  0.4518
 4340TIP3    H234656   0.420   3.038   6.981 -0.3009  1.4839  0.6020
 4341TIP3   OH234657   4.779   5.395   1.279  0.0206 -0.3388  0.0353
 4341TIP3    H134658   4.860   5.343   1.274  0.7802  0.7266  0.6149
 4341TIP3    H234659   4.752   5.407   1.188  0.9177 -0.1342 -0.2214
 4342TIP3   OH234660   4.522   1.805   7.217  0.7378  0.2620  0.7408
 4342TIP3    H134661   4.487   1.748   7.286 -0.1911  0.7512  0.6944
 4342TIP3    H234662   4.575   1.869   7.265  2.1443 -0.8717  0.7510
 4343TIP3   OH234663   3.641   2.507   6.855 -0.2458  0.1734 -0.5754
 4343TIP3    H134664   3.681   2.421   6.848  0.8786  0.5365  0.8955
 4343TIP3    H234665   3.621   2.517   6.948 -0.2241  1.5509 -0.6978
 4344TIP3   OH234666   3.574   3.731   8.151 -0.1087 -0.1344 -0.5723
 4344TIP3    H134667   3.525   3.813   8.161 -0.0715 -0.2571  0.7281
 4344TIP3    H234668   3.584   3.721   8.056 -3.2431 -0.4817 -0.9745
 4345TIP3   OH234669   3.591   1.058   6.723 -0.5290 -0.4237 -0.7331
 4345TIP3    H134670   3.604   0.981   6.779 -1.2011  0.3689  0.5604
 4345TIP3    H234671   3.519   1.105   6.764 -1.1474  0.1337 -2.3608
 4346TIP3   OH234672   5.547   4.727   0.612  0.5068  0.1483 -0.1414
 4346TIP3    H134673   5.597   4.709   0.532  1.6556 -1.3010  0.8496
 4346TIP3    H234674   5.501   4.646   0.630  2.6757 -0.6837  2.2870
 4347TIP3   OH234675   6.005   3.278   9.031  0.5196  0.5985 -0.5100
 4347TIP3    H134676   5.990   3.229   9.111 -0.6710 -0.1661 -1.1742
 4347TIP3    H234677   6.073   3.230   8.985 -0.8070 -0.6514 -1.2715
 4348TIP3   OH234678   5.299   2.950   1.046 -0.4041 -0.0413  0.2586
 4348TIP3    H134679   5.308   3.019   1.112 -0.3175 -0.9391  1.2091
 4348TIP3    H234680   5.212   2.965   1.008 -1.1198 -0.4117  1.6631
 4349TIP3   OH234681   4.482   0.704   6.449  0.1475  0.7755 -0.1805
 4349TIP3    H134682   4.476   0.694   6.354 -1.0119 -0.1520 -0.0263
 4349TIP3    H234683   4.394   0.728   6.477 -0.1381 -1.2753  0.8917
 4350TIP3   OH234684   5.292   3.817   7.501  0.0997 -0.1097 -0.5153
 4350TIP3    H134685   5.282   3.841   7.409  0.7213  0.8658 -0.3502
 4350TIP3    H234686   5.274   3.898   7.549 -3.7036 -1.3571  0.4800
 4351TIP3   OH234687   3.048   1.948   1.358  0.3731 -0.3449 -0.4307
 4351TIP3    H134688   3.129   1.927   1.311  0.2532 -1.5865 -0.1154
 4351TIP3    H234689   3.076   1.970   1.447  0.5160  1.0969 -0.8095
 4352TIP3   OH234690   4.628   6.427   8.326 -0.3637 -0.2275 -0.7435
 4352TIP3    H134691   4.538   6.443   8.355 -0.1939 -1.4212  0.5980
 4352TIP3    H234692   4.681   6.485   8.381 -0.2003 -0.8227 -0.2635
 4353TIP3   OH234693   3.252   0.596   1.204 -0.4970 -0.2572  0.0272
 4353TIP3    H134694   3.204   0.676   1.228 -1.0705 -0.7027  0.3677
 4353TIP3    H234695   3.264   0.604   1.110  0.2065  0.6455  0.1742
 4354TIP3   OH234696   6.318   4.014   0.525 -0.0049  0.1005  0.3830
 4354TIP3    H134697   6.337   3.930   0.483 -2.5667 -0.6817  0.5966
 4354TIP3    H234698   6.326   4.079   0.455  0.7257 -0.4983 -0.0967
 4355TIP3   OH234699   5.005   5.832   1.662  0.2082  0.2538 -0.0926
 4355TIP3    H134700   5.057   5.837   1.741 -0.8111 -2.5819  0.8676
 4355TIP3    H234701   4.980   5.923   1.643  2.8756  1.3190  1.1058
 4356TIP3   OH234702   2.610   0.506   8.299 -0.3209 -0.0183 -0.1200
 4356TIP3    H134703   2.634   0.449   8.225 -1.4517  0.1791 -0.6534
 4356TIP3    H234704   2.633   0.594   8.270 -1.7240  0.1818 -0.6683
 4357TIP3   OH234705   2.030   3.672   0.555 -0.5955  0.2300  0.4828
 4357TIP3    H134706   2.063   3.639   0.472 -1.6968 -0.0810  0.1471
 4357TIP3    H234707   2.070   3.616   0.621 -0.2103  0.0709  0.1204
 4358TIP3   OH234708   2.909   3.466   6.344 -0.4070  0.2138 -0.3221
 4358TIP3    H134709   2.985   3.453   6.287 -0.3737 -0.3845 -0.1547
 4358TIP3    H234710   2.937   3.531   6.408 -0.1822  0.3111 -0.5189
 4359TIP3   OH234711   1.724   3.874   7.724  0.9055  0.4182  0.2283
 4359TIP3    H134712   1.714   3.785   7.689  2.6053 -0.1688  1.1022
 4359TIP3    H234713   1.664   3.876   7.799  0.2810  0.2816 -0.2615
 4360TIP3   OH234714   3.095   4.455   8.942 -0.5298 -0.5277  0.7901
 4360TIP3    H134715   3.109   4.524   8.877  1.8139 -1.6446 -0.0161
 4360TIP3    H234716   3.182   4.420   8.959 -1.5901 -3.3922  1.0235
 4361TIP3   OH234717   1.732   2.705   2.020 -0.3990  0.6068  0.5847
 4361TIP3    H134718   1.749   2.695   2.114  0.3213 -0.9489  0.3140
 4361TIP3    H234719   1.674   2.631   1.998  0.5912  0.1214 -0.4568
 4362TIP3   OH234720   0.912   2.574   6.649 -0.9858  0.0758 -0.0398
 4362TIP3    H134721   1.002   2.606   6.656 -1.3429  0.7421  3.1883
 4362TIP3    H234722   0.865   2.644   6.602 -0.0413  0.1198 -0.9622
 4363TIP3   OH234723   2.526   6.452   1.471 -0.2180 -0.8536  0.7495
 4363TIP3    H134724   2.477   6.421   1.395  0.5883 -3.7025  1.2703
 4363TIP3    H234725   2.463   6.504   1.520 -1.4208 -0.8436 -0.7114
 4364TIP3   OH234726   2.620   0.859   0.594 -0.2904 -0.3348  0.0096
 4364TIP3    H134727   2.660   0.795   0.536 -0.5269 -0.5321  0.0587
 4364TIP3    H234728   2.581   0.806   0.664  0.2874 -0.0787  0.5298
 4365TIP3   OH234729   2.121   6.403   0.786 -1.0353  0.0965  0.2975
 4365TIP3    H134730   2.166   6.374   0.707 -2.0098 -1.0303  0.1210
 4365TIP3    H234731   2.069   6.478   0.757 -2.0909 -0.8572 -0.3937
 4366TIP3   OH234732   4.860   5.931   0.126 -0.0568  0.2767  0.1069
 4366TIP3    H134733   4.950   5.907   0.104  0.2623 -0.5855  2.1139
 4366TIP3    H234734   4.868   6.013   0.174 -0.1232 -0.6426  1.7532
 4367TIP3   OH234735   5.674   0.660   7.022  0.3978  0.9067 -0.2011
 4367TIP3    H134736   5.738   0.727   6.995  2.0000 -0.0077  1.1256
 4367TIP3    H234737   5.709   0.578   6.986 -0.7124  0.5557 -0.5048
 4368TIP3   OH234738   0.393   2.019   7.940 -0.3539 -0.6173  0.1073
 4368TIP3    H134739   0.454   2.011   8.014 -0.3112 -0.6163  0.0722
 4368TIP3    H234740   0.388   2.113   7.923 -3.1434 -0.1989  2.4408
 4369TIP3   OH234741   3.865   0.799   1.128 -0.2597  0.1538 -0.2158
 4369TIP3    H134742   3.882   0.707   1.108 -0.1293  0.0025  0.5500
 4369TIP3    H234743   3.889   0.846   1.049  0.6282 -0.3788 -0.2745
 4370TIP3   OH234744   1.614   6.521   6.216 -0.5858  0.1567 -0.0257
 4370TIP3    H134745   1.656   6.515   6.302 -0.3517 -2.1370 -0.2559
 4370TIP3    H234746   1.563   6.602   6.221  1.2972  1.3440  1.3892
 4371TIP3   OH234747   1.521   0.765   7.013 -0.3203 -0.2796 -0.5356
 4371TIP3    H134748   1.537   0.821   6.937 -2.5582  0.9866 -0.1758
 4371TIP3    H234749   1.447   0.710   6.987  0.3542 -1.4450 -0.0496
 4372TIP3   OH234750   2.334   5.485   0.532 -0.4743  0.4055  0.6683
 4372TIP3    H134751   2.358   5.409   0.586 -0.9578 -1.4456 -1.5671
 4372TIP3    H234752   2.252   5.516   0.569 -1.0067 -1.0770  0.7915
 4373TIP3   OH234753   5.759   2.227   8.575 -0.0765  0.3365  0.3927
 4373TIP3    H134754   5.722   2.283   8.507 -1.4929  1.2795  1.8548
 4373TIP3    H234755   5.854   2.231   8.561 -0.3640 -0.6355 -2.3203
 4374TIP3   OH234756   2.179   0.444   1.362 -0.0506  0.0282 -0.6964
 4374TIP3    H134757   2.176   0.355   1.325 -0.6927  0.0173 -0.6344
 4374TIP3    H234758   2.110   0.491   1.316 -0.5453  0.1501  0.1541
 4375TIP3   OH234759   2.519   4.547   1.986  0.4120 -0.3509  0.0954
 4375TIP3    H134760   2.572   4.574   2.061 -2.0634  2.0442  1.1838
 4375TIP3    H234761   2.532   4.617   1.921  0.8448 -1.2764 -0.8321
 4376TIP3   OH234762   1.516   0.279   7.520  0.1924  0.3507 -0.2925
 4376TIP3    H134763   1.519   0.359   7.572  0.9874 -0.0157  0.2426
 4376TIP3    H234764   1.589   0.287   7.459 -1.2521  1.1853 -2.0079
 4377TIP3   OH234765   6.325   3.702   0.524 -0.3683 -0.4975  0.2748
 4377TIP3    H134766   6.303   3.612   0.546  1.5437 -1.0800 -0.0365
 4377TIP3    H234767   6.420   3.707   0.534  0.0732  0.4718 -3.2006
 4378TIP3   OH234768   6.664   6.612   6.670  0.8056  0.6976 -0.3312
 4378TIP3    H134769   6.658   6.533   6.724 -3.0088 -0.7831 -2.5082
 4378TIP3    H234770   6.702   6.582   6.588  1.1339  1.6171 -0.5277
 4379TIP3   OH234771   1.100   0.524   8.745 -0.2644 -0.1432 -0.5062
 4379TIP3    H134772   1.085   0.436   8.710  0.1645 -0.5728  0.3350
 4379TIP3    H234773   1.194   0.539   8.733 -0.5578  0.7725 -1.8779
 4380TIP3   OH234774   4.568   4.559   6.834 -0.0436 -0.3247  0.5292
 4380TIP3    H134775   4.628   4.605   6.775  0.2990 -0.7264  0.5684
 4380TIP3    H234776   4.507   4.627   6.863  0.1157 -0.0114  0.1373
 4381TIP3   OH234777   6.405   2.884   8.104  0.3809  0.3016  0.4339
 4381TIP3    H134778   6.497   2.893   8.079  0.6281 -0.9966  0.8240
 4381TIP3    H234779   6.384   2.967   8.148  1.0577  1.0068 -0.5308
 4382TIP3   OH234780   4.821   2.561   7.845 -0.0330 -0.1332  0.1074
 4382TIP3    H134781   4.877   2.484   7.839 -0.4088 -0.8542  3.8113
 4382TIP3    H234782   4.747   2.540   7.788  2.1227 -0.2391 -2.8693
 4383TIP3   OH234783   1.187   5.675   7.243 -0.5163 -0.1749  0.0588
 4383TIP3    H134784   1.282   5.667   7.240 -0.2978  1.3785  1.4594
 4383TIP3    H234785   1.161   5.687   7.152  0.3275 -3.0667 -0.6543
 4384TIP3   OH234786   2.110   1.423   7.557 -0.5450  0.4636 -0.1287
 4384TIP3    H134787   2.142   1.346   7.510 -0.2873 -0.5309  1.5842
 4384TIP3    H234788   2.178   1.489   7.543 -0.1785 -0.0047 -0.6206
 4385TIP3   OH234789   4.622   5.542   7.461 -0.0354 -0.6684 -0.0389
 4385TIP3    H134790   4.707   5.585   7.471 -0.1583 -0.5905  0.7359
 4385TIP3    H234791   4.589   5.533   7.551 -0.5508 -1.2922 -0.2833
 4386TIP3   OH234792   1.891   0.095   1.737 -1.3268  0.2791  0.0837
 4386TIP3    H134793   1.880   0.119   1.829  0.3098  1.1443  0.0811
 4386TIP3    H234794   1.975   0.133   1.712 -0.8098 -1.6047 -1.2473
 4387TIP3   OH234795   5.674   2.277   0.847  0.5998 -0.1460 -0.3557
 4387TIP3    H134796   5.768   2.291   0.863  0.7449 -1.9377  0.6717
 4387TIP3    H234797   5.671   2.227   0.765  0.5597 -0.4150 -0.1888
 4388TIP3   OH234798   3.532   3.833   8.723 -0.1783  0.8491  0.5371
 4388TIP3    H134799   3.470   3.802   8.658 -0.6942  0.7682  1.0612
 4388TIP3    H234800   3.605   3.771   8.719 -0.8146  0.0553  0.9752
 4389TIP3   OH234801   0.171   0.755   0.328 -0.3715 -0.6435  0.6201
 4389TIP3    H134802   0.159   0.721   0.240 -0.4758  0.5580  0.1480
 4389TIP3    H234803   0.166   0.850   0.318  1.6816 -0.3669  1.5977
 4390TIP3   OH234804   6.633   2.469   1.677  0.3320 -0.2049  0.1816
 4390TIP3    H134805   6.564   2.535   1.691 -0.2571 -0.3828 -1.6505
 4390TIP3    H234806   6.714   2.519   1.681 -0.0120  0.3521  0.4329
 4391TIP3   OH234807   2.954   5.171   7.613  0.1683 -0.1362  0.0682
 4391TIP3    H134808   2.966   5.099   7.675  0.6472 -0.1681 -0.0577
 4391TIP3    H234809   3.022   5.234   7.634 -1.5408  1.3189  1.5841
 4392TIP3   OH234810   3.017   6.459   1.552  0.0093 -0.1670 -0.1819
 4392TIP3    H134811   3.006   6.377   1.599 -1.2435  0.7663  1.2506
 4392TIP3    H234812   2.993   6.439   1.461 -0.7656 -1.2671  0.2531
 4393TIP3   OH234813   3.599   2.678   7.646  0.7333  0.0781  0.0881
 4393TIP3    H134814   3.686   2.702   7.679  0.7834 -0.9948  0.7809
 4393TIP3    H234815   3.543   2.675   7.723 -0.3579  2.3955 -0.5394
 4394TIP3   OH234816   2.675   5.703   0.866 -0.0978  0.6105  0.4631
 4394TIP3    H134817   2.620   5.776   0.839 -2.3154 -0.4285  1.9015
 4394TIP3    H234818   2.734   5.739   0.932  0.6868  1.6287 -0.7457
 4395TIP3   OH234819   2.199   1.181   7.444  0.4871 -0.6309 -0.3853
 4395TIP3    H134820   2.295   1.176   7.444  0.5346  0.2238  0.1079
 4395TIP3    H234821   2.171   1.091   7.426  1.3795 -0.9606 -0.1862
 4396TIP3   OH234822   0.598   4.917   0.488 -0.1591 -0.0110 -0.1703
 4396TIP3    H134823   0.578   4.858   0.415 -1.2515  0.7940 -0.5504
 4396TIP3    H234824   0.515   4.925   0.535  0.0490  0.9943  0.0409
 4397TIP3   OH234825   1.157   3.430   7.932 -0.5326 -0.0086  0.7621
 4397TIP3    H134826   1.181   3.474   8.014 -0.2448 -0.1575  0.7618
 4397TIP3    H234827   1.093   3.364   7.959 -0.8935  0.3434  0.7757
 4398TIP3   OH234828   0.893   4.124   8.332  0.0144  0.3090  0.3337
 4398TIP3    H134829   0.941   4.093   8.256 -0.4083 -1.4644  0.7459
 4398TIP3    H234830   0.913   4.218   8.337  0.7938  0.2631 -1.3839
 4399TIP3   OH234831   1.449   3.411   0.418 -0.0524 -0.0265  0.0368
 4399TIP3    H134832   1.451   3.322   0.455 -1.4917 -1.1562 -2.3795
 4399TIP3    H234833   1.367   3.448   0.450  0.7851  0.6944  1.4602
 4400TIP3   OH234834   6.347   6.727   8.549 -0.4072 -0.2899 -0.4081
 4400TIP3    H134835   6.432   6.723   8.591 -0.8054  0.7198  0.5548
 4400TIP3    H234836   6.311   6.638   8.558 -1.6583  0.4065  4.0481
 4401TIP3   OH234837   3.892   0.659   8.983  0.5183 -0.0649  0.1035
 4401TIP3    H134838   3.984   0.653   8.957  0.1427  0.4062 -1.4789
 4401TIP3    H234839   3.859   0.737   8.937 -1.0674 -1.1583 -0.7181
 4402TIP3   OH234840   2.082   6.214   0.987 -0.3976  0.2450 -0.1113
 4402TIP3    H134841   2.097   6.265   0.907 -1.6918  0.7005 -0.0987
 4402TIP3    H234842   2.141   6.252   1.052  0.4001  0.1092 -0.7471
 4403TIP3   OH234843   5.859   0.441   1.314  0.4083 -0.0618  0.1018
 4403TIP3    H134844   5.860   0.469   1.405  0.9746 -1.1458  0.4372
 4403TIP3    H234845   5.776   0.475   1.280  0.5242  0.9615  0.8131
 4404TIP3   OH234846   4.107   5.274   7.883 -0.1869  0.0062  0.0171
 4404TIP3    H134847   4.033   5.329   7.909 -0.8218 -0.8323  0.0370
 4404TIP3    H234848   4.137   5.310   7.800  0.7093  1.6124  0.9960
 4405TIP3   OH234849   6.049   5.323   7.897  0.0573  0.2706 -0.3438
 4405TIP3    H134850   6.069   5.233   7.922  0.8556  0.4289 -0.3862
 4405TIP3    H234851   6.093   5.336   7.814  1.0171  1.0782  0.2619
 4406TIP3   OH234852   6.067   5.835   2.529  0.2851 -0.1261 -0.1713
 4406TIP3    H134853   5.978   5.861   2.553  0.3347 -0.3462  0.2536
 4406TIP3    H234854   6.121   5.908   2.557  0.6938 -1.4559  2.9394
 4407TIP3   OH234855   6.715   1.291   1.432  0.4311  0.3072 -0.0622
 4407TIP3    H134856   6.689   1.382   1.415 -0.8409  0.1669  0.9484
 4407TIP3    H234857   6.799   1.281   1.387 -1.7138  0.4769 -4.6955
 4408TIP3   OH234858   0.550   2.731   2.047 -0.4388 -0.8101 -0.2468
 4408TIP3    H134859   0.546   2.640   2.076 -0.9152 -0.4087  1.0464
 4408TIP3    H234860   0.643   2.749   2.035 -0.2670 -1.1684  0.5066
 4409TIP3   OH234861   0.143   2.794   1.176 -0.0383  0.4673 -0.5523
 4409TIP3    H134862   0.065   2.772   1.126 -1.1902  0.7375  1.0691
 4409TIP3    H234863   0.110   2.836   1.255  1.4260 -3.1233  2.2500
 4410TIP3   OH234864   0.613   4.550   0.754  0.1665 -0.2682 -0.1552
 4410TIP3    H134865   0.612   4.466   0.801  0.4462  0.4155  1.1003
 4410TIP3    H234866   0.522   4.579   0.754  0.0357 -0.6548 -0.7716
 4411TIP3   OH234867   2.637   4.678   7.889  0.0701  0.2920 -0.2309
 4411TIP3    H134868   2.698   4.608   7.914 -0.8057 -0.6857 -0.7514
 4411TIP3    H234869   2.609   4.716   7.973  0.2271 -0.2709  0.0798
 4412TIP3   OH234870   0.367   6.346   2.544 -0.1232 -0.4622  0.0387
 4412TIP3    H134871   0.374   6.262   2.498  2.4982  0.8564 -2.3001
 4412TIP3    H234872   0.429   6.339   2.616  0.2268 -0.4780 -0.2620
 4413TIP3   OH234873   1.964   6.091   0.202 -0.7113 -0.2265  0.1443
 4413TIP3    H134874   2.013   6.154   0.150 -1.3002  0.5652  0.5341
 4413TIP3    H234875   2.006   6.007   0.183  0.3621  0.3308 -0.0560
 4414TIP3   OH234876   0.819   3.192   0.290 -0.1343 -0.0484 -0.1134
 4414TIP3    H134877   0.871   3.112   0.293  0.5380  0.3353 -1.0203
 4414TIP3    H234878   0.728   3.161   0.289  0.0062 -0.7103  1.9976
 4415TIP3   OH234879   0.755   3.907   0.394 -0.2200  0.0419 -0.1482
 4415TIP3    H134880   0.742   3.989   0.346 -1.4651 -0.4839 -0.7289
 4415TIP3    H234881   0.779   3.935   0.482  0.8287  1.0190 -0.7054
 4416TIP3   OH234882   4.574   0.777   7.247 -0.2224  0.7048  0.2765
 4416TIP3    H134883   4.599   0.869   7.235  1.9392  0.1610  0.1154
 4416TIP3    H234884   4.495   0.780   7.301  1.5219  2.6106  2.9933
 4417TIP3   OH234885   3.429   3.305   0.477 -0.2110 -0.7829  0.1960
 4417TIP3    H134886   3.492   3.363   0.520 -0.8168  0.5428 -0.6108
 4417TIP3    H234887   3.396   3.249   0.547 -1.1725  1.3154  1.5297
 4418TIP3   OH234888   4.279   5.475   1.919 -0.1164  0.5684 -0.3578
 4418TIP3    H134889   4.217   5.402   1.927  0.4271  0.0403 -0.7959
 4418TIP3    H234890   4.357   5.435   1.881  0.7035  1.1114  0.7099
 4419TIP3   OH234891   4.289   6.246   1.300 -0.8652 -0.6570 -0.0769
 4419TIP3    H134892   4.309   6.207   1.385 -0.6848  0.7602  0.5562
 4419TIP3    H234893   4.318   6.181   1.236  2.3100 -0.2931  0.8557
 4420TIP3   OH234894   2.418   5.378   1.202 -0.1483 -0.1434 -0.1200
 4420TIP3    H134895   2.442   5.398   1.293  0.1536 -0.5360 -0.1118
 4420TIP3    H234896   2.471   5.438   1.150  1.0024 -1.1121 -0.1086
 4421TIP3   OH234897   6.086   3.772   0.647  0.0075 -0.1217  0.1232
 4421TIP3    H134898   6.166   3.741   0.606  0.2984  0.3061  0.3540
 4421TIP3    H234899   6.116   3.822   0.723 -0.4478  0.6582 -0.1974
 4422TIP3   OH234900   6.612   6.482   0.081 -0.1406  0.0076  0.2140
 4422TIP3    H134901   6.578   6.466   0.169 -2.0068  2.3989  0.0203
 4422TIP3    H234902   6.681   6.547   0.093  0.7392 -0.8533  0.0201
 4423TIP3   OH234903   1.364   6.518   2.045 -0.3191 -0.0904 -0.1789
 4423TIP3    H134904   1.457   6.504   2.032 -0.7668 -1.4532 -2.4913
 4423TIP3    H234905   1.355   6.534   2.139  2.2835  0.7749 -0.0066
 4424TIP3   OH234906   0.484   1.011   1.212 -0.2306  0.4018  0.2897
 4424TIP3    H134907   0.403   0.960   1.211 -0.2205  0.3898 -0.6881
 4424TIP3    H234908   0.474   1.074   1.141  2.1108 -2.0386 -2.4942
 4425TIP3   OH234909   0.488   0.930   8.358  0.2735  0.0241 -0.3088
 4425TIP3    H134910   0.544   0.965   8.427  1.4606  0.8131 -1.6373
 4425TIP3    H234911   0.543   0.871   8.308 -0.3375  0.0475 -1.0450
 4426TIP3   OH234912   4.119   4.390   0.354 -0.4922 -0.2404  0.9717
 4426TIP3    H134913   4.056   4.455   0.382 -1.4561 -1.2634  1.2417
 4426TIP3    H234914   4.068   4.311   0.339  0.3667 -0.4573 -1.1612
 4427TIP3   OH234915   3.674   5.617   0.118 -0.1023 -0.1801 -0.0178
 4427TIP3    H134916   3.669   5.705   0.155  1.2850  0.4345 -1.1781
 4427TIP3    H234917   3.758   5.583   0.150  0.7195  0.0362 -1.7960
 4428TIP3   OH234918   4.352   2.649   7.597  0.1756  0.0722  0.2526
 4428TIP3    H134919   4.320   2.678   7.683 -1.2452 -0.4650 -0.0694
 4428TIP3    H234920   4.445   2.673   7.597 -0.1709  1.5698  1.2928
 4429TIP3   OH234921   4.163   3.818   0.756 -0.2920 -0.0790  0.1323
 4429TIP3    H134922   4.155   3.724   0.770 -3.7591  0.2102  1.1309
 4429TIP3    H234923   4.213   3.850   0.831 -0.6324 -0.9522  0.7448
 4430TIP3   OH234924   3.287   4.599   6.727 -0.0990  0.1343  0.2902
 4430TIP3    H134925   3.281   4.694   6.734 -0.7631  0.1663 -0.5172
 4430TIP3    H234926   3.210   4.574   6.675  1.1199 -0.6354 -1.1977
 4431TIP3   OH234927   6.601   5.429   8.636 -0.3551 -0.1809 -0.6331
 4431TIP3    H134928   6.615   5.423   8.541 -0.8006 -0.0753 -0.7072
 4431TIP3    H234929   6.689   5.425   8.673 -0.2118 -0.7746 -1.0193
 4432TIP3   OH234930   1.368   4.645   1.971  0.2851  0.3449 -0.7952
 4432TIP3    H134931   1.420   4.703   1.914  0.9233  0.1025 -0.4733
 4432TIP3    H234932   1.326   4.704   2.033  2.6536  0.3671  0.9275
 4433TIP3   OH234933   4.588   0.281   6.913 -0.1042  0.7896  0.0010
 4433TIP3    H134934   4.626   0.367   6.930  0.2198  0.5964  0.2408
 4433TIP3    H234935   4.661   0.219   6.921 -0.1981  0.5530 -0.7909
 4434TIP3   OH234936   5.507   0.609   0.115 -0.4499 -0.1462 -0.1662
 4434TIP3    H134937   5.482   0.647   0.199  0.4988  1.8219 -0.7181
 4434TIP3    H234938   5.424   0.599   0.068 -0.7375  1.9719 -0.2417
 4435TIP3   OH234939   5.085   6.397   7.767  0.9768 -0.1373 -0.3739
 4435TIP3    H134940   5.043   6.361   7.689 -1.1123  1.5995 -0.1681
 4435TIP3    H234941   5.130   6.323   7.807  0.7573 -1.4163 -2.3666
 4436TIP3   OH234942   1.039   6.295   7.409  0.2167  0.1130 -0.4599
 4436TIP3    H134943   0.968   6.326   7.465  1.1648  1.3956  0.0629
 4436TIP3    H234944   1.017   6.203   7.391 -1.3001  0.3430  0.0968
 4437TIP3   OH234945   1.492   1.044   2.064  0.2083 -0.2044 -1.0724
 4437TIP3    H134946   1.517   0.982   2.133 -0.3299  0.5822 -0.1439
 4437TIP3    H234947   1.397   1.052   2.073  0.5026  2.9904  0.8481
 4438TIP3   OH234948   0.260   5.324   1.902 -0.0703 -0.3728 -0.5277
 4438TIP3    H134949   0.231   5.405   1.858 -1.3114 -0.2322  0.4885
 4438TIP3    H234950   0.199   5.257   1.871 -0.9574 -0.2749  0.9207
 4439TIP3   OH234951   4.916   4.069   1.803 -0.2550 -0.4597  0.3642
 4439TIP3    H134952   4.984   4.101   1.862 -1.1712  0.1294  1.1315
 4439TIP3    H234953   4.939   4.105   1.717  1.4596 -1.8655  0.1616
 4440TIP3   OH234954   2.897   1.685   1.053  0.3260  0.2292  0.0824
 4440TIP3    H134955   2.858   1.618   0.997  0.3472  1.7658 -1.8818
 4440TIP3    H234956   2.825   1.715   1.108 -0.4159  0.5013 -0.9886
 4441TIP3   OH234957   4.956   1.774   8.955 -0.2426 -0.3378  0.2199
 4441TIP3    H134958   5.044   1.796   8.924 -1.3170  1.8050 -1.6024
 4441TIP3    H234959   4.909   1.857   8.957 -2.7117 -1.5928 -0.5261
 4442TIP3   OH234960   5.547   6.170   1.572 -0.4817 -0.0966 -0.1722
 4442TIP3    H134961   5.583   6.230   1.506  0.7192 -2.5075 -1.8742
 4442TIP3    H234962   5.453   6.166   1.551 -0.3043  0.0060 -1.0283
 4443TIP3   OH234963   3.891   6.277   7.299  0.5064 -0.0268  0.0295
 4443TIP3    H134964   3.808   6.292   7.345  1.0249 -0.6364  1.2115
 4443TIP3    H234965   3.933   6.363   7.296 -1.5948  1.0888 -3.6476
 4444TIP3   OH234966   2.619   0.617   0.007  0.4812 -0.1648  0.1914
 4444TIP3    H134967   2.574   0.682  -0.046  2.3696  0.0394 -1.2860
 4444TIP3    H234968   2.643   0.664   0.088 -1.0739 -0.0336  0.6024
 4445TIP3   OH234969   1.945   5.763   8.201 -0.2814 -0.1915 -0.3710
 4445TIP3    H134970   2.004   5.695   8.169  0.1926  0.1310 -0.1949
 4445TIP3    H234971   1.967   5.772   8.294 -1.2896 -0.7607 -0.0599
 4446TIP3   OH234972   4.531   0.307   1.167 -0.1331  0.1339  0.3607
 4446TIP3    H134973   4.538   0.390   1.216 -0.7480  0.3229  0.1443
 4446TIP3    H234974   4.563   0.241   1.228  1.2724  0.6336  0.2018
 4447TIP3   OH234975   6.191   5.047   8.416 -0.2206 -0.2206 -0.1769
 4447TIP3    H134976   6.137   5.126   8.415 -0.4358 -0.3612  0.0648
 4447TIP3    H234977   6.269   5.070   8.366 -0.6000 -0.0789 -0.7074
 4448TIP3   OH234978   5.932   1.809   8.350  0.1514 -0.0190 -0.5069
 4448TIP3    H134979   6.026   1.795   8.365  0.1730 -0.0183 -0.6376
 4448TIP3    H234980   5.894   1.817   8.438  0.1371 -0.8729 -0.4306
 4449TIP3   OH234981   2.724   5.094   7.503 -0.5420 -0.2239  0.1189
 4449TIP3    H134982   2.680   5.178   7.487 -2.3072 -0.9917  0.7384
 4449TIP3    H234983   2.808   5.119   7.542 -0.9303  1.2678  0.0836
 4450TIP3   OH234984   3.201   2.582   7.804 -1.0329  0.2737 -0.5513
 4450TIP3    H134985   3.109   2.556   7.790 -1.1298 -0.4524  1.1285
 4450TIP3    H234986   3.244   2.565   7.720 -1.8538 -2.0966 -0.5802
 4451TIP3   OH234987   6.683   6.017   8.937 -0.7374 -0.0845 -0.1825
 4451TIP3    H134988   6.623   5.947   8.913 -0.5290 -0.1132 -0.6330
 4451TIP3    H234989   6.627   6.089   8.965 -0.9980  0.0070 -0.9198
 4452TIP3   OH234990   0.447   6.708   7.491 -0.4799 -0.1633  0.5795
 4452TIP3    H134991   0.406   6.748   7.414 -2.1909 -0.6941  1.1746
 4452TIP3    H234992   0.462   6.782   7.551  1.2700  0.3210 -0.3894
 4453TIP3   OH234993   1.737   4.860   0.250  0.4337  0.4170 -0.4047
 4453TIP3    H134994   1.758   4.818   0.166  1.6433 -0.9926  0.5530
 4453TIP3    H234995   1.725   4.787   0.310  0.3711  1.4224  0.8400
 4454TIP3   OH234996   0.794   4.434   1.606 -0.0618 -0.3426 -0.2386
 4454TIP3    H134997   0.781   4.459   1.698 -0.2347 -0.5239 -0.2120
 4454TIP3    H234998   0.778   4.514   1.557  1.4714  0.1384 -0.0193
 4455TIP3   OH234999   4.146   4.469   7.009 -0.1339 -0.3979 -0.2669
 4455TIP3    H135000   4.226   4.419   6.995 -0.7297 -1.2089 -0.8392
 4455TIP3    H235001   4.171   4.536   7.072  1.2341 -0.0393 -1.1500
 4456TIP3   OH235002   3.598   3.329   6.155  0.0930  0.4398 -0.0167
 4456TIP3    H135003   3.546   3.299   6.080 -0.6071  0.1155  0.5889
 4456TIP3    H235004   3.689   3.314   6.128  0.0365  2.6275 -1.8139
 4457TIP3   OH235005   1.932   1.821   8.700 -0.1547  0.4198  0.1486
 4457TIP3    H135006   1.904   1.886   8.764 -0.3274  1.7277 -1.1940
 4457TIP3    H235007   1.865   1.824   8.632 -0.0556 -1.0428 -0.0462
 4458TIP3   OH235008   1.824   1.589   7.228 -0.6415 -0.6499  0.6760
 4458TIP3    H135009   1.765   1.664   7.232 -1.9803 -1.6893  1.3598
 4458TIP3    H235010   1.777   1.525   7.174  0.9620 -0.6165 -0.8507
 4459TIP3   OH235011   5.020   1.105   8.146 -0.3113  0.0049  0.0568
 4459TIP3    H135012   4.930   1.080   8.165 -1.1464  1.4414 -1.6444
 4459TIP3    H235013   5.012   1.170   8.076  2.0591  0.1595 -0.1483
 4460TIP3   OH235014   1.091   5.041   1.123  0.0453  0.7384 -0.3586
 4460TIP3    H135015   1.080   4.987   1.201  1.7061  2.5290  1.2294
 4460TIP3    H235016   1.007   5.085   1.112 -0.7583 -0.8123 -0.6445
 4461TIP3   OH235017   2.962   3.740   8.012 -0.0690 -0.2942 -0.0270
 4461TIP3    H135018   3.025   3.690   8.064 -1.2324 -1.5015  0.2586
 4461TIP3    H235019   3.010   3.761   7.931  1.3863  0.6565  1.0384
 4462TIP3   OH235020   0.399   4.150   1.224  0.1632 -0.6186  0.6088
 4462TIP3    H135021   0.383   4.198   1.305  2.3650 -0.5541  1.0837
 4462TIP3    H235022   0.492   4.166   1.205 -0.2229 -0.8627 -1.7814
 4463TIP3   OH235023   3.953   3.601   0.564  0.3597 -0.0889  0.2140
 4463TIP3    H135024   3.934   3.650   0.644  0.0027 -1.5959  1.0974
 4463TIP3    H235025   3.882   3.623   0.504  1.3611  2.1379 -0.2565
 4464TIP3   OH235026   5.562   4.989   0.745  0.0540  0.1545 -0.3914
 4464TIP3    H135027   5.505   4.992   0.822 -0.0067  1.1296 -0.4517
 4464TIP3    H235028   5.546   4.904   0.705 -0.3977 -0.0989  0.3134
 4465TIP3   OH235029   5.455   3.387   7.004 -0.7134  0.4095 -0.2124
 4465TIP3    H135030   5.431   3.480   7.003  0.6902  0.7899 -0.5544
 4465TIP3    H235031   5.405   3.349   6.932 -0.8801  1.0125 -0.4251
 4466TIP3   OH235032   2.289   2.984   0.771 -0.2434 -0.5396  0.0278
 4466TIP3    H135033   2.268   3.072   0.738  1.9780 -0.1933 -0.6769
 4466TIP3    H235034   2.325   3.000   0.858 -1.8376 -1.0074  0.8017
 4467TIP3   OH235035   0.700   6.416   6.678 -0.3449 -0.0016 -0.1167
 4467TIP3    H135036   0.650   6.390   6.755  1.0993 -0.4589  0.7025
 4467TIP3    H235037   0.749   6.337   6.653  0.8157  0.7200 -0.2031
 4468TIP3   OH235038   4.962   3.299   7.839 -0.5436  0.1104 -0.0578
 4468TIP3    H135039   4.960   3.361   7.911  2.8592  0.4171 -0.0752
 4468TIP3    H235040   4.931   3.217   7.876 -1.2337  0.8598  1.0587
 4469TIP3   OH235041   3.931   5.034   8.630 -0.7424  0.2710 -0.0177
 4469TIP3    H135042   3.837   5.047   8.643 -0.2342  2.7590  2.0191
 4469TIP3    H235043   3.958   5.108   8.576 -0.2003 -1.5000 -2.2866
 4470TIP3   OH235044   2.082   1.969   7.976 -0.4974  0.0942 -0.6660
 4470TIP3    H135045   2.102   1.914   7.900  1.3899  0.4244 -0.4536
 4470TIP3    H235046   2.144   1.942   8.043 -0.1873  1.7896 -0.2192
 4471TIP3   OH235047   5.185   1.501   7.124 -0.7563  0.7273 -0.3383
 4471TIP3    H135048   5.154   1.583   7.085 -0.9861 -0.0967 -1.9696
 4471TIP3    H235049   5.199   1.443   7.050 -0.5137 -0.6981  0.7800
 4472TIP3   OH235050   2.938   0.939   8.107 -0.7384  0.2252  0.1667
 4472TIP3    H135051   3.027   0.912   8.131 -0.9567  0.1533  0.9090
 4472TIP3    H235052   2.927   1.025   8.148 -0.0059  1.5762 -2.2795
 4473TIP3   OH235053   1.220   1.445   6.988  0.2242  0.2334  0.6161
 4473TIP3    H135054   1.164   1.372   6.963 -2.1912  1.7037  1.4346
 4473TIP3    H235055   1.164   1.522   6.982  1.4243  1.5291  3.7677
 4474TIP3   OH235056   4.492   4.730   1.447 -0.3358 -0.1117 -0.1110
 4474TIP3    H135057   4.556   4.771   1.389 -1.8252  1.9318 -0.4352
 4474TIP3    H235058   4.428   4.800   1.465 -1.1847 -1.3698  2.1030
 4475TIP3   OH235059   1.082   6.485   6.785 -0.4335  0.2980  0.6414
 4475TIP3    H135060   1.084   6.579   6.803  1.5683  0.7230 -1.4286
 4475TIP3    H235061   1.051   6.478   6.695  0.5779 -0.9420  0.3696
 4476TIP3   OH235062   4.068   4.538   8.095 -0.1159 -0.1010 -0.1958
 4476TIP3    H135063   4.159   4.551   8.067 -0.4516  2.0724 -0.4640
 4476TIP3    H235064   4.056   4.443   8.093  2.7492 -0.6558  1.8201
 4477TIP3   OH235065   6.717   5.823   1.405 -0.6533 -1.0712 -0.2932
 4477TIP3    H135066   6.712   5.915   1.431 -1.1254 -1.0278 -0.5306
 4477TIP3    H235067   6.798   5.791   1.445 -0.0568 -0.3385 -0.8868
 4478TIP3   OH235068   0.460   1.252   1.071 -0.1225  0.1080 -0.4875
 4478TIP3    H135069   0.457   1.220   0.981 -1.6196 -0.6102 -0.2160
 4478TIP3    H235070   0.368   1.264   1.095 -0.0865 -3.5304  2.2508
 4479TIP3   OH235071   5.147   4.070   1.945  0.0194  0.3894 -1.0205
 4479TIP3    H135072   5.206   4.001   1.914  0.4156  0.6559 -0.8752
 4479TIP3    H235073   5.132   4.049   2.037 -1.0314 -0.3140 -1.3328
 4480TIP3   OH235074   1.792   4.924   7.860  0.2445  0.1985 -0.0442
 4480TIP3    H135075   1.782   4.833   7.888  1.2290 -0.5664 -2.0227
 4480TIP3    H235076   1.815   4.918   7.768 -0.5546  2.5143 -0.4359
 4481TIP3   OH235077   1.759   3.186   1.484 -0.1261 -0.6712 -0.4338
 4481TIP3    H135078   1.682   3.130   1.492 -2.2116  1.7827 -2.0489
 4481TIP3    H235079   1.804   3.153   1.406  0.9709 -2.5228  0.8732
 4482TIP3   OH235080   5.868   6.635   7.417  0.2907 -0.6295  0.0258
 4482TIP3    H135081   5.905   6.548   7.430 -0.2266 -0.6333  1.6498
 4482TIP3    H235082   5.801   6.623   7.349 -1.3494 -2.0095  1.7682
 4483TIP3   OH235083   1.194   3.961   0.819  0.2857  0.0004  0.5892
 4483TIP3    H135084   1.176   3.962   0.725  0.6267  0.5890  0.5271
 4483TIP3    H235085   1.120   3.913   0.857 -0.2800  0.4872  0.1130
 4484TIP3   OH235086   3.967   0.779   8.730  0.4416 -0.0509 -0.0681
 4484TIP3    H135087   4.038   0.790   8.667 -0.2624 -1.5742 -1.1878
 4484TIP3    H235088   3.911   0.712   8.691 -1.7678  1.2933  0.6556
 4485TIP3   OH235089   5.399   1.556   7.286 -0.0364  1.0605 -0.6954
 4485TIP3    H135090   5.315   1.552   7.240 -0.7470  0.4920  0.5707
 4485TIP3    H235091   5.408   1.647   7.313 -1.1702  0.8001  0.7105
 4486TIP3   OH235092   0.550   4.046   7.059  0.1401 -0.1765 -0.1993
 4486TIP3    H135093   0.595   3.961   7.061  1.9381  0.7387 -0.4605
 4486TIP3    H235094   0.581   4.088   6.979  1.4138  1.8238  1.2620
 4487TIP3   OH235095   6.328   0.333   7.482  0.3859  0.1224  0.0661
 4487TIP3    H135096   6.359   0.423   7.493 -0.4662  0.3648  0.5481
 4487TIP3    H235097   6.323   0.321   7.387  0.8179  0.4736 -0.0017
 4488TIP3   OH235098   5.594   4.868   7.472  0.6161  0.1349  0.2007
 4488TIP3    H135099   5.651   4.886   7.397  3.2693 -0.3544  1.9818
 4488TIP3    H235100   5.521   4.929   7.462  1.2200  0.5294 -2.3955
 4489TIP3   OH235101   5.582   4.429   8.344  0.4992 -0.5654 -0.0015
 4489TIP3    H135102   5.659   4.486   8.348  0.3932 -0.5072  1.4217
 4489TIP3    H235103   5.605   4.353   8.397  0.8556 -2.1873 -2.3085
 4490TIP3   OH235104   4.981   2.354   7.019 -0.6909 -0.0345 -0.1877
 4490TIP3    H135105   5.011   2.265   7.003 -0.0507  0.2722 -0.6925
 4490TIP3    H235106   4.915   2.369   6.951 -0.8462 -0.1370 -0.0628
 4491TIP3   OH235107   6.336   2.971   0.076 -0.3184  0.3021 -0.0862
 4491TIP3    H135108   6.422   3.005   0.048 -0.2800  1.0255  0.8529
 4491TIP3    H235109   6.339   2.878   0.054  1.4555 -0.1025  1.5899
 4492TIP3   OH235110   6.262   4.944   7.593  0.2244  0.1818 -0.6284
 4492TIP3    H135111   6.299   4.868   7.548  0.1704  0.3751 -1.0044
 4492TIP3    H235112   6.303   5.019   7.550  1.6127  0.3455  0.9102
 4493TIP3   OH235113   2.992   2.390   8.176  0.0485  0.0994 -0.7784
 4493TIP3    H135114   2.993   2.471   8.226 -0.3628 -0.1657 -0.3343
 4493TIP3    H235115   3.082   2.358   8.180  0.0993  0.2739 -0.5231
 4494TIP3   OH235116   2.058   5.838   7.296 -0.2101  0.0440  0.6316
 4494TIP3    H135117   1.993   5.906   7.281 -0.7014 -0.3206  1.0832
 4494TIP3    H235118   2.138   5.872   7.256 -1.2058 -0.4968 -1.9682
 4495TIP3   OH235119   0.766   2.221   1.615 -0.3988  0.2647 -0.5376
 4495TIP3    H135120   0.854   2.247   1.641 -0.4921 -0.0758  0.1477
 4495TIP3    H235121   0.774   2.129   1.591 -0.4693  0.3707 -0.9728
 4496TIP3   OH235122   3.528   1.731   1.380  0.0903 -0.5766 -0.1089
 4496TIP3    H135123   3.503   1.641   1.401 -0.4341 -0.3507  0.2556
 4496TIP3    H235124   3.577   1.760   1.457 -0.3225 -0.3326  0.0690
 4497TIP3   OH235125   4.114   0.982   6.770 -0.1565  0.3230 -0.4491
 4497TIP3    H135126   4.040   0.933   6.805  0.5509 -1.2399 -1.0204
 4497TIP3    H235127   4.098   0.986   6.676  1.1653 -1.3437 -0.7893
 4498TIP3   OH235128   6.006   1.959   8.122 -0.0444 -0.0694  0.2298
 4498TIP3    H135129   6.080   1.902   8.101 -1.2774 -1.2960 -0.9628
 4498TIP3    H235130   5.961   1.915   8.194  1.5868  1.8220  2.5489
 4499TIP3   OH235131   6.190   6.286   0.679  0.6130 -0.2174  0.6635
 4499TIP3    H135132   6.283   6.301   0.696 -0.0269  3.5194  1.8305
 4499TIP3    H235133   6.173   6.335   0.598 -0.1476 -2.0618 -0.3603
 4500TIP3   OH235134   6.731   5.204   0.969  0.1805  0.1816  0.0296
 4500TIP3    H135135   6.655   5.151   0.947 -1.1947  1.5466  1.2180
 4500TIP3    H235136   6.740   5.194   1.064  1.2391  0.3573 -0.0427
 4501TIP3   OH235137   5.727   1.480   0.500  0.1160  0.2727 -0.2299
 4501TIP3    H135138   5.767   1.482   0.587 -1.1356 -0.7736  0.4060
 4501TIP3    H235139   5.761   1.400   0.460  0.6216  0.7073 -0.6943
 4502TIP3   OH235140   3.155   6.695   7.582  0.0723  0.1197 -0.4427
 4502TIP3    H135141   3.211   6.625   7.617 -0.1455 -0.8754 -2.0040
 4502TIP3    H235142   3.186   6.774   7.627  2.0967 -0.5455 -0.5511
 4503TIP3   OH235143   2.623   6.388   7.935  0.6734 -0.1312  0.1405
 4503TIP3    H135144   2.566   6.374   8.011  0.9022 -1.1718  0.1379
 4503TIP3    H235145   2.697   6.329   7.949  0.2406 -1.0771 -1.3629
 4504TIP3   OH235146   2.046   4.263   0.137  0.1683 -0.8732  0.5905
 4504TIP3    H135147   2.001   4.181   0.120 -1.1516 -0.4276  1.6916
 4504TIP3    H235148   2.106   4.244   0.209 -0.2253 -0.8615  0.9267
 4505TIP3   OH235149   4.159   5.830   6.447  0.5716 -0.0221 -0.0657
 4505TIP3    H135150   4.204   5.770   6.506 -0.5323 -1.1284 -0.2874
 4505TIP3    H235151   4.069   5.796   6.444  0.2974  0.7745 -1.3753
 4506TIP3   OH235152   0.776   3.640   1.044 -0.2239 -0.6246  0.0063
 4506TIP3    H135153   0.858   3.618   1.000 -0.0684 -1.8031  0.8500
 4506TIP3    H235154   0.716   3.662   0.972  1.0441  1.1545 -0.5901
 4507TIP3   OH235155   3.343   5.336   7.336 -0.3403 -0.6697 -0.0775
 4507TIP3    H135156   3.403   5.324   7.262  0.2906  2.4885 -0.2306
 4507TIP3    H235157   3.258   5.352   7.296  0.1345  1.7626 -0.2820
 4508TIP3   OH235158   4.552   0.494   8.698  0.2007  0.3888  0.4321
 4508TIP3    H135159   4.520   0.448   8.775 -0.9416  2.3974  1.2242
 4508TIP3    H235160   4.641   0.521   8.721  0.6600 -0.8636  0.1834
 4509TIP3   OH235161   2.201   3.450   1.182 -0.1656 -0.2525  0.4017
 4509TIP3    H135162   2.208   3.544   1.201  1.4708  0.2547 -2.1797
 4509TIP3    H235163   2.283   3.413   1.214  0.1412 -0.3877 -0.5168
 4510TIP3   OH235164   4.667   1.350   6.580 -0.0588  0.2493 -0.2852
 4510TIP3    H135165   4.615   1.303   6.514 -0.0202  1.0034 -0.8652
 4510TIP3    H235166   4.612   1.423   6.606  0.4165  0.6424 -0.3705
 4511TIP3   OH235167   6.223   6.400   0.416  0.0111  0.8451 -0.2936
 4511TIP3    H135168   6.139   6.368   0.382 -0.1663 -0.8257  1.5218
 4511TIP3    H235169   6.236   6.484   0.372 -1.8923  0.4731 -1.7161
 4512TIP3   OH235170   4.633   4.660   7.898  0.0717  0.1753 -0.2385
 4512TIP3    H135171   4.710   4.628   7.945 -0.1575 -0.9598 -0.6124
 4512TIP3    H235172   4.560   4.643   7.957 -0.2004 -1.1392 -0.9168
 4513TIP3   OH235173   2.574   6.318   9.026  0.0524 -0.0192 -0.2529
 4513TIP3    H135174   2.545   6.236   8.986 -1.1479  0.3068 -0.0868
 4513TIP3    H235175   2.574   6.382   8.954  0.5679 -0.0678 -0.2955
 4514TIP3   OH235176   6.330   0.018   8.082  0.1195  0.6804  0.0373
 4514TIP3    H135177   6.345   0.080   8.010  0.7983  1.6738  1.0001
 4514TIP3    H235178   6.418  -0.014   8.104  0.2038  1.9552  1.7581
 4515TIP3   OH235179   0.225   2.589   8.023 -0.4241 -0.0678  0.1241
 4515TIP3    H135180   0.285   2.647   7.976 -1.4634  1.2474  0.3590
 4515TIP3    H235181   0.246   2.604   8.115 -0.6562 -0.1179  0.1838
 4516TIP3   OH235182   4.683   5.360   0.598  0.2279  0.3878 -0.4999
 4516TIP3    H135183   4.762   5.374   0.545  0.0100  1.7855 -0.4736
 4516TIP3    H235184   4.660   5.446   0.631 -0.8705 -0.1307  0.1442
 4517TIP3   OH235185   6.502   4.244   8.874 -0.6937 -0.3795  0.2250
 4517TIP3    H135186   6.527   4.294   8.952 -1.5039 -0.0210  0.2585
 4517TIP3    H235187   6.421   4.285   8.844 -1.3431 -1.6555  0.2126
 4518TIP3   OH235188   2.026   6.569   1.682 -0.4930 -0.6414 -0.0411
 4518TIP3    H135189   2.099   6.572   1.743  1.4046 -2.3387 -2.0466
 4518TIP3    H235190   1.980   6.652   1.695  1.5414  0.3112  1.5971
 4519TIP3   OH235191   0.673   0.040   8.659  0.2839  0.7290 -0.0411
 4519TIP3    H135192   0.675   0.125   8.614  0.2008  1.1781  0.7826
 4519TIP3    H235193   0.584   0.007   8.643 -0.0494  1.3086  0.5414
 4520TIP3   OH235194   1.561   5.570   2.114 -0.0950  0.4443  0.3708
 4520TIP3    H135195   1.483   5.529   2.153 -0.7325  1.2067 -0.0839
 4520TIP3    H235196   1.545   5.566   2.020  1.4949 -1.5027  0.1138
 4521TIP3   OH235197   6.703   1.561   0.556 -0.7323 -0.2097  0.4838
 4521TIP3    H135198   6.778   1.584   0.501 -1.3536  0.9970  0.1144
 4521TIP3    H235199   6.657   1.494   0.505 -1.4114  1.0355 -0.6157
 4522TIP3   OH235200   3.402   5.965   8.620  0.1383 -0.0219 -0.5046
 4522TIP3    H135201   3.347   5.890   8.594  0.4484 -0.1778 -0.7252
 4522TIP3    H235202   3.471   5.967   8.554 -0.3734  1.0206 -1.0254
 4523TIP3   OH235203   3.847   0.406   8.897 -0.4004  0.2335 -0.3709
 4523TIP3    H135204   3.826   0.457   8.976  3.1278 -1.2239  1.7590
 4523TIP3    H235205   3.917   0.455   8.855  1.3972 -1.5347  0.4072
 4524TIP3   OH235206   4.388   5.555   0.782 -0.8243  0.3994  0.4985
 4524TIP3    H135207   4.453   5.605   0.733 -1.4070  1.8153  1.1171
 4524TIP3    H235208   4.431   5.538   0.867 -0.6650 -0.0882  0.3253
 4525TIP3   OH235209   0.629   5.321   0.672  0.5788  0.5782 -0.0216
 4525TIP3    H135210   0.577   5.251   0.634 -1.3780  2.9283 -1.9897
 4525TIP3    H235211   0.636   5.298   0.764 -2.1691 -0.9458 -0.0878
 4526TIP3   OH235212   0.966   5.418   0.416 -0.2318  0.4558 -0.0332
 4526TIP3    H135213   0.968   5.339   0.470  1.1530  0.7703  0.4018
 4526TIP3    H235214   0.985   5.387   0.328  1.6099  0.4177  0.3313
 4527TIP3   OH235215   1.999   2.206   1.495  0.3041  0.5043 -0.1842
 4527TIP3    H135216   2.047   2.231   1.574 -0.7207  1.3499  0.1874
 4527TIP3    H235217   1.955   2.287   1.467 -0.7862 -0.2084 -0.5853
 4528TIP3   OH235218   0.960   5.905   8.072  0.5261 -0.4426  0.5906
 4528TIP3    H135219   0.952   5.820   8.030 -0.9910 -1.1243  2.1138
 4528TIP3    H235220   1.019   5.889   8.146  2.8892  0.6548 -0.9534
 4529TIP3   OH235221   4.048   5.477   0.150  0.5270 -0.7467  0.0201
 4529TIP3    H135222   4.053   5.489   0.055  1.5417 -0.2791  0.1232
 4529TIP3    H235223   4.126   5.427   0.172  1.2020  0.6039  0.8178
 4530TIP3   OH235224   2.094   0.403   0.758 -0.0218  0.5743 -0.0994
 4530TIP3    H135225   2.124   0.374   0.671 -1.2715 -1.0767 -0.0271
 4530TIP3    H235226   2.047   0.328   0.794  2.4790  0.3300  3.0697
 4531TIP3   OH235227   3.932   3.785   8.859 -0.2019  0.0035 -0.2281
 4531TIP3    H135228   3.992   3.748   8.794  1.1316  0.0023  0.9484
 4531TIP3    H235229   3.989   3.821   8.926 -1.4663  2.9131 -0.5850
 4532TIP3   OH235230   1.660   0.199   8.728  0.1037  0.5704  0.8547
 4532TIP3    H135231   1.742   0.151   8.731 -0.6429 -0.9190 -0.9241
 4532TIP3    H235232   1.678   0.272   8.668  0.2380  0.4618  0.7611
 4533TIP3   OH235233   2.489   6.571   2.384 -0.1756  0.1081 -0.4918
 4533TIP3    H135234   2.537   6.503   2.338 -2.7699 -2.7222  0.6099
 4533TIP3    H235235   2.524   6.570   2.473 -0.2688  0.1249 -0.4542
 4534TIP3   OH235236   2.463   3.899   8.331 -0.0699  0.1538  0.4577
 4534TIP3    H135237   2.368   3.889   8.326 -0.1326  1.3663 -1.7521
 4534TIP3    H235238   2.478   3.935   8.418 -1.8173  1.5312  0.2494
 4535TIP3   OH235239   2.089   0.227   7.645  0.5290  0.2861 -0.0844
 4535TIP3    H135240   2.163   0.167   7.657  0.0801 -0.2039  0.3193
 4535TIP3    H235241   2.028   0.203   7.716  0.3236  1.1912  0.0550
 4536TIP3   OH235242   5.286   2.246   0.728  0.1035 -0.2580 -0.5045
 4536TIP3    H135243   5.237   2.328   0.721  1.5523  0.5793 -1.2015
 4536TIP3    H235244   5.326   2.235   0.641  2.3284 -0.1380  0.4513
 4537TIP3   OH235245   5.670   1.393   8.041  0.3120  0.0986 -0.1226
 4537TIP3    H135246   5.765   1.401   8.043  0.5249 -1.5760 -1.1905
 4537TIP3    H235247   5.654   1.298   8.045 -1.2677  0.3080 -0.6462
 4538TIP3   OH235248   2.950   5.726   1.344 -0.3651 -0.1345  0.1182
 4538TIP3    H135249   3.026   5.784   1.343 -0.1754 -0.3769  0.1383
 4538TIP3    H235250   2.987   5.640   1.365 -0.6071 -0.3075 -0.1553
 4539TIP3   OH235251   0.506   3.548   2.006 -0.1376 -0.2591 -0.0220
 4539TIP3    H135252   0.441   3.618   2.013 -0.7413 -0.8653  0.6551
 4539TIP3    H235253   0.589   3.594   1.990 -0.5317  0.6023  0.3255
 4540TIP3   OH235254   6.433   1.571   1.761 -0.1692  0.1877  0.3300
 4540TIP3    H135255   6.496   1.612   1.701 -0.4602 -0.0123 -0.1207
 4540TIP3    H235256   6.445   1.617   1.844 -0.3289  1.0253 -0.1025
 4541TIP3   OH235257   5.233   6.297   2.451 -0.6591  0.3656 -0.1141
 4541TIP3    H135258   5.179   6.290   2.372 -1.5003 -0.2711  0.4967
 4541TIP3    H235259   5.316   6.334   2.420 -0.4342 -1.2006 -1.5383
 4542TIP3   OH235260   5.585   1.997   5.905  0.2175  0.3012  0.4957
 4542TIP3    H135261   5.602   2.011   5.998  0.9467 -0.2251  0.4518
 4542TIP3    H235262   5.654   1.937   5.877 -0.5828 -0.3473 -0.1539
 4543TIP3   OH235263   5.433   4.453   2.274 -0.2591  1.1597 -0.5234
 4543TIP3    H135264   5.412   4.530   2.327 -2.6620  0.2753 -0.0803
 4543TIP3    H235265   5.349   4.418   2.248  0.7399 -1.4828 -0.5060
 4544TIP3   OH235266   3.768   3.745   6.154 -0.1606  0.1565  0.5273
 4544TIP3    H135267   3.840   3.698   6.195  0.5101  0.6301 -0.0813
 4544TIP3    H235268   3.796   3.836   6.153 -0.6273  0.3030  0.0005
 4545TIP3   OH235269   4.755   0.803   1.292  0.0881  0.1621 -0.2334
 4545TIP3    H135270   4.833   0.758   1.259 -0.8457 -1.2052 -0.6674
 4545TIP3    H235271   4.738   0.762   1.377 -1.2048 -0.9231 -0.9651
 4546TIP3   OH235272   4.336   4.978   1.837  0.2207 -0.0523  0.2961
 4546TIP3    H135273   4.298   4.943   1.918  1.2215  1.0659  1.2852
 4546TIP3    H235274   4.375   5.062   1.863 -0.6702  1.0266 -1.6489
 4547TIP3   OH235275   2.702   0.161   0.469  0.4177  0.3755  0.2132
 4547TIP3    H135276   2.795   0.176   0.449 -0.0363  0.2740 -2.3047
 4547TIP3    H235277   2.660   0.245   0.449  0.0004  0.5924  1.8729
 4548TIP3   OH235278   2.182   4.782   8.163  0.1851 -0.3387  0.1826
 4548TIP3    H135279   2.270   4.761   8.196  0.0899  1.0988  1.4294
 4548TIP3    H235280   2.191   4.869   8.125 -0.8995  0.2304  1.1803
 4549TIP3   OH235281   0.621   2.635   1.068  0.1435  0.4617 -1.0723
 4549TIP3    H135282   0.634   2.566   1.003 -0.0721  0.2308 -0.8743
 4549TIP3    H235283   0.528   2.630   1.090  0.7943 -1.9254  1.8996
 4550TIP3   OH235284   1.430   5.634   0.324  0.6351 -0.6328  0.6439
 4550TIP3    H135285   1.474   5.703   0.374  2.6475 -0.8340 -0.7190
 4550TIP3    H235286   1.381   5.585   0.390  1.8356  0.1189  2.1783
 4551TIP3   OH235287   0.726   6.093   8.780  0.6023  0.5835  0.7491
 4551TIP3    H135288   0.774   6.031   8.725 -2.0100 -1.6782  0.7965
 4551TIP3    H235289   0.718   6.172   8.727 -1.6088 -1.3963 -2.1926
 4552TIP3   OH235290   6.326   3.410   6.547 -0.2499  0.0117  0.5187
 4552TIP3    H135291   6.253   3.465   6.576  2.2933  3.3824  1.0814
 4552TIP3    H235292   6.401   3.438   6.599  1.9690 -1.8407 -1.3954
 4553TIP3   OH235293   3.309   6.591   7.139 -0.3976 -0.2236  0.7496
 4553TIP3    H135294   3.240   6.621   7.079 -1.0652 -1.3118  0.9438
 4553TIP3    H235295   3.266   6.585   7.224  0.4296  0.8613  1.2735
 4554TIP3   OH235296   1.397   3.850   0.496  0.0585 -0.1800  0.2332
 4554TIP3    H135297   1.421   3.937   0.526 -3.0789  0.3401  1.6161
 4554TIP3    H235298   1.369   3.803   0.575  0.3240 -1.9734 -0.6739
 4555TIP3   OH235299   1.312   0.928   7.272  0.2654  0.1547  0.7174
 4555TIP3    H135300   1.364   1.009   7.273 -0.4040  0.5881  0.6596
 4555TIP3    H235301   1.267   0.929   7.188  0.2935 -0.3155  0.6908
 4556TIP3   OH235302   3.988   6.102   1.367 -0.0284  0.1591 -0.3944
 4556TIP3    H135303   3.961   6.059   1.448  1.7227 -0.1358  0.0850
 4556TIP3    H235304   4.032   6.033   1.317 -1.2644  0.2840 -1.7160
 4557TIP3   OH235305   2.672   5.801   1.883  1.1238  0.0516  0.4160
 4557TIP3    H135306   2.650   5.855   1.959 -0.0384 -0.2506  0.3099
 4557TIP3    H235307   2.727   5.857   1.829  1.3831  0.5132  1.1442
 4558TIP3   OH235308   0.293   3.065   0.959 -0.1250 -0.2336  0.1178
 4558TIP3    H135309   0.382   3.098   0.950 -0.7837  1.2806 -1.6372
 4558TIP3    H235310   0.249   3.127   1.018 -0.3034 -0.3384  0.0985
 4559TIP3   OH235311   5.551   1.375   7.682 -0.0377  0.6115 -0.5909
 4559TIP3    H135312   5.492   1.337   7.617  0.3663  0.1692 -0.7025
 4559TIP3    H235313   5.538   1.470   7.674 -1.8369  0.4925  0.4251
 4560TIP3   OH235314   1.858   2.210   7.144 -0.8573  0.1554  0.0597
 4560TIP3    H135315   1.785   2.149   7.153 -0.0078 -0.7233  1.3309
 4560TIP3    H235316   1.861   2.230   7.051 -2.7645  0.2948 -0.0043
 4561TIP3   OH235317   0.402   3.974   7.901  0.4212  0.2807 -0.6101
 4561TIP3    H135318   0.423   4.048   7.958  0.2270 -0.7416  0.8182
 4561TIP3    H235319   0.310   3.955   7.919  0.6058 -0.6296 -0.6057
 4562TIP3   OH235320   4.843   2.510   8.468 -0.0847  0.0879 -0.4643
 4562TIP3    H135321   4.869   2.602   8.460 -2.5535  0.9266  0.0069
 4562TIP3    H235322   4.897   2.464   8.405  1.7790  1.7322 -0.1598
 4563TIP3   OH235323   0.049   3.418   2.273  0.3786 -0.0698 -0.2285
 4563TIP3    H135324  -0.021   3.480   2.295  1.3230  0.3294  1.8543
 4563TIP3    H235325   0.004   3.347   2.227 -1.3041  0.4755  0.4929
 4564TIP3   OH235326   2.226   1.509   2.261  0.2621  0.2960  0.2289
 4564TIP3    H135327   2.287   1.571   2.301  0.6685 -0.7520  1.3145
 4564TIP3    H235328   2.282   1.438   2.229 -0.0941  0.9017 -1.8911
 4565TIP3   OH235329   5.944   6.040   7.707  0.5694  0.0648 -0.6383
 4565TIP3    H135330   5.869   5.998   7.665  0.5045  0.4125 -0.8786
 4565TIP3    H235331   6.011   5.972   7.711  0.4308 -0.0896 -0.9303
 4566TIP3   OH235332   4.114   4.498   8.700  0.3815 -0.5557  0.1897
 4566TIP3    H135333   4.097   4.590   8.679 -0.2107 -0.9088 -0.9269
 4566TIP3    H235334   4.191   4.501   8.757  0.6741  0.6000 -0.2335
 4567TIP3   OH235335   4.381   5.594   0.059 -0.1175 -0.0209  0.2413
 4567TIP3    H135336   4.379   5.548   0.143  2.8736 -1.7326 -0.4395
 4567TIP3    H235337   4.376   5.524  -0.007  0.2085  1.0306 -0.9427
 4568TIP3   OH235338   2.331   1.023   0.878  0.3398 -0.6701  0.5090
 4568TIP3    H135339   2.349   0.934   0.847 -1.1152 -1.4524  1.7787
 4568TIP3    H235340   2.405   1.043   0.936  0.2432 -1.4066  0.9005
 4569TIP3   OH235341   3.842   2.025   0.871  0.5182 -0.3063 -0.3200
 4569TIP3    H135342   3.820   1.944   0.917 -1.6549  0.7667  0.6840
 4569TIP3    H235343   3.842   2.092   0.938  2.0871  0.6115 -1.1679
 4570TIP3   OH235344   2.598   6.010   1.620 -0.1924  0.5018 -0.6149
 4570TIP3    H135345   2.678   5.965   1.647 -0.7513 -0.0909  0.0927
 4570TIP3    H235346   2.606   6.018   1.525  0.2010 -0.5636 -0.6845
 4571TIP3   OH235347   0.896   5.389   0.725  0.3389 -0.5947 -0.3384
 4571TIP3    H135348   0.968   5.335   0.691  0.0089 -2.3531  1.5727
 4571TIP3    H235349   0.817   5.338   0.706 -0.0397 -0.5052  0.9137
 4572TIP3   OH235350   0.073   3.834   8.776  0.4493 -0.3252 -0.1498
 4572TIP3    H135351   0.030   3.783   8.844 -0.7605  1.3965  0.4465
 4572TIP3    H235352   0.065   3.925   8.805 -0.9637  0.5933 -2.9599
 4573TIP3   OH235353   4.473   2.778   8.247  0.3849 -0.8922  0.7005
 4573TIP3    H135354   4.491   2.805   8.157 -2.3513  0.3479  0.4298
 4573TIP3    H235355   4.544   2.817   8.299  1.5997 -1.0269 -0.8047
 4574TIP3   OH235356   2.501   4.010   0.069 -0.6235 -0.3952  0.8360
 4574TIP3    H135357   2.524   3.984   0.158  0.7135 -1.6578  0.1786
 4574TIP3    H235358   2.562   4.080   0.047 -1.3527  0.3346  1.1097
 4575TIP3   OH235359   5.219   4.231   9.077  0.1042 -0.5068 -0.1626
 4575TIP3    H135360   5.129   4.218   9.049  0.2696  0.0071 -0.9653
 4575TIP3    H235361   5.258   4.143   9.071  0.0854 -0.4476 -1.4161
 4576TIP3   OH235362   0.772   5.575   0.571  0.1023 -0.0374  0.3317
 4576TIP3    H135363   0.697   5.515   0.573  0.1732 -0.1180  0.5911
 4576TIP3    H235364   0.846   5.520   0.545  0.1324 -0.0231  0.3881
 4577TIP3   OH235365   5.765   3.121   1.586 -0.2844 -0.0941 -0.6640
 4577TIP3    H135366   5.683   3.143   1.632 -0.3558 -0.4515 -0.6157
 4577TIP3    H235367   5.738   3.104   1.496  0.0577  2.1117 -1.2339
 4578TIP3   OH235368   6.555   1.169   7.537 -0.1879 -0.6339 -0.1734
 4578TIP3    H135369   6.590   1.184   7.625  0.0505 -0.0110 -0.3637
 4578TIP3    H235370   6.492   1.098   7.548 -0.4461 -0.3082  0.5704
 4579TIP3   OH235371   2.289   2.047   1.460  0.1856 -0.5730  0.6615
 4579TIP3    H135372   2.347   2.094   1.520  0.6861  0.0281 -0.2678
 4579TIP3    H235373   2.230   2.114   1.425 -1.0219 -1.1515  1.4959
 4580TIP3   OH235374   1.036   1.719   7.287 -0.3578  0.4723 -0.3071
 4580TIP3    H135375   1.008   1.628   7.280 -1.8375  0.8082  0.6944
 4580TIP3    H235376   0.971   1.768   7.238 -0.1884  1.0817  0.0674
 4581TIP3   OH235377   4.579   0.365   8.963  0.4770  0.2251 -0.1423
 4581TIP3    H135378   4.493   0.376   9.004  1.5660 -1.3567  2.8970
 4581TIP3    H235379   4.600   0.273   8.976  2.2636  0.3682 -1.6486
 4582TIP3   OH235380   6.560   6.478   8.245 -0.3743 -0.7658  0.8812
 4582TIP3    H135381   6.651   6.454   8.264  0.0376 -0.4820 -0.6070
 4582TIP3    H235382   6.564   6.572   8.227 -0.4354 -1.2416 -1.9859
 4583TIP3   OH235383   4.011   5.884   1.174 -0.4873 -0.2105  0.0933
 4583TIP3    H135384   4.091   5.844   1.205  0.3366  0.3560 -1.1956
 4583TIP3    H235385   3.974   5.821   1.112  1.3870  1.2774 -2.7962
 4584TIP3   OH235386   4.770   5.670   2.271  0.0198  0.0329  0.1322
 4584TIP3    H135387   4.732   5.656   2.357 -3.0231 -0.7483 -1.2141
 4584TIP3    H235388   4.835   5.600   2.262 -1.6334 -1.6640  0.7630
 4585TIP3   OH235389   2.679   3.495   6.601  0.3118  0.4994  0.2235
 4585TIP3    H135390   2.593   3.528   6.629 -0.6418  0.5647 -2.4302
 4585TIP3    H235391   2.739   3.568   6.615 -0.5760  1.3086 -0.0405
 4586TIP3   OH235392   4.665   3.394   6.646  0.1123 -0.1554  0.3651
 4586TIP3    H135393   4.731   3.462   6.659  0.2991 -0.3685  0.5474
 4586TIP3    H235394   4.651   3.357   6.733 -0.5858  0.1940  0.4045
 4587TIP3   OH235395   6.359   0.298   0.969  0.5391 -0.0270  0.2806
 4587TIP3    H135396   6.280   0.320   0.919  0.2883 -0.8218  0.3082
 4587TIP3    H235397   6.365   0.366   1.036  0.6578  0.8196 -0.5786
 4588TIP3   OH235398   0.194   5.773   8.560  0.4614  0.3095 -0.3244
 4588TIP3    H135399   0.179   5.732   8.475 -0.0155 -1.2406  0.4556
 4588TIP3    H235400   0.143   5.854   8.557 -0.7107 -0.4223 -1.0132
 4589TIP3   OH235401   1.730   0.753   0.022  0.2619  0.0185  0.1748
 4589TIP3    H135402   1.670   0.679   0.016  1.9135 -1.4122  0.2846
 4589TIP3    H235403   1.751   0.775  -0.069  0.0247  0.1403  0.1484
 4590TIP3   OH235404   0.759   4.651   7.185  0.3269 -0.2475 -0.6502
 4590TIP3    H135405   0.731   4.575   7.236 -0.8461 -1.2476 -2.6622
 4590TIP3    H235406   0.723   4.726   7.233  0.7727 -0.9817  0.9017
 4591TIP3   OH235407   6.350   3.073   1.167  0.4779 -0.0184 -0.4526
 4591TIP3    H135408   6.350   3.071   1.071 -0.5732  1.2461 -0.4970
 4591TIP3    H235409   6.352   3.166   1.190  1.0828 -0.3132  0.7637
 4592TIP3   OH235410   0.788   6.652   7.806  0.6681  0.0947 -0.2919
 4592TIP3    H135411   0.795   6.578   7.867  0.8609  0.0024 -0.4255
 4592TIP3    H235412   0.698   6.683   7.817  0.5524 -0.2267 -0.3121
 4593TIP3   OH235413   2.194   4.364   8.502 -0.4761 -0.1156  0.0700
 4593TIP3    H135414   2.149   4.399   8.425 -2.0987 -0.1578  0.9528
 4593TIP3    H235415   2.183   4.269   8.494 -0.4098 -0.1351  0.2229
 4594TIP3   OH235416   2.442   1.195   0.453 -0.3623  0.1767 -0.5473
 4594TIP3    H135417   2.520   1.160   0.496 -1.2901 -1.7671 -0.3573
 4594TIP3    H235418   2.422   1.275   0.502  0.6134 -0.1360  0.4040
 4595TIP3   OH235419   4.671   5.723   6.924 -0.4329  0.1549  0.1495
 4595TIP3    H135420   4.600   5.682   6.874 -0.7125  0.3434  0.3911
 4595TIP3    H235421   4.723   5.769   6.858  2.0419 -3.5238 -0.7333
 4596TIP3   OH235422   2.477   4.122   0.930  0.0078 -0.0948 -0.6102
 4596TIP3    H135423   2.444   4.099   1.017  1.1799 -2.1878 -0.6431
 4596TIP3    H235424   2.400   4.151   0.882 -1.2271 -1.7888  0.2496
 4597TIP3   OH235425   5.292   3.824   8.328 -0.1141 -0.7362  0.4035
 4597TIP3    H135426   5.202   3.825   8.362  0.6152  1.2486  2.5699
 4597TIP3    H235427   5.341   3.770   8.390  0.3944 -0.8051 -0.0573
 4598TIP3   OH235428   3.113   2.997   0.664  0.6467 -0.3173  0.5631
 4598TIP3    H135429   3.108   2.902   0.654 -0.4399 -0.2810  0.6768
 4598TIP3    H235430   3.126   3.029   0.575 -1.3655 -0.4488  0.1910
 4599TIP3   OH235431   3.080   1.968   8.294  0.2116  0.2764 -0.3786
 4599TIP3    H135432   3.090   1.920   8.376  0.7513  2.3097  0.8225
 4599TIP3    H235433   3.157   1.946   8.243 -0.3845 -1.4112 -0.6030
 4600TIP3   OH235434   1.266   2.413   8.146  0.4521 -0.0977 -0.6005
 4600TIP3    H135435   1.321   2.356   8.092 -0.8960  0.7395 -3.0054
 4600TIP3    H235436   1.292   2.502   8.121  0.1360  0.3412  0.5582
 4601TIP3   OH235437   0.631   6.348   0.995  0.4082  0.3375  0.0847
 4601TIP3    H135438   0.634   6.354   0.900 -1.5670 -0.3225 -0.0490
 4601TIP3    H235439   0.706   6.291   1.017  0.5943  0.0831 -1.1073
 4602TIP3   OH235440   1.070   3.340   7.576  0.1259  0.0813 -0.1293
 4602TIP3    H135441   1.136   3.290   7.624  1.5952  1.1550 -0.9479
 4602TIP3    H235442   1.118   3.381   7.505 -1.1423  2.0451  0.0707
 4603TIP3   OH235443   4.765   1.570   6.941  0.4250 -0.4379 -0.0760
 4603TIP3    H135444   4.740   1.650   6.894  0.1019 -0.4836  0.0153
 4603TIP3    H235445   4.785   1.507   6.872  1.3958 -0.0609 -0.1519
 4604TIP3   OH235446   0.694   1.189   1.401 -0.0330  0.0111  0.5428
 4604TIP3    H135447   0.610   1.151   1.378  0.4237  0.2478 -1.7609
 4604TIP3    H235448   0.753   1.163   1.330  1.4024  1.2719  1.2001
 4605TIP3   OH235449   1.693   0.807   7.619 -0.5696 -0.1559  0.2584
 4605TIP3    H135450   1.688   0.830   7.712 -0.2391  0.5285  0.1172
 4605TIP3    H235451   1.667   0.888   7.574 -0.5522 -0.4322 -0.2443
 4606TIP3   OH235452   2.133   5.292   7.996  0.2382 -0.1237  0.0162
 4606TIP3    H135453   2.140   5.284   7.901 -1.6855  0.7029 -0.2392
 4606TIP3    H235454   2.084   5.215   8.024  1.7654 -0.9469  0.5103
 4607TIP3   OH235455   1.542   3.013   1.556  0.1795  0.3239 -0.3716
 4607TIP3    H135456   1.484   3.035   1.629  2.1308  0.8190  1.1173
 4607TIP3    H235457   1.528   2.919   1.543 -1.8556  0.6443 -0.9638
 4608TIP3   OH235458   6.251   4.471   1.225 -0.0526  0.8504 -0.2626
 4608TIP3    H135459   6.215   4.393   1.267  1.2727 -0.3883 -1.3109
 4608TIP3    H235460   6.314   4.505   1.289  1.0403 -0.2960 -0.6905
 4609TIP3   OH235461   3.487   6.129   6.280  0.4250 -0.1854  0.1884
 4609TIP3    H135462   3.401   6.090   6.269  0.8925 -0.9907 -0.8667
 4609TIP3    H235463   3.486   6.206   6.223  0.9853 -1.2210 -1.2728
 4610TIP3   OH235464   0.286   3.771   0.937  0.1941  0.1368 -0.4200
 4610TIP3    H135465   0.290   3.712   1.013  1.8548 -0.8736 -1.2287
 4610TIP3    H235466   0.345   3.843   0.960  0.4932 -0.0369 -0.6422
 4611TIP3   OH235467   0.082   3.830   1.556  0.0670  0.1535 -0.1131
 4611TIP3    H135468   0.023   3.904   1.570 -0.2615 -0.3627  1.5070
 4611TIP3    H235469   0.169   3.870   1.548  0.2555  0.6865  3.2083
 4612TIP3   OH235470   2.887   6.405   0.768 -0.3723  0.1987 -0.1114
 4612TIP3    H135471   2.842   6.416   0.852 -1.6525  0.7941 -0.8575
 4612TIP3    H235472   2.831   6.346   0.718  0.0218  0.3950 -0.8017
 4613TIP3   OH235473   0.971   4.145   8.659  0.7785 -0.0924 -0.1578
 4613TIP3    H135474   0.905   4.092   8.615  0.4190  1.4160 -1.5260
 4613TIP3    H235475   1.045   4.085   8.671 -0.1119 -1.2721 -0.3652
 4614TIP3   OH235476   3.693   0.487   0.756 -0.0658  0.1602  0.2023
 4614TIP3    H135477   3.599   0.473   0.746  0.1053 -0.9509  0.0467
 4614TIP3    H235478   3.719   0.532   0.676 -1.0455  3.8095  1.7421
 4615TIP3   OH235479   2.591   3.756   0.803 -0.1399  0.1628  0.2458
 4615TIP3    H135480   2.515   3.730   0.855  1.2307  0.5941  2.6560
 4615TIP3    H235481   2.662   3.700   0.834  1.1157  1.5669  0.0540
 4616TIP3   OH235482   3.927   4.240   0.857  0.0590 -0.2985 -0.2499
 4616TIP3    H135483   3.916   4.287   0.774 -0.4516  1.1545  0.5898
 4616TIP3    H235484   3.840   4.206   0.877 -0.5622  1.7851  1.0113
 4617TIP3   OH235485   0.659   1.045   7.557 -0.1997 -0.5682 -0.3995
 4617TIP3    H135486   0.566   1.041   7.534 -0.1864 -0.9918 -0.3861
 4617TIP3    H235487   0.693   1.116   7.504 -0.8969  0.8002  0.9063
 4618TIP3   OH235488   4.939   2.417   7.311  0.5905  0.0261 -0.1178
 4618TIP3    H135489   4.949   2.445   7.220 -0.8860  0.6564 -0.1114
 4618TIP3    H235490   4.943   2.498   7.362 -5.2136  0.8029 -0.2113
 4619TIP3   OH235491   4.467   1.632   8.758  0.1437 -0.2153  0.0959
 4619TIP3    H135492   4.478   1.727   8.760 -2.9506  0.2430  1.0502
 4619TIP3    H235493   4.431   1.613   8.671 -0.0175 -0.3757  0.1958
 4620TIP3   OH235494   0.801   3.136   1.140 -0.1563 -0.2859  0.1916
 4620TIP3    H135495   0.785   3.068   1.206  0.6805 -1.0133 -0.3369
 4620TIP3    H235496   0.895   3.133   1.124 -0.5697 -1.7614 -2.7145
 4621TIP3   OH235497   5.147   2.736   6.905 -0.2855  0.3048 -0.5343
 4621TIP3    H135498   5.167   2.805   6.969  1.2976  0.0687 -0.7225
 4621TIP3    H235499   5.206   2.754   6.831 -0.1060 -1.0211 -0.7417
 4622TIP3   OH235500   2.800   5.928   7.302 -0.1850 -0.2425 -0.2071
 4622TIP3    H135501   2.768   5.909   7.214 -1.1053  2.0022 -0.4149
 4622TIP3    H235502   2.765   5.857   7.356 -0.9750 -0.7619 -1.3473
 4623TIP3   OH235503   4.890   4.181   1.186  0.1590 -0.2316 -0.1397
 4623TIP3    H135504   4.849   4.209   1.104  0.7724  1.5091  0.1094
 4623TIP3    H235505   4.816   4.164   1.245 -0.2530  1.0987 -0.2443
 4624TIP3   OH235506   2.506   6.694   8.618 -0.0747 -0.3163  0.3976
 4624TIP3    H135507   2.429   6.638   8.620  0.2576 -0.8100 -0.2177
 4624TIP3    H235508   2.472   6.779   8.590 -0.4837 -0.3688  0.7209
 4625TIP3   OH235509   0.337   6.421   7.633 -0.5307 -0.3587 -0.0431
 4625TIP3    H135510   0.277   6.347   7.622  1.6489 -2.0408 -1.7960
 4625TIP3    H235511   0.297   6.492   7.583 -1.6772 -0.9966 -0.0758
 4626TIP3   OH235512   3.101   2.692   2.036 -0.0970  0.2374  0.2609
 4626TIP3    H135513   3.151   2.614   2.060  2.9802  0.8008 -3.2970
 4626TIP3    H235514   3.102   2.747   2.114 -0.4269 -2.2970  2.1568
 4627TIP3   OH235515   1.744   1.222   7.289 -0.1196 -0.6742 -0.5803
 4627TIP3    H135516   1.822   1.255   7.333 -0.5473 -0.2708 -0.1243
 4627TIP3    H235517   1.731   1.281   7.215 -0.4515 -0.2626 -0.1965
 4628TIP3   OH235518   4.908   4.156   1.529  0.8765  0.2119 -0.0322
 4628TIP3    H135519   4.819   4.144   1.496  0.9075 -0.6404  0.1657
 4628TIP3    H235520   4.925   4.249   1.518 -0.4197  0.5966  0.8853
 4629TIP3   OH235521   0.512   0.211   1.492 -0.0731 -0.0616  0.4926
 4629TIP3    H135522   0.482   0.224   1.582 -0.4155 -0.7707  0.4932
 4629TIP3    H235523   0.584   0.148   1.500 -1.2844 -1.5500  0.1268
 4630TIP3   OH235524   2.582   4.019   8.911  0.1535 -0.0416 -0.1044
 4630TIP3    H135525   2.533   4.008   8.992  1.4736 -0.7192  0.6372
 4630TIP3    H235526   2.516   4.012   8.842 -0.6446 -2.0250  0.7936
 4631TIP3   OH235527   2.904   2.701   7.035  0.4213 -0.1296 -0.1688
 4631TIP3    H135528   2.877   2.611   7.056 -1.1337  0.2771 -0.3199
 4631TIP3    H235529   2.829   2.755   7.060  0.9751  1.0341 -0.9588
 4632TIP3   OH235530   4.657   2.810   6.735  0.5593  0.2190 -0.0856
 4632TIP3    H135531   4.678   2.740   6.673 -2.6003 -3.4319  2.5545
 4632TIP3    H235532   4.723   2.802   6.804 -0.2341 -0.7768  0.5868
 4633TIP3   OH235533   2.490   3.172   1.029 -0.7543  0.3760  0.3175
 4633TIP3    H135534   2.451   3.230   0.964 -0.7161 -1.1864 -1.1610
 4633TIP3    H235535   2.510   3.229   1.103 -0.4348  2.3003 -1.1757
 4634TIP3   OH235536   6.714   6.550   8.958  0.1741  0.0094  0.7668
 4634TIP3    H135537   6.789   6.491   8.970 -0.0882 -0.4625  0.1134
 4634TIP3    H235538   6.657   6.530   9.032 -0.3449 -1.2279  0.0552
 4635TIP3   OH235539   2.715   3.516   1.146 -0.1426 -0.1554  0.5667
 4635TIP3    H135540   2.753   3.562   1.071  0.7475 -1.3732  0.2558
 4635TIP3    H235541   2.763   3.434   1.151  0.0457  0.0373  2.6945
 4636TIP3   OH235542   3.600   0.899   8.331 -0.1323 -0.3363  0.5526
 4636TIP3    H135543   3.612   0.859   8.244  0.4557  0.1996  0.3792
 4636TIP3    H235544   3.685   0.889   8.373 -0.5375 -0.9839  1.2441
 4637TIP3   OH235545   4.748   4.595   8.541 -0.6442  0.0930 -0.1490
 4637TIP3    H135546   4.765   4.688   8.529 -2.1032  0.8690  2.9290
 4637TIP3    H235547   4.658   4.590   8.571 -0.6237 -2.3364 -0.2625
 4638TIP3   OH235548   5.901   1.551   8.193 -0.3814 -0.0437  0.7400
 4638TIP3    H135549   5.897   1.567   8.099 -0.2983 -2.3183  0.2940
 4638TIP3    H235550   5.989   1.515   8.208 -1.3927 -2.5703  1.1080
 4639TIP3   OH235551   2.009   0.321   7.173 -0.0352  0.2354  0.1837
 4639TIP3    H135552   1.928   0.270   7.182 -0.4620  1.0358  0.9655
 4639TIP3    H235553   2.061   0.297   7.249 -0.0229  0.5758  0.2842
 4640TIP3   OH235554   2.164   5.943   7.524  0.1786 -0.3132  0.1345
 4640TIP3    H135555   2.188   6.030   7.492 -2.2897  0.6789  0.7246
 4640TIP3    H235556   2.133   5.897   7.446 -2.0607  0.7238  0.3231
 4641TIP3   OH235557   5.255   6.178   0.581  0.4075 -0.3335 -0.1098
 4641TIP3    H135558   5.300   6.261   0.562  0.9416 -0.5005  0.4059
 4641TIP3    H235559   5.325   6.117   0.604  0.0157 -0.9413 -0.5115
 4642TIP3   OH235560   2.327   3.721   0.448 -0.1629 -0.6755 -0.2889
 4642TIP3    H135561   2.253   3.774   0.417  0.6263  1.1320  0.7549
 4642TIP3    H235562   2.352   3.762   0.531  0.3948 -2.8278  0.6804
 4643TIP3   OH235563   6.191   1.777   8.421  0.4410 -0.4152 -0.2170
 4643TIP3    H135564   6.182   1.737   8.507 -0.3434  0.4429  0.1216
 4643TIP3    H235565   6.247   1.853   8.436 -0.9736  0.6508 -0.1186
 4644TIP3   OH235566   6.013   6.232   1.173 -0.7008  0.6004 -0.5181
 4644TIP3    H135567   6.022   6.145   1.132 -1.0659  1.0439 -1.5831
 4644TIP3    H235568   6.025   6.216   1.266  1.0350 -0.3272 -0.8528
 4645TIP3   OH235569   3.244   4.547   0.801 -0.3604 -0.2658 -0.3800
 4645TIP3    H135570   3.302   4.536   0.726 -3.4757 -0.2470 -3.0637
 4645TIP3    H235571   3.218   4.458   0.824 -0.7035 -0.1956 -0.4861
 4646TIP3   OH235572   0.924   4.666   7.562  0.0602  0.5267  0.5511
 4646TIP3    H135573   0.829   4.682   7.562  0.5912  4.7635  0.6697
 4646TIP3    H235574   0.940   4.618   7.480 -2.1066  0.1408  0.2970
 4647TIP3   OH235575   6.307   1.628   6.723  0.0215  0.3200 -0.2284
 4647TIP3    H135576   6.236   1.565   6.719 -2.4076  2.7537  1.2899
 4647TIP3    H235577   6.327   1.648   6.632  0.1728 -1.7969 -0.7224
 4648TIP3   OH235578   4.726   5.929   0.396  0.4433 -0.5737  0.0018
 4648TIP3    H135579   4.793   5.882   0.446  0.3144 -0.5326  0.2135
 4648TIP3    H235580   4.732   5.892   0.308 -1.4954 -2.9405  0.7853
 4649TIP3   OH235581   1.421   1.789   9.080 -0.3245  0.0586 -0.6383
 4649TIP3    H135582   1.406   1.862   9.019 -1.3185  0.3333 -0.0853
 4649TIP3    H235583   1.335   1.748   9.091 -0.6041  1.1419  1.9655
 4650TIP3   OH235584   3.846   4.307   1.900 -0.9345  0.1214 -0.5653
 4650TIP3    H135585   3.931   4.265   1.913 -2.5554 -3.1112  0.8868
 4650TIP3    H235586   3.842   4.375   1.967  0.7932  0.9363 -1.2373
 4651TIP3   OH235587   2.869   3.609   8.326  0.4719  0.2353  0.5055
 4651TIP3    H135588   2.909   3.531   8.364 -0.6880 -0.6173  0.0455
 4651TIP3    H235589   2.892   3.680   8.387  1.2553 -0.5206  1.1139
 4652TIP3   OH235590   4.506   3.339   8.330 -0.6201 -0.0603  0.9022
 4652TIP3    H135591   4.600   3.357   8.334 -0.8383  1.0444  1.6439
 4652TIP3    H235592   4.474   3.358   8.418 -1.4930 -0.7109  0.7362
 4653TIP3   OH235593   3.076   2.553   0.881  0.1607  0.2099  0.3507
 4653TIP3    H135594   3.048   2.582   0.967 -1.4679  1.6503 -0.5838
 4653TIP3    H235595   3.033   2.468   0.869 -0.2123  0.3466  0.6956
 4654TIP3   OH235596   6.291   5.940   2.002  0.4680 -0.1783  0.0147
 4654TIP3    H135597   6.244   5.875   1.951  1.1320  1.3965 -2.8672
 4654TIP3    H235598   6.381   5.937   1.967  1.1317  0.5991  1.5502
 4655TIP3   OH235599   1.268   0.202   0.572 -0.8340  0.4791  0.0024
 4655TIP3    H135600   1.256   0.166   0.660  1.4986 -0.3823  0.0518
 4655TIP3    H235601   1.340   0.264   0.581  1.0386 -1.2962 -1.6094
 4656TIP3   OH235602   4.358   2.479   1.283  0.4861 -0.0251  0.0364
 4656TIP3    H135603   4.376   2.489   1.189  0.1804 -1.0887 -0.1539
 4656TIP3    H235604   4.443   2.489   1.325  0.6592  0.2504 -0.3728
 4657TIP3   OH235605   0.641   4.005   8.341  0.3012  0.0583 -0.3509
 4657TIP3    H135606   0.670   3.924   8.298 -0.4464 -0.3687 -0.0832
 4657TIP3    H235607   0.718   4.062   8.340  0.9790 -0.8272 -0.1433
 4658TIP3   OH235608   5.258   1.927   0.449 -0.4021 -0.1808 -0.2619
 4658TIP3    H135609   5.350   1.941   0.430 -0.3857 -1.1490 -0.9587
 4658TIP3    H235610   5.212   1.996   0.401 -0.0434  0.3638  0.1684
 4659TIP3   OH235611   5.250   0.952   7.179 -0.2594  0.1720  0.0909
 4659TIP3    H135612   5.239   1.044   7.203  1.2220  0.2008  0.7484
 4659TIP3    H235613   5.221   0.948   7.088 -1.3867  1.0483  0.3769
 4660TIP3   OH235614   2.115   0.156   1.077 -0.3172  0.8217  0.1954
 4660TIP3    H135615   2.055   0.206   1.021  0.2188  1.2508  0.0030
 4660TIP3    H235616   2.074   0.069   1.084 -0.2984  0.6989 -1.0198
 4661TIP3   OH235617   4.787   3.273   6.227  0.0687 -0.2165  0.2021
 4661TIP3    H135618   4.705   3.295   6.271 -0.0276 -0.8312  0.3302
 4661TIP3    H235619   4.791   3.178   6.229 -0.5602 -0.3526 -2.2400
 4662TIP3   OH235620   3.042   5.687   0.078  0.2685  0.6846 -0.1489
 4662TIP3    H135621   3.046   5.600   0.039  0.2048 -0.3609  1.9869
 4662TIP3    H235622   2.959   5.723   0.049 -0.1818 -0.3929 -0.2572
 4663TIP3   OH235623   0.974   5.983   6.827 -0.2942  0.2992  0.4180
 4663TIP3    H135624   0.947   5.932   6.904 -1.5704  1.4756  0.7909
 4663TIP3    H235625   1.069   5.981   6.829 -0.2763  1.0107  2.5335
 4664TIP3   OH235626   5.899   6.490   9.017  0.1784  0.4145 -0.2587
 4664TIP3    H135627   5.951   6.566   9.042 -0.0473  0.8097 -0.9372
 4664TIP3    H235628   5.838   6.524   8.951 -1.3724  0.1192  0.9577
 4665TIP3   OH235629   2.174   2.773   0.154  0.5141 -0.1360 -0.1110
 4665TIP3    H135630   2.157   2.855   0.200  3.3635  0.2212  0.4831
 4665TIP3    H235631   2.266   2.755   0.169  0.1385 -3.1888 -0.7103
 4666TIP3   OH235632   6.135   5.694   0.091 -0.0628 -0.2851  0.3398
 4666TIP3    H135633   6.047   5.699   0.129 -0.8670  1.1362 -1.5159
 4666TIP3    H235634   6.192   5.731   0.157 -1.3396  1.7491  0.3917
 4667TIP3   OH235635   6.127   0.604   7.517  0.0987  0.3299  0.5254
 4667TIP3    H135636   6.178   0.606   7.436 -1.6110  2.5950 -0.6164
 4667TIP3    H235637   6.063   0.535   7.503  0.2834  0.2053  0.2750
 4668TIP3   OH235638   5.174   3.947   1.348  0.6467 -0.0156 -0.0083
 4668TIP3    H135639   5.254   3.960   1.298  2.6066 -1.6664  2.4678
 4668TIP3    H235640   5.124   3.883   1.297  0.8049  1.0688 -1.6077
 4669TIP3   OH235641   1.116   3.981   6.910  0.3372 -0.5239  0.1029
 4669TIP3    H135642   1.052   4.008   6.844 -0.2548 -0.9289  0.5070
 4669TIP3    H235643   1.178   3.926   6.861 -0.0180 -0.7103 -0.1471
 4670TIP3   OH235644   0.074   4.343   9.039  0.1951 -0.2653 -0.2248
 4670TIP3    H135645   0.033   4.259   9.059  1.2477 -0.7710 -0.1309
 4670TIP3    H235646   0.168   4.325   9.041  0.4268  0.3725 -2.4307
 4671TIP3   OH235647   4.118   3.743   0.109  0.2238 -0.0963  0.3313
 4671TIP3    H135648   4.074   3.662   0.134 -0.9056  0.1952 -0.5802
 4671TIP3    H235649   4.144   3.729   0.018 -0.1767  0.6174  0.0929
 4672TIP3   OH235650   2.362   6.628   1.609 -0.1551  0.0207  0.2536
 4672TIP3    H135651   2.317   6.588   1.683 -0.3884  1.0118  0.6681
 4672TIP3    H235652   2.445   6.660   1.646  0.1805 -0.3737 -0.1438
 4673TIP3   OH235653   5.457   4.685   0.002  0.3146 -0.1406  0.0342
 4673TIP3    H135654   5.400   4.649   0.070 -1.7092  1.1390 -0.9047
 4673TIP3    H235655   5.398   4.726  -0.060  2.3266  2.2593 -0.4574
 4674TIP3   OH235656   1.460   4.668   7.539  0.0343 -0.5919  0.6243
 4674TIP3    H135657   1.517   4.652   7.464  1.3746  1.0953  1.2172
 4674TIP3    H235658   1.372   4.672   7.502  0.7657  1.3765 -1.0937
 4675TIP3   OH235659   2.158   6.373   1.519 -0.3409  0.1100  0.1889
 4675TIP3    H135660   2.176   6.459   1.556  0.7911 -0.1988  0.4140
 4675TIP3    H235661   2.184   6.380   1.427 -0.8803  0.1956  0.0410
 4676TIP3   OH235662   6.052   1.066   8.590  0.2795 -0.2140  0.1706
 4676TIP3    H135663   6.048   1.159   8.615 -1.3134  0.1154 -1.1227
 4676TIP3    H235664   6.133   1.034   8.630  1.1890  1.8792  0.1746
 4677TIP3   OH235665   1.498   6.381   9.026 -0.0873 -0.0918  0.4438
 4677TIP3    H135666   1.440   6.330   9.082  0.6852 -1.6739 -0.1444
 4677TIP3    H235667   1.583   6.339   9.034  0.0979 -0.2829 -1.7358
 4678TIP3   OH235668   5.212   6.737   0.380 -1.1289 -0.1665 -0.3411
 4678TIP3    H135669   5.272   6.783   0.322 -0.9046  1.3943  1.0249
 4678TIP3    H235670   5.247   6.754   0.468 -2.5406 -0.7550  0.3631
 4679TIP3   OH235671   1.494   5.339   0.267 -0.3999 -0.1939  0.4797
 4679TIP3    H135672   1.473   5.260   0.218 -0.4355 -0.7282  1.3327
 4679TIP3    H235673   1.544   5.307   0.343  0.5612  0.7073  0.2513
 4680TIP3   OH235674   1.863   1.578   7.844 -0.1284 -0.0155 -0.1856
 4680TIP3    H135675   1.782   1.527   7.855  0.9395 -1.4498  1.6926
 4680TIP3    H235676   1.833   1.669   7.839 -1.9161 -0.5917 -0.7674
 4681TIP3   OH235677   4.639   4.567   7.347  0.5753  0.6260 -0.1181
 4681TIP3    H135678   4.605   4.645   7.305 -0.4009 -0.0061 -0.5395
 4681TIP3    H235679   4.596   4.565   7.433 -0.6527 -0.2651 -0.7174
 4682TIP3   OH235680   2.161   1.083   1.743  0.4301 -0.1198  0.0412
 4682TIP3    H135681   2.238   1.045   1.701  0.9236  0.3329  0.5177
 4682TIP3    H235682   2.113   1.008   1.778  0.4136 -0.4390 -0.6605
 4683TIP3   OH235683   4.313   1.202   6.650  0.3175 -0.1297  0.6720
 4683TIP3    H135684   4.219   1.190   6.636  0.4461  0.1941 -0.6521
 4683TIP3    H235685   4.354   1.152   6.579  1.1481 -0.3454  1.2937
 4684TIP3   OH235686   4.005   6.693   6.470  0.0293 -0.4234  0.4410
 4684TIP3    H135687   4.080   6.641   6.499  0.2893 -0.0077  0.5179
 4684TIP3    H235688   3.936   6.675   6.534  0.6088  0.5208  1.3425
 4685TIP3   OH235689   5.367   4.553   8.501 -0.2818  0.0216 -0.2006
 4685TIP3    H135690   5.356   4.487   8.570  0.9600  0.7396  0.7229
 4685TIP3    H235691   5.413   4.507   8.431 -1.8892 -0.8172 -0.7679
 4686TIP3   OH235692   5.351   6.082   7.040  0.1227  0.0459  0.3376
 4686TIP3    H135693   5.300   6.010   7.077 -0.9552  0.3217 -0.5676
 4686TIP3    H235694   5.442   6.062   7.066 -0.4070 -0.4647  1.9645
 4687TIP3   OH235695   5.079   1.268   8.368 -0.5823 -0.0431  0.3387
 4687TIP3    H135696   5.073   1.217   8.287 -1.0952 -0.6565  0.7542
 4687TIP3    H235697   5.172   1.270   8.389 -0.4412  0.1737 -0.3020
 4688TIP3   OH235698   0.784   1.264   7.832 -0.4101 -0.1822 -0.6088
 4688TIP3    H135699   0.820   1.345   7.870 -2.0794  0.1364  0.4040
 4688TIP3    H235700   0.829   1.194   7.879 -1.0801  0.2025  0.6582
 4689TIP3   OH235701   4.127   3.684   7.394 -0.1383  0.6302  0.6582
 4689TIP3    H135702   4.217   3.705   7.367 -0.8188  0.0967 -2.4124
 4689TIP3    H235703   4.075   3.759   7.365 -0.8459  0.4021  1.3196
 4690TIP3   OH235704   4.186   6.720   1.298 -0.5761  0.4914  0.2395
 4690TIP3    H135705   4.250   6.649   1.297 -0.1081  0.8890 -1.2047
 4690TIP3    H235706   4.144   6.714   1.384  1.0902 -0.0511  1.0538
 4691TIP3   OH235707   0.151   5.369   8.697 -0.2647  0.2101  0.4705
 4691TIP3    H135708   0.155   5.313   8.774  0.2827 -2.3752 -1.3174
 4691TIP3    H235709   0.216   5.437   8.713  1.2891 -1.4359  1.4754
 4692TIP3   OH235710   6.390   2.601   7.887  0.6022 -0.4864  0.1891
 4692TIP3    H135711   6.329   2.620   7.816  0.2253 -0.8830  0.4004
 4692TIP3    H235712   6.446   2.679   7.893 -0.1062  0.0222  0.2271
 4693TIP3   OH235713   2.360   4.077   8.144  0.0309 -0.1162 -0.9710
 4693TIP3    H135714   2.364   4.008   8.077  0.1226 -0.2077 -0.8716
 4693TIP3    H235715   2.400   4.037   8.222  1.9772  0.7088 -1.4865
 4694TIP3   OH235716   4.789   5.115   0.348 -0.1958 -0.2709  0.7415
 4694TIP3    H135717   4.826   5.043   0.297 -0.3042 -0.9359  1.5657
 4694TIP3    H235718   4.723   5.154   0.291 -0.1902 -0.8801  0.3059
 4695TIP3   OH235719   0.611   1.876   1.579 -0.2671  0.4167 -0.5951
 4695TIP3    H135720   0.701   1.901   1.600 -0.5684  0.8809  0.1988
 4695TIP3    H235721   0.577   1.839   1.661 -0.8232  0.3159 -0.8645
 4696TIP3   OH235722   3.097   1.819   0.325  0.1472  0.0973  0.3661
 4696TIP3    H135723   3.187   1.792   0.308 -0.7606 -1.0921 -3.5628
 4696TIP3    H235724   3.102   1.914   0.337  1.9154  0.0634  0.0964
 4697TIP3   OH235725   3.635   2.272   0.828  0.4164  0.3510  0.0307
 4697TIP3    H135726   3.593   2.204   0.775 -1.4129  1.4820 -0.0526
 4697TIP3    H235727   3.690   2.320   0.767 -1.3793  1.3997 -0.8312
 4698TIP3   OH235728   3.072   5.385   8.896  0.1280  0.0319  0.3482
 4698TIP3    H135729   2.999   5.414   8.842  1.4845  1.4093 -0.8355
 4698TIP3    H235730   3.083   5.293   8.873 -0.0209  0.3122 -0.9281
 4699TIP3   OH235731   3.649   0.587   6.841  0.4179  0.5540  0.8183
 4699TIP3    H135732   3.611   0.508   6.801 -0.5745  0.6464  1.5391
 4699TIP3    H235733   3.733   0.598   6.797  0.4026 -0.6952  0.4421
 4700TIP3   OH235734   4.286   6.097   1.907 -0.2492 -0.0658  0.7767
 4700TIP3    H135735   4.340   6.137   1.976  0.5515 -0.5689  0.4487
 4700TIP3    H235736   4.323   6.131   1.825 -1.2904  0.6445  0.5869
 4701TIP3   OH235737   3.638   2.670   2.359 -0.2603  0.4741  0.6115
 4701TIP3    H135738   3.634   2.578   2.335 -1.6649  1.1693 -2.2472
 4701TIP3    H235739   3.730   2.684   2.384  1.4723 -0.6795 -4.0451
 4702TIP3   OH235740   2.580   5.990   0.509 -1.0046  0.5287 -0.4361
 4702TIP3    H135741   2.546   6.052   0.445  0.3283  0.2643 -1.4487
 4702TIP3    H235742   2.561   5.904   0.470 -0.3753  0.3625 -0.3768
 4703TIP3   OH235743   0.383   3.414   1.804  0.0233  0.1652 -0.3177
 4703TIP3    H135744   0.386   3.461   1.888  0.0972  0.8938 -0.7129
 4703TIP3    H235745   0.427   3.473   1.743 -1.4933  0.4056 -1.2178
 4704TIP3   OH235746   0.679   4.914   1.798 -0.0814 -0.2365 -0.2439
 4704TIP3    H135747   0.666   4.896   1.891  1.0221 -2.2911 -0.4071
 4704TIP3    H235748   0.637   4.998   1.783 -0.8513 -0.1637  1.9675
 4705TIP3   OH235749   2.006   4.780   6.532  0.3646 -0.3023 -0.3476
 4705TIP3    H135750   2.050   4.725   6.467  1.7184  0.0763  0.2027
 4705TIP3    H235751   2.042   4.868   6.517 -1.3733  0.3551 -0.8781
 4706TIP3   OH235752   2.820   2.475   0.695  0.2454 -0.0999 -0.2588
 4706TIP3    H135753   2.794   2.533   0.767  1.0113 -0.3176  0.2008
 4706TIP3    H235754   2.749   2.484   0.631 -1.0083 -0.7643  0.9926
 4707TIP3   OH235755   6.521   5.294   6.732  0.0325  0.2762 -0.4278
 4707TIP3    H135756   6.489   5.204   6.723  0.1982  0.3635 -2.4526
 4707TIP3    H235757   6.463   5.334   6.797 -0.3758 -1.1422  0.1114
 4708TIP3   OH235758   1.354   5.337   8.521 -0.1139  0.2837 -0.4737
 4708TIP3    H135759   1.385   5.427   8.518  0.9397 -0.0292  0.4167
 4708TIP3    H235760   1.321   5.320   8.432 -1.1571  1.8023 -0.4155
 4709TIP3   OH235761   1.535   3.628   8.954  0.9731  0.6120 -0.2091
 4709TIP3    H135762   1.580   3.652   9.035  2.9380  1.0724 -1.3677
 4709TIP3    H235763   1.596   3.654   8.885 -1.0534  1.1049 -1.8822
 4710TIP3   OH235764   0.066   4.084   7.389 -0.3882 -0.0098 -0.0797
 4710TIP3    H135765   0.106   4.002   7.417 -1.0924 -0.4969 -0.4673
 4710TIP3    H235766   0.014   4.061   7.312 -0.3422  0.8606 -0.3864
 4711TIP3   OH235767   3.258   4.191   7.671 -0.1810  0.3816  0.7565
 4711TIP3    H135768   3.346   4.158   7.655 -0.5817 -0.3856  0.0871
 4711TIP3    H235769   3.271   4.269   7.726  0.8597 -0.0871  1.1935
 4712TIP3   OH235770   6.582   0.043   8.309  0.0514 -0.3719 -0.1705
 4712TIP3    H135771   6.507   0.091   8.346  0.1324 -1.0675  0.9467
 4712TIP3    H235772   6.632   0.015   8.386  0.1277 -2.0606 -0.8115
 4713TIP3   OH235773   4.724   5.723   1.745 -0.4978  0.0257 -0.8087
 4713TIP3    H135774   4.807   5.756   1.709  0.2198 -0.6470  0.1911
 4713TIP3    H235775   4.749   5.676   1.825 -1.8262 -0.3710 -0.6026
 4714TIP3   OH235776   2.272   1.884   1.182  0.4694  0.1102 -0.2064
 4714TIP3    H135777   2.313   1.846   1.260 -0.8912 -1.3626 -0.1601
 4714TIP3    H235778   2.198   1.935   1.216 -0.3432 -0.8259 -0.5175
 4715TIP3   OH235779   6.187   6.086   7.450 -0.0339 -0.0741 -0.0494
 4715TIP3    H135780   6.192   6.038   7.533 -0.2058 -0.6226 -0.3522
 4715TIP3    H235781   6.120   6.040   7.399  0.8229 -0.3986 -0.9148
 4716TIP3   OH235782   2.843   0.946   7.845 -0.2613 -0.1308 -0.0473
 4716TIP3    H135783   2.896   0.918   7.920  0.5807  0.4702 -0.3893
 4716TIP3    H235784   2.754   0.950   7.879  0.1999  0.8762  1.1548
 4717TIP3   OH235785   0.872   0.522   8.883 -0.4666  0.4989 -0.8277
 4717TIP3    H135786   0.945   0.539   8.824  0.5090 -1.2053 -0.1647
 4717TIP3    H235787   0.825   0.449   8.842 -0.8074  0.4595 -0.3758
 4718TIP3   OH235788   2.369   2.305   2.070  0.4502 -0.3776  0.6293
 4718TIP3    H135789   2.370   2.400   2.058 -2.6154  0.2147  3.7328
 4718TIP3    H235790   2.292   2.276   2.022  1.0210 -1.2818  0.2239
 4719TIP3   OH235791   1.865   2.544   8.071 -0.4560  0.2851  0.2319
 4719TIP3    H135792   1.918   2.552   7.992  1.2866  0.7024  1.3777
 4719TIP3    H235793   1.901   2.610   8.130 -3.1765  1.5595  0.6323
 4720TIP3   OH235794   3.236   1.414   7.001 -0.4213 -0.1832  0.4007
 4720TIP3    H135795   3.183   1.405   7.080  0.3562 -0.2746  0.9163
 4720TIP3    H235796   3.183   1.469   6.943  0.1069  2.1487  1.9903
 4721TIP3   OH235797   1.515   0.523   1.397  0.1469  0.3911 -0.1910
 4721TIP3    H135798   1.433   0.555   1.435  0.4061  0.5831  0.2107
 4721TIP3    H235799   1.567   0.494   1.471 -0.3802 -1.7375 -0.6093
 4722TIP3   OH235800   3.564   5.149   8.180  0.0875 -0.7704 -0.4294
 4722TIP3    H135801   3.508   5.087   8.227  0.3978 -0.8399 -0.1500
 4722TIP3    H235802   3.567   5.226   8.236 -0.3216 -0.4836 -0.7916
 4723TIP3   OH235803   3.116   4.698   6.951  0.0357 -0.7231  0.1826
 4723TIP3    H135804   3.159   4.627   6.903  1.5718  0.4329 -0.2471
 4723TIP3    H235805   3.183   4.727   7.014  0.2417  1.6584 -1.0310
 4724TIP3   OH235806   3.604   2.167   8.628 -0.6811 -0.2692 -0.0123
 4724TIP3    H135807   3.671   2.135   8.567  0.0844  3.3089 -1.2952
 4724TIP3    H235808   3.649   2.169   8.713  0.2767  0.3027 -0.5075
 4725TIP3   OH235809   6.131   5.452   0.654  0.6240 -0.2790  0.1493
 4725TIP3    H135810   6.094   5.407   0.730  0.4263 -0.8833 -0.2991
 4725TIP3    H235811   6.158   5.538   0.687  0.3641 -0.4694  0.8562
 4726TIP3   OH235812   4.777   6.696   7.392  0.3525  0.1550  0.3623
 4726TIP3    H135813   4.773   6.781   7.437  0.1501  0.4225 -0.1590
 4726TIP3    H235814   4.836   6.711   7.318 -2.7724  0.9818 -2.1295
 4727TIP3   OH235815   2.799   3.295   1.475 -0.1274  0.0519  0.0328
 4727TIP3    H135816   2.891   3.270   1.487 -0.4933 -2.0586 -1.0891
 4727TIP3    H235817   2.761   3.289   1.563  0.7167  0.6580  0.4552
 4728TIP3   OH235818   0.907   3.430   0.148  0.4050  0.2337 -0.7203
 4728TIP3    H135819   0.986   3.482   0.159 -0.1154  0.6886  1.3245
 4728TIP3    H235820   0.919   3.356   0.208  0.2306 -0.9355 -2.0622
 4729TIP3   OH235821   5.814   3.070   0.485 -0.1883 -0.7713 -0.6649
 4729TIP3    H135822   5.789   3.093   0.575 -1.7275 -0.6344 -1.0887
 4729TIP3    H235823   5.829   2.976   0.487  0.1640 -0.7035 -0.1765
 4730TIP3   OH235824   1.956   3.468   0.941 -0.2982 -0.0528  0.5489
 4730TIP3    H135825   1.953   3.502   1.031 -0.3034  1.3902  0.0359
 4730TIP3    H235826   1.909   3.533   0.890 -1.5160 -1.5616 -0.3139
 4731TIP3   OH235827   6.403   0.228   8.430  0.1455  0.0941 -0.1839
 4731TIP3    H135828   6.450   0.282   8.493 -1.1006  1.3162 -0.2486
 4731TIP3    H235829   6.356   0.164   8.484 -0.0069  0.4017  0.0506
 4732TIP3   OH235830   4.385   5.592   2.435 -0.7245 -0.1719 -0.3233
 4732TIP3    H135831   4.352   5.530   2.370  0.0946 -0.0163 -0.9058
 4732TIP3    H235832   4.307   5.637   2.467 -1.3335 -1.4908  0.1181
 4733TIP3   OH235833   3.036   0.754   8.664 -0.0129 -0.2667 -0.8458
 4733TIP3    H135834   3.072   0.747   8.576 -1.5708 -1.1695 -1.4622
 4733TIP3    H235835   2.941   0.750   8.651 -0.2877  0.0443  0.8392
 4734TIP3   OH235836   0.248   3.046   1.862  0.3776  0.1725  0.7288
 4734TIP3    H135837   0.263   3.050   1.956  1.8463  1.6689  0.4725
 4734TIP3    H235838   0.262   2.954   1.839 -0.6162 -0.3396  2.0250
 4735TIP3   OH235839   2.422   0.913   1.713  0.2351  0.8962  0.4486
 4735TIP3    H135840   2.354   0.893   1.649 -1.2024  0.9152  1.9070
 4735TIP3    H235841   2.501   0.923   1.661 -0.1183 -2.5338 -1.0033
 4736TIP3   OH235842   2.067   2.480   1.943 -0.1726 -0.6065 -0.5309
 4736TIP3    H135843   2.154   2.518   1.959 -2.0181  2.7331  3.2961
 4736TIP3    H235844   2.073   2.392   1.980  1.5014 -0.2957  0.0311
 4737TIP3   OH235845   6.541   0.054   0.312 -0.0934  0.0763  0.0063
 4737TIP3    H135846   6.529   0.113   0.387 -0.4612 -0.2615  0.2181
 4737TIP3    H235847   6.464   0.069   0.257 -0.7826 -1.0014  0.6182
 4738TIP3   OH235848   5.519   2.145   6.835  0.2320  0.1862 -0.1010
 4738TIP3    H135849   5.540   2.108   6.749  1.8155 -0.7971  0.6661
 4738TIP3    H235850   5.581   2.104   6.895 -1.7457 -0.2542  1.7856
 4739TIP3   OH235851   6.424   3.459   7.848  0.0178  0.5801  0.4420
 4739TIP3    H135852   6.493   3.458   7.913 -1.7107 -2.3675  2.4480
 4739TIP3    H235853   6.391   3.549   7.849  1.7956  1.2596  1.6202
 4740TIP3   OH235854   2.704   2.435   8.581 -0.4015 -0.1779  0.2625
 4740TIP3    H135855   2.701   2.430   8.485  0.7257 -0.3510  0.2206
 4740TIP3    H235856   2.716   2.344   8.609  3.6490  0.1631  0.3051
 4741TIP3   OH235857   1.266   6.208   7.591 -0.6090 -0.1659 -0.3409
 4741TIP3    H135858   1.257   6.233   7.499  2.3458 -0.6550 -0.8593
 4741TIP3    H235859   1.215   6.128   7.600  0.7697 -1.3057 -2.1423
 4742TIP3   OH235860   1.839   4.632   7.824 -0.1258  0.7211  0.3686
 4742TIP3    H135861   1.910   4.600   7.769 -1.1416  0.4864 -0.8577
 4742TIP3    H235862   1.869   4.616   7.914  1.0578 -0.0187 -0.1312
 4743TIP3   OH235863   6.029   6.256   0.249  0.0498  0.0905  0.8596
 4743TIP3    H135864   6.010   6.163   0.242  1.4593 -0.1650 -0.0669
 4743TIP3    H235865   6.062   6.280   0.162 -0.6836  1.5550  0.9547
 4744TIP3   OH235866   3.592   6.132   0.340  0.3603  0.2440 -0.2331
 4744TIP3    H135867   3.523   6.186   0.301 -1.2337 -0.1983  1.8232
 4744TIP3    H235868   3.653   6.195   0.377 -1.0615  0.7253  1.4298
 4745TIP3   OH235869   6.401   3.277   7.484 -0.5617 -0.3071  0.6539
 4745TIP3    H135870   6.465   3.348   7.490 -0.8316 -0.1423  1.9045
 4745TIP3    H235871   6.390   3.247   7.575 -0.9758 -1.4847  0.2388
 4746TIP3   OH235872   3.174   3.053   1.963 -0.0750 -0.1470  0.2518
 4746TIP3    H135873   3.246   3.030   1.904  0.7263 -0.9959  1.5092
 4746TIP3    H235874   3.213   3.049   2.050 -1.6134 -0.4358  0.9502
 4747TIP3   OH235875   3.358   2.718   8.270 -0.4657 -0.0267  0.4671
 4747TIP3    H135876   3.300   2.717   8.194 -0.2189 -0.6784  0.2868
 4747TIP3    H235877   3.395   2.806   8.270  1.9968 -0.8991 -2.0552
 4748TIP3   OH235878   4.276   5.259   2.583  0.3863 -0.4623 -0.4364
 4748TIP3    H135879   4.183   5.279   2.595  0.6407  0.0957  0.7236
 4748TIP3    H235880   4.277   5.171   2.545 -0.5948 -0.9738  0.6620
 4749TIP3   OH235881   6.620   4.978   7.773  0.0731 -0.1664  0.4317
 4749TIP3    H135882   6.711   4.970   7.804  0.2476  1.7822  0.5202
 4749TIP3    H235883   6.577   4.900   7.807  1.9627 -1.7568 -0.5796
 4750TIP3   OH235884   3.903   3.897   0.208  0.8582 -0.1540 -0.1226
 4750TIP3    H135885   3.973   3.865   0.151  1.2865  1.1181 -0.3396
 4750TIP3    H235886   3.833   3.924   0.149 -0.6926 -3.1743  0.1294
 4751TIP3   OH235887   4.411   5.583   1.058  0.0324 -0.1622  0.4545
 4751TIP3    H135888   4.322   5.547   1.052  0.7278 -1.7319 -1.6347
 4751TIP3    H235889   4.450   5.537   1.133 -0.4378 -0.6454  0.4125
 4752TIP3   OH235890   5.015   2.743   7.905 -0.4831 -0.0395 -0.4615
 4752TIP3    H135891   4.932   2.701   7.879 -0.5683  0.7450 -1.5091
 4752TIP3    H235892   5.083   2.687   7.868 -0.5105 -1.0401  0.9456
 4753TIP3   OH235893   4.797   4.287   0.938  0.5563 -0.4084 -0.5861
 4753TIP3    H135894   4.806   4.367   0.887  0.1609 -1.0866 -1.7520
 4753TIP3    H235895   4.727   4.305   1.000  2.6492  1.3002  1.5034
 4754TIP3   OH235896   0.002   2.250   0.518 -0.3128 -0.6255  0.3747
 4754TIP3    H135897   0.007   2.268   0.612  0.0341 -0.5865  0.3481
 4754TIP3    H235898   0.091   2.263   0.486 -0.7993  1.3538 -0.3154
 4755TIP3   OH235899   1.895   3.165   8.730  0.5296  0.2920  0.1785
 4755TIP3    H135900   1.911   3.241   8.674  0.3254 -0.4234 -0.8648
 4755TIP3    H235901   1.972   3.162   8.788  1.9182 -0.3266 -1.6138
 4756TIP3   OH235902   6.038   0.873   7.540 -0.1687 -0.1100 -0.3284
 4756TIP3    H135903   6.073   0.920   7.464  1.8536  0.9468  1.1684
 4756TIP3    H235904   6.098   0.800   7.553 -1.1949 -1.0031 -0.4125
 4757TIP3   OH235905   5.264   0.472   8.217 -0.3259 -0.0227 -0.8606
 4757TIP3    H135906   5.179   0.497   8.251  0.5171  2.7306 -0.5356
 4757TIP3    H235907   5.245   0.415   8.142 -2.3506 -1.0613  0.3724
 4758TIP3   OH235908   5.636   0.062   1.746  0.2267  0.1607 -0.5365
 4758TIP3    H135909   5.645  -0.023   1.703  0.5025  0.1331 -0.4257
 4758TIP3    H235910   5.555   0.054   1.798  0.2427 -0.0277 -0.5408
 4759TIP3   OH235911   6.650   5.425   2.695  0.5976 -0.4052 -0.1116
 4759TIP3    H135912   6.687   5.462   2.614 -0.3101 -1.4506 -1.0464
 4759TIP3    H235913   6.555   5.431   2.683  0.4477 -0.2020  1.0701
 4760TIP3   OH235914   4.124   1.305   0.074 -0.1178 -0.3135  0.1185
 4760TIP3    H135915   4.058   1.303   0.004  0.5431  0.0187 -0.5369
 4760TIP3    H235916   4.178   1.381   0.052  0.8660 -0.9610  0.2889
 4761TIP3   OH235917   2.971   1.955   6.273 -0.1011 -0.3417 -0.0563
 4761TIP3    H135918   2.949   1.940   6.365 -0.3894  0.0119 -0.0641
 4761TIP3    H235919   3.050   2.009   6.276 -0.9932  1.0068  0.0104
 4762TIP3   OH235920   4.076   6.690   0.451 -0.0936 -0.3585 -0.0260
 4762TIP3    H135921   4.092   6.674   0.544 -1.4627  0.1709  0.3219
 4762TIP3    H235922   4.164   6.701   0.413  0.4395  0.7573  1.4409
 4763TIP3   OH235923   0.828   1.144   1.148 -0.1190  0.1236  0.1270
 4763TIP3    H135924   0.879   1.068   1.120 -0.2257  0.2968 -0.5721
 4763TIP3    H235925   0.881   1.219   1.123 -0.0624  0.2860  0.7197
 4764TIP3   OH235926   3.697   5.720   7.516 -0.3033  0.0791  0.4314
 4764TIP3    H135927   3.677   5.803   7.474  0.5082 -0.7269 -1.6946
 4764TIP3    H235928   3.760   5.742   7.585  1.3243  1.0796 -1.2644
 4765TIP3   OH235929   4.606   2.469   6.484  0.4198  0.2717  0.2546
 4765TIP3    H135930   4.643   2.557   6.482 -0.6463  0.7273 -0.4872
 4765TIP3    H235931   4.681   2.411   6.487  1.1826  1.1556 -1.1055
 4766TIP3   OH235932   0.293   2.959   1.579  0.7457 -0.3729 -0.1963
 4766TIP3    H135933   0.217   2.901   1.582  1.0883 -0.7910  0.9900
 4766TIP3    H235934   0.267   3.035   1.632  1.2754 -0.6970  0.5530
 4767TIP3   OH235935   4.071   2.647   0.422 -0.0922  0.7262 -0.4060
 4767TIP3    H135936   4.122   2.593   0.361  0.0869  0.3384  0.0762
 4767TIP3    H235937   4.080   2.736   0.389 -0.6793  0.4268 -1.4213
 4768TIP3   OH235938   5.305   6.046   8.867  0.0127  0.5694 -0.6256
 4768TIP3    H135939   5.282   5.982   8.800  0.1648  0.4044 -0.5234
 4768TIP3    H235940   5.395   6.024   8.891 -0.6215 -0.5958  0.9742
 4769TIP3   OH235941   6.473   1.136   8.015 -0.3760  0.3577 -0.0426
 4769TIP3    H135942   6.407   1.198   8.045 -0.6087  0.1444 -0.1164
 4769TIP3    H235943   6.540   1.138   8.084 -0.9222 -0.1550  0.5108
 4770TIP3   OH235944   2.677   2.618   1.742  0.0773 -0.4952 -0.1238
 4770TIP3    H135945   2.704   2.526   1.743 -0.2536 -0.6278  2.1516
 4770TIP3    H235946   2.750   2.664   1.784 -0.0620  0.2024 -0.6295
 4771TIP3   OH235947   4.347   6.102   7.921 -0.7790  0.0372 -0.2265
 4771TIP3    H135948   4.285   6.096   7.848  0.0145 -0.4578 -0.8805
 4771TIP3    H235949   4.400   6.178   7.902 -1.1442  0.4383  0.3156
 4772TIP3   OH235950   3.691   1.092   7.810  0.0839  0.1459  0.0417
 4772TIP3    H135951   3.633   1.035   7.759  1.3541 -1.4728  0.3552
 4772TIP3    H235952   3.755   1.124   7.746 -0.6233  1.2854 -0.1345
 4773TIP3   OH235953   1.579   5.313   1.618  0.3994  0.1908 -0.1735
 4773TIP3    H135954   1.558   5.278   1.531  2.1114 -2.7588  0.4301
 4773TIP3    H235955   1.671   5.338   1.612  0.7395 -0.7029  0.9112
 4774TIP3   OH235956   6.199   4.669   8.765  0.0569  0.2924 -0.4652
 4774TIP3    H135957   6.108   4.656   8.738  0.7559 -4.4573 -1.3339
 4774TIP3    H235958   6.232   4.738   8.707 -2.6501  1.4395 -0.7894
 4775TIP3   OH235959   0.269   2.343   6.566  0.3656  0.1760  0.3045
 4775TIP3    H135960   0.217   2.293   6.629  1.0511 -1.0151 -0.0311
 4775TIP3    H235961   0.230   2.322   6.481  0.3428  0.6224  0.2041
 4776TIP3   OH235962   5.290   2.351   7.436  0.0082  0.6265  0.1072
 4776TIP3    H135963   5.277   2.416   7.505 -1.2859  0.3614  0.1279
 4776TIP3    H235964   5.237   2.276   7.463  0.2954  0.1378 -0.6713
 4777TIP3   OH235965   1.478   0.464   0.624 -0.0510 -0.0265 -0.4316
 4777TIP3    H135966   1.524   0.548   0.613  0.8075 -0.7586 -3.3600
 4777TIP3    H235967   1.547   0.398   0.615 -0.7775 -1.1124  1.4149
 4778TIP3   OH235968   6.303   4.599   2.094 -0.7431 -0.0815 -0.1394
 4778TIP3    H135969   6.237   4.606   2.164  0.4938 -1.7620  1.3098
 4778TIP3    H235970   6.305   4.505   2.073  0.0077  0.1880 -1.3488
 4779TIP3   OH235971   6.588   3.473   7.535 -0.0162  0.2758  0.5640
 4779TIP3    H135972   6.597   3.566   7.557 -0.2722 -0.1046  2.4505
 4779TIP3    H235973   6.642   3.462   7.456 -1.1676  2.2988 -0.5948
 4780TIP3   OH235974   5.975   0.097   0.672  0.3563  0.2336  0.5539
 4780TIP3    H135975   6.062   0.127   0.644  0.7291 -0.3915  1.0180
 4780TIP3    H235976   5.949   0.033   0.606  0.5531 -0.0879  0.7854
 4781TIP3   OH235977   3.551   1.109   0.711  0.2955  0.2476  0.5426
 4781TIP3    H135978   3.463   1.146   0.704  0.2233  0.0698  0.5002
 4781TIP3    H235979   3.602   1.175   0.757 -0.1971 -0.2160  1.8080
 4782TIP3   OH235980   3.046   6.115   8.440  0.1817 -0.1081 -0.2906
 4782TIP3    H135981   3.012   6.026   8.450  0.4333 -0.0998  0.7121
 4782TIP3    H235982   3.138   6.103   8.414 -0.2810 -0.1268 -2.0429
 4783TIP3   OH235983   5.487   5.948   0.870  0.1660 -0.5028  0.6686
 4783TIP3    H135984   5.534   6.012   0.924 -0.5459  0.0041  0.7014
 4783TIP3    H235985   5.538   5.867   0.879  1.9801  0.4215 -0.6291
 4784TIP3   OH235986   3.250   6.322   6.393  0.2555 -0.1180  0.1912
 4784TIP3    H135987   3.256   6.234   6.356  1.9637 -0.3967  1.0125
 4784TIP3    H235988   3.291   6.314   6.479  0.5353  1.5157  0.2395
 4785TIP3   OH235989   5.091   6.386   6.926  0.3268 -0.0350 -0.3358
 4785TIP3    H135990   5.016   6.361   6.980  2.0524 -0.5134  2.0381
 4785TIP3    H235991   5.058   6.386   6.837 -2.3478 -0.7141  0.5621
 4786TIP3   OH235992   4.745   1.769   7.461  0.5887 -0.0541 -0.0626
 4786TIP3    H135993   4.800   1.727   7.526  1.4812  2.2186  0.7655
 4786TIP3    H235994   4.663   1.720   7.463  1.2245 -1.1208  1.4963
 4787TIP3   OH235995   1.353   5.124   0.005  0.5966  0.2982 -0.2928
 4787TIP3    H135996   1.364   5.087  -0.083 -1.8055  0.0330 -0.5387
 4787TIP3    H235997   1.323   5.051   0.059  0.0007  0.9323  0.2536
 4788TIP3   OH235998   1.819   1.584   8.366  0.0075  0.0636 -0.0231
 4788TIP3    H135999   1.909   1.590   8.333  0.4242 -0.5974  0.9618
 4788TIP3    H236000   1.775   1.527   8.303  1.0951 -2.1131  1.1017
 4789TIP3   OH236001   5.531   2.516   0.049  0.3723  0.5988 -0.4640
 4789TIP3    H136002   5.617   2.484   0.074 -0.8859 -1.8126  1.2247
 4789TIP3    H236003   5.508   2.580   0.116  0.2015 -0.0338  0.0992
 4790TIP3   OH236004   2.666   5.963   1.068  0.1342  0.1334  0.3844
 4790TIP3    H136005   2.573   5.982   1.061 -0.0590 -0.1032  1.9895
 4790TIP3    H236006   2.709   6.046   1.044 -0.4402  0.0536 -1.0144
 4791TIP3   OH236007   6.274   4.847   1.683  0.7325  0.2072  0.2119
 4791TIP3    H136008   6.307   4.925   1.727 -2.0925  0.3778  2.2860
 4791TIP3    H236009   6.187   4.872   1.652  0.7701 -1.4013 -1.3414
 4792TIP3   OH236010   2.944   0.121   6.940 -0.4319  0.3602  0.4204
 4792TIP3    H136011   2.982   0.143   6.855 -2.0744  1.5240 -0.0586
 4792TIP3    H236012   2.885   0.193   6.960  0.3341  0.3960  2.8593
 4793TIP3   OH236013   5.650   3.355   7.195 -0.1302 -0.1356 -0.1278
 4793TIP3    H136014   5.576   3.379   7.139 -0.7744  0.3286  0.8892
 4793TIP3    H236015   5.722   3.339   7.134 -0.2419  2.2826 -1.0244
 4794TIP3   OH236016   3.156   3.321   8.865  0.4534 -0.1749 -0.2704
 4794TIP3    H136017   3.083   3.351   8.920  1.0646  1.5530 -0.3449
 4794TIP3    H236018   3.233   3.331   8.920  0.6557 -2.2116 -0.1137
 4795TIP3   OH236019   2.034   4.678   7.315 -0.0802 -0.2003  1.0699
 4795TIP3    H136020   2.129   4.670   7.326  0.0518 -1.0498 -0.4638
 4795TIP3    H236021   2.000   4.591   7.336 -0.3345 -0.3667  0.0188
 4796TIP3   OH236022   5.094   1.007   1.283 -0.1320  0.7210 -0.1410
 4796TIP3    H136023   5.018   1.029   1.336 -0.3444  0.0680 -0.1675
 4796TIP3    H236024   5.116   0.917   1.307  0.5089  0.8321 -0.2800
 4797TIP3   OH236025   4.263   4.864   7.092 -0.2779  0.3990  0.2222
 4797TIP3    H136026   4.185   4.918   7.080 -0.7201 -0.5663 -1.6009
 4797TIP3    H236027   4.336   4.923   7.075 -0.6917  0.7883 -0.2374
 4798TIP3   OH236028   4.313   6.535   1.953  0.1125 -0.1081  0.0005
 4798TIP3    H136029   4.362   6.481   2.014  0.3401 -0.7207 -0.7155
 4798TIP3    H236030   4.364   6.615   1.944 -0.3461  0.3459  1.2483
 4799TIP3   OH236031   3.118   2.210   8.521  0.1291 -0.2646  0.1641
 4799TIP3    H136032   3.038   2.224   8.570  0.1483 -0.5383  0.2723
 4799TIP3    H236033   3.169   2.149   8.574  1.2689  1.3997  1.0689
 4800TIP3   OH236034   4.596   0.734   7.861  0.4304  0.3394  0.2286
 4800TIP3    H136035   4.642   0.651   7.853  2.0898  1.2443 -0.0910
 4800TIP3    H236036   4.591   0.749   7.956  0.9972  0.3207  0.2659
 4801TIP3   OH236037   0.647   0.992   8.569  0.5178 -0.6258  0.2682
 4801TIP3    H136038   0.667   0.904   8.601  1.2644 -0.3957  0.4686
 4801TIP3    H236039   0.726   1.042   8.588 -0.7062  0.6724  2.2655
 4802TIP3   OH236040   4.598   0.747   1.769  0.0672  0.0504  0.1044
 4802TIP3    H136041   4.617   0.841   1.775  0.7308 -0.0613 -0.1290
 4802TIP3    H236042   4.683   0.705   1.784 -0.4704 -0.5642  1.5286
 4803TIP3   OH236043   0.309   6.235   7.945 -0.2161 -0.0330 -0.5927
 4803TIP3    H136044   0.310   6.148   7.984 -1.1262 -0.2759 -1.0775
 4803TIP3    H236045   0.252   6.226   7.868 -2.7821  1.6355  0.9476
 4804TIP3   OH236046   6.565   0.868   0.800 -0.1845 -0.4114  0.5817
 4804TIP3    H136047   6.530   0.887   0.887  1.1975  1.1120  0.8455
 4804TIP3    H236048   6.501   0.908   0.740  0.9699  2.3428  1.0569
 4805TIP3   OH236049   1.839   0.851   1.103  0.2711  0.4599  0.5404
 4805TIP3    H136050   1.847   0.935   1.148  0.8801  0.0244  1.2702
 4805TIP3    H236051   1.769   0.805   1.150  0.1294  0.4424  0.3176
 4806TIP3   OH236052   5.172   6.439   7.381  0.2061 -0.1331 -0.3008
 4806TIP3    H136053   5.156   6.369   7.318  1.1940  0.2856 -1.0459
 4806TIP3    H236054   5.223   6.398   7.451  0.0850 -0.3359 -0.3315
 4807TIP3   OH236055   6.063   1.112   6.333  0.1254 -0.3389  0.3939
 4807TIP3    H136056   6.090   1.090   6.422 -0.7448 -2.4926  0.1649
 4807TIP3    H236057   6.143   1.103   6.281  0.1083 -1.6630  0.5592
 4808TIP3   OH236058   4.651   5.942   7.872 -0.3530  0.1690  0.3039
 4808TIP3    H136059   4.611   5.986   7.797 -1.0850  0.1648  0.6824
 4808TIP3    H236060   4.580   5.936   7.936 -0.1146 -1.0741  0.4663
 4809TIP3   OH236061   1.135   6.669   7.096  0.0514  0.0308  0.3089
 4809TIP3    H136062   1.122   6.712   7.011 -0.8551 -1.6303 -0.4375
 4809TIP3    H236063   1.229   6.652   7.100  0.0587 -0.1436 -0.4921
 4810TIP3   OH236064   3.037   1.126   8.809  0.7594 -0.0592  0.5092
 4810TIP3    H136065   3.000   1.086   8.888 -0.0244 -0.8144 -0.2180
 4810TIP3    H236066   3.004   1.216   8.809 -0.4844 -0.4912  0.2821
 4811TIP3   OH236067   2.131   3.371   7.814 -0.4541 -0.2111 -0.5362
 4811TIP3    H136068   2.104   3.329   7.732 -0.5400  1.8383 -1.6144
 4811TIP3    H236069   2.062   3.435   7.832 -0.5092 -0.7175  1.2516
 4812TIP3   OH236070   3.166   5.425   0.206  0.3853  0.2687 -0.0829
 4812TIP3    H136071   3.084   5.396   0.165 -0.2244 -0.3993  1.5400
 4812TIP3    H236072   3.227   5.353   0.189  0.1133 -0.0417  0.2392
 4813TIP3   OH236073   2.483   1.670   7.331  0.2405 -0.1680  0.0921
 4813TIP3    H136074   2.576   1.683   7.352 -0.1606  3.0350  0.3231
 4813TIP3    H236075   2.465   1.731   7.260 -1.5117 -1.3926 -0.5795
 4814TIP3   OH236076   6.341   0.030   1.082  0.2131  0.5585 -0.2692
 4814TIP3    H136077   6.369   0.120   1.101  4.2417 -0.4190 -0.7561
 4814TIP3    H236078   6.397  -0.025   1.136 -2.0681 -1.7490 -0.0720
 4815TIP3   OH236079   0.483   4.281   7.765  0.2056  0.2801 -0.1031
 4815TIP3    H136080   0.576   4.291   7.748  1.1094 -2.2035  2.4970
 4815TIP3    H236081   0.454   4.217   7.699  0.4392  0.6859 -0.6077
 4816TIP3   OH236082   5.941   0.857   8.483 -0.2434  0.0491  0.5970
 4816TIP3    H136083   5.973   0.938   8.524  0.0628  0.9147 -1.2603
 4816TIP3    H236084   6.009   0.792   8.504  2.1266  1.4891 -1.9601
 4817TIP3   OH236085   0.769   5.864   0.499 -0.1417 -0.2974  0.3260
 4817TIP3    H136086   0.759   5.780   0.546  0.5134 -0.7817 -0.3791
 4817TIP3    H236087   0.817   5.841   0.419 -1.2076  0.5251 -0.5733
 4818TIP3   OH236088   4.063   6.636   7.953 -0.6136  0.0367  0.2364
 4818TIP3    H136089   4.053   6.546   7.921  0.8661 -0.0042 -0.2039
 4818TIP3    H236090   4.101   6.684   7.879  1.5156  0.2879  1.4130
 4819TIP3   OH236091   5.815   2.491   6.710  0.5355 -0.3772  0.2919
 4819TIP3    H136092   5.747   2.456   6.652  0.2202  0.4847  0.1136
 4819TIP3    H236093   5.853   2.564   6.661  0.9583 -0.2687  0.7698
 4820TIP3   OH236094   0.982   0.420   0.604 -0.4374 -0.2478 -0.1138
 4820TIP3    H136095   1.059   0.418   0.661 -0.0130  0.4608 -0.6428
 4820TIP3    H236096   0.908   0.437   0.663 -0.3110 -1.6828  0.4977
 4821TIP3   OH236097   4.069   5.252   1.191  0.1140  0.2767 -0.4468
 4821TIP3    H136098   4.017   5.227   1.268 -0.6912  1.0276 -0.7254
 4821TIP3    H236099   4.144   5.298   1.227 -0.4499  0.9558 -0.1098
 4822TIP3   OH236100   3.085   3.610   8.598 -0.2881 -0.3398  0.2643
 4822TIP3    H136101   3.035   3.597   8.678 -0.0376 -1.4458  0.2592
 4822TIP3    H236102   3.082   3.704   8.582  1.1044  0.1507  2.5184
 4823TIP3   OH236103   2.360   2.528   8.575  0.2978 -0.1509 -0.0311
 4823TIP3    H136104   2.308   2.598   8.537  0.6840 -0.2375 -0.7324
 4823TIP3    H236105   2.419   2.572   8.637 -1.4738 -0.1877  1.7794
 4824TIP3   OH236106   3.759   0.987   6.521 -0.6872  0.5727 -0.0919
 4824TIP3    H136107   3.715   0.946   6.447 -0.2283 -1.4186  0.6844
 4824TIP3    H236108   3.689   1.031   6.569 -1.2412  0.4639 -0.7849
 4825TIP3   OH236109   1.284   5.738   1.073 -0.1606  0.4541  0.5054
 4825TIP3    H136110   1.226   5.668   1.046  1.0190 -0.5860  0.5891
 4825TIP3    H236111   1.283   5.735   1.169  1.1822 -0.5807  0.5105
 4826TIP3   OH236112   2.296   1.266   0.088  0.2907 -0.0982 -0.1557
 4826TIP3    H136113   2.296   1.260   0.184 -1.3428 -0.5075 -0.1545
 4826TIP3    H236114   2.303   1.360   0.070  0.7575 -0.0305  0.3546
 4827TIP3   OH236115   4.384   4.998   7.331  0.1237 -0.1478  0.1902
 4827TIP3    H136116   4.292   4.997   7.304 -0.4230 -0.3637  1.9265
 4827TIP3    H236117   4.390   5.072   7.391  0.6732 -1.1142  1.3550
 4828TIP3   OH236118   5.531   3.188   8.720 -0.2695  0.3856  0.0703
 4828TIP3    H136119   5.513   3.097   8.745 -0.0919  0.5609  0.8880
 4828TIP3    H236120   5.585   3.222   8.792 -0.9393  1.3408  0.1430
 4829TIP3   OH236121   0.992   4.194   1.159  0.1316 -0.5070 -0.9278
 4829TIP3    H136122   1.007   4.268   1.100 -1.5673 -1.5769 -2.8239
 4829TIP3    H236123   1.013   4.228   1.246  3.1168  1.0406 -2.0982
 4830TIP3   OH236124   5.784   3.394   0.239 -0.0983 -0.3223  0.0348
 4830TIP3    H136125   5.691   3.389   0.260  0.2264  0.9806  2.0742
 4830TIP3    H236126   5.814   3.303   0.239 -1.1297 -0.6751  0.6545
 4831TIP3   OH236127   3.314   3.739   0.363 -0.2126 -0.3326  0.5510
 4831TIP3    H136128   3.319   3.644   0.359  0.6868 -0.2410 -1.6374
 4831TIP3    H236129   3.395   3.766   0.406 -0.8182 -0.5353  1.8937
 4832TIP3   OH236130   0.376   6.073   2.517 -0.1565  0.0772  0.0013
 4832TIP3    H136131   0.443   6.088   2.584 -1.7672 -2.3049  2.3791
 4832TIP3    H236132   0.379   5.978   2.502 -1.8694  0.1607 -1.0755
 4833TIP3   OH236133   0.959   4.912   1.666  0.4646 -0.3809  0.2958
 4833TIP3    H136134   0.876   4.890   1.707  0.7606 -0.0930  1.0825
 4833TIP3    H236135   0.998   4.976   1.725  1.0142 -0.1287 -0.3289
 4834TIP3   OH236136   6.637   3.169   1.259 -0.2552  1.0202  0.6119
 4834TIP3    H136137   6.585   3.104   1.211 -0.2597  1.3492  0.1659
 4834TIP3    H236138   6.578   3.202   1.326 -0.8960  1.9599 -0.3872
 4835TIP3   OH236139   1.490   4.710   0.599 -0.5308  0.0507 -0.0741
 4835TIP3    H136140   1.406   4.710   0.553 -0.0929  0.0346 -0.8984
 4835TIP3    H236141   1.489   4.791   0.650 -1.4449 -0.4286  0.7031
 4836TIP3   OH236142   2.885   4.710   8.521 -0.6626  0.4808  0.3146
 4836TIP3    H136143   2.962   4.660   8.546  1.4261  3.0847 -0.5238
 4836TIP3    H236144   2.844   4.735   8.604 -1.1863 -1.6427  0.7509
 4837TIP3   OH236145   1.725   3.320   1.204  0.1388 -0.0328 -0.8457
 4837TIP3    H136146   1.707   3.384   1.135 -1.6009 -1.6834 -2.0613
 4837TIP3    H236147   1.820   3.311   1.206  0.4123  2.3485 -0.7865
 4838TIP3   OH236148   0.316   0.381   7.838 -0.3731 -0.1245 -0.6424
 4838TIP3    H136149   0.260   0.459   7.841  1.4821  1.2763 -0.2481
 4838TIP3    H236150   0.256   0.309   7.820 -2.3920  1.1816  0.4011
 4839TIP3   OH236151   6.298   3.553   9.037 -0.2716 -0.1787 -0.4580
 4839TIP3    H136152   6.303   3.557   9.132 -0.4032  0.6535 -0.4789
 4839TIP3    H236153   6.209   3.522   9.019 -0.2937 -0.1986 -0.3154
 4840TIP3   OH236154   3.173   3.695   2.116 -0.0556 -0.6860 -0.2102
 4840TIP3    H136155   3.177   3.788   2.091 -2.0318  0.1310  2.1109
 4840TIP3    H236156   3.145   3.696   2.207  0.4825 -3.6046  0.0862
 4841TIP3   OH236157   0.723   6.723   9.042 -0.3346  0.1598 -0.1408
 4841TIP3    H136158   0.691   6.649   8.990 -0.1900 -0.8102  1.1104
 4841TIP3    H236159   0.814   6.733   9.015  0.5572 -2.0596  1.7273
 4842TIP3   OH236160   0.553   5.390   1.756 -0.4205  0.4356 -0.4266
 4842TIP3    H136161   0.575   5.297   1.759 -0.3496  0.4623 -0.1037
 4842TIP3    H236162   0.459   5.393   1.775 -0.7626  0.3069 -1.9863
 4843TIP3   OH236163   1.920   3.626   7.107 -0.1874 -0.0148  0.4192
 4843TIP3    H136164   1.914   3.537   7.070 -0.8564  0.1129  0.2023
 4843TIP3    H236165   1.879   3.682   7.041  0.4584  0.5000  0.4382
 4844TIP3   OH236166   4.939   1.925   0.484 -0.2658 -0.2437 -0.2892
 4844TIP3    H136167   4.937   1.946   0.391 -0.3492 -0.6359 -0.3800
 4844TIP3    H236168   4.868   1.978   0.521  1.0792  1.5008 -0.0821
 4845TIP3   OH236169   0.450   1.871   2.148 -0.1821  0.0867  0.4446
 4845TIP3    H136170   0.539   1.867   2.113 -0.4817 -3.7654 -0.3627
 4845TIP3    H236171   0.459   1.913   2.233  2.7851 -1.8161  1.2187
 4846TIP3   OH236172   3.514   6.006   6.739 -0.2103  0.0867  0.2470
 4846TIP3    H136173   3.557   6.022   6.655  1.9021  0.8085  1.4163
 4846TIP3    H236174   3.472   5.920   6.728 -0.8806  0.6250 -1.8651
 4847TIP3   OH236175   3.714   3.359   8.439  0.4759  0.4352 -0.5017
 4847TIP3    H136176   3.636   3.411   8.460  0.9960  0.6775  0.9325
 4847TIP3    H236177   3.688   3.309   8.362 -1.4410 -0.1598  0.4440
 4848TIP3   OH236178   4.575   4.129   6.783  0.2749 -0.6763  0.2022
 4848TIP3    H136179   4.565   4.039   6.815  0.1853 -0.2886  1.2789
 4848TIP3    H236180   4.487   4.155   6.758  0.0469 -0.3714  1.3002
 4849TIP3   OH236181   6.110   3.741   1.697 -0.0716 -0.1185  0.1547
 4849TIP3    H136182   6.121   3.818   1.640 -0.4931  0.7766  1.2488
 4849TIP3    H236183   6.081   3.777   1.781 -0.6935 -1.5159  0.5696
 4850TIP3   OH236184   3.347   2.384   7.948  0.5002  0.6325  0.4780
 4850TIP3    H136185   3.305   2.321   7.889 -2.2552  0.5102  2.3766
 4850TIP3    H236186   3.328   2.470   7.909 -1.0346  0.5356  0.9360
 4851TIP3   OH236187   1.822   0.020   1.154  0.2353 -0.1471 -0.1814
 4851TIP3    H136188   1.750   0.059   1.104 -0.0623  0.5091  0.7397
 4851TIP3    H236189   1.866  -0.037   1.091  0.4252  1.3502 -1.4831
 4852TIP3   OH236190   1.349   4.533   7.823 -0.3467 -0.3613 -0.0903
 4852TIP3    H136191   1.288   4.545   7.750  0.2712 -0.4220 -0.6267
 4852TIP3    H236192   1.416   4.601   7.809  0.2934 -0.9916 -0.1253
 4853TIP3   OH236193   1.453   5.004   7.346 -0.2533 -0.3637 -0.2426
 4853TIP3    H136194   1.393   4.941   7.307  1.6593 -2.3785 -0.1359
 4853TIP3    H236195   1.434   5.001   7.440 -2.0041  1.3357 -0.4915
 4854TIP3   OH236196   1.240   1.098   2.092  0.1890 -0.4169 -0.8411
 4854TIP3    H136197   1.186   1.176   2.077  0.3766 -0.3187 -1.0182
 4854TIP3    H236198   1.230   1.079   2.185 -0.5374 -0.6888 -0.9638
 4855TIP3   OH236199   4.235   5.377   7.642  0.1493  0.4765  0.4309
 4855TIP3    H136200   4.283   5.345   7.566  0.9535 -3.4430  2.3164
 4855TIP3    H236201   4.157   5.418   7.606  0.8801 -0.4809 -2.5286
 4856TIP3   OH236202   6.478   5.240   2.477 -0.0467 -0.4415 -0.1499
 4856TIP3    H136203   6.421   5.219   2.550 -0.4499 -0.0803 -0.3504
 4856TIP3    H236204   6.480   5.336   2.475 -0.4620 -0.4404 -0.9263
 4857TIP3   OH236205   5.286   4.565   1.834  0.2388  0.3128 -0.5690
 4857TIP3    H136206   5.238   4.586   1.754 -2.2095  0.1839  0.7727
 4857TIP3    H236207   5.272   4.471   1.846  0.8688  0.2665 -0.1533
 4858TIP3   OH236208   5.422   2.456   1.671  0.3886  0.0299 -1.1012
 4858TIP3    H136209   5.453   2.365   1.675 -0.0554 -0.0967 -0.4629
 4858TIP3    H236210   5.447   2.493   1.755 -0.7532  0.0689 -0.7695
 4859TIP3   OH236211   5.373   0.024   1.815 -0.7656  0.3335 -0.2286
 4859TIP3    H136212   5.321  -0.011   1.743  0.3173 -0.1052 -0.8366
 4859TIP3    H236213   5.315   0.021   1.891 -1.1212 -1.7124 -0.5093
 4860TIP3   OH236214   1.555   5.319   9.109  0.0072  0.6531  0.3723
 4860TIP3    H136215   1.629   5.272   9.146  0.7209 -0.6231 -2.4456
 4860TIP3    H236216   1.480   5.262   9.125  0.2478  0.2914  0.2401
 4861TIP3   OH236217   5.225   0.104   8.293 -0.5395 -0.6363  0.4917
 4861TIP3    H136218   5.175   0.160   8.233  1.0090 -0.2964 -0.5522
 4861TIP3    H236219   5.232   0.020   8.247  1.5614 -0.0575 -0.3915
 4862TIP3   OH236220   0.235   5.195   0.821 -0.1741 -0.1132  1.0465
 4862TIP3    H136221   0.166   5.201   0.886 -0.1857 -0.8677  1.1166
 4862TIP3    H236222   0.316   5.193   0.872  0.0069  2.0724  0.9170
 4863TIP3   OH236223   2.469   3.593   6.936  0.4134 -0.3879 -0.6601
 4863TIP3    H136224   2.516   3.662   6.890  0.3043  0.1271 -0.0187
 4863TIP3    H236225   2.386   3.634   6.961  1.0935 -0.1411  1.3497
 4864TIP3   OH236226   4.086   5.330   0.776  0.5055  0.2068  0.3544
 4864TIP3    H136227   4.005   5.367   0.739  0.3502 -1.8077 -1.5368
 4864TIP3    H236228   4.056   5.264   0.839  0.5771 -1.1584 -0.9764
 4865TIP3   OH236229   0.120   3.996   0.691  0.2413  0.4583  0.1757
 4865TIP3    H136230   0.036   4.030   0.660 -0.3057 -1.3500 -0.4069
 4865TIP3    H236231   0.104   3.974   0.783  0.9938  2.9263  0.9867
 4866TIP3   OH236232   4.199   0.175   8.129  0.3073 -0.5715  0.2405
 4866TIP3    H136233   4.263   0.168   8.057  1.4489 -1.7561  1.3211
 4866TIP3    H236234   4.229   0.250   8.180 -0.3254  0.0764 -0.3072
 4867TIP3   OH236235   5.273   0.784   7.378  0.0499 -0.6772  0.2315
 4867TIP3    H136236   5.220   0.716   7.337 -1.1809 -0.1309  0.8306
 4867TIP3    H236237   5.271   0.857   7.316  2.0263 -1.3998 -0.7750
 4868TIP3   OH236238   2.945   6.554   8.132  0.8210  0.4506  0.6428
 4868TIP3    H136239   2.960   6.583   8.222  0.8468 -0.2988  0.8951
 4868TIP3    H236240   2.986   6.468   8.128 -2.0343 -1.0713  0.9373
 4869TIP3   OH236241   5.888   1.792   0.748  0.1164 -0.2163  0.0995
 4869TIP3    H136242   5.870   1.821   0.659  2.0196  0.9872  0.0614
 4869TIP3    H236243   5.980   1.766   0.748  0.0660 -0.5362  1.6384
 4870TIP3   OH236244   0.390   2.965   1.286  0.0059 -0.9848 -0.0382
 4870TIP3    H136245   0.332   2.925   1.221 -0.8025  0.2077 -0.0793
 4870TIP3    H236246   0.335   2.978   1.363 -0.2562  1.5184 -0.5633
 4871TIP3   OH236247   0.524   1.828   1.836 -0.3437  0.1104  0.1809
 4871TIP3    H136248   0.448   1.807   1.891  0.8406  0.1861  1.9287
 4871TIP3    H236249   0.593   1.852   1.898  0.6882  1.5248 -1.4111
 4872TIP3   OH236250   4.024   5.472   8.746  0.8482 -0.0779 -0.4267
 4872TIP3    H136251   3.935   5.507   8.754  1.1159  0.3366  1.0828
 4872TIP3    H236252   4.047   5.487   8.655  0.1881  1.8717 -0.3284
 4873TIP3   OH236253   4.984   2.562   0.847  0.2171  0.8822 -0.4171
 4873TIP3    H136254   5.027   2.645   0.870 -0.7075  0.8175  1.7848
 4873TIP3    H236255   4.991   2.509   0.925 -1.2583 -0.2518 -1.0103
 4874TIP3   OH236256   6.535   3.726   7.977 -0.0389 -0.1538 -0.2357
 4874TIP3    H136257   6.506   3.740   7.887  1.8131  0.5995 -0.7689
 4874TIP3    H236258   6.543   3.814   8.014  0.1619 -0.4098  0.3395
 4875TIP3   OH236259   4.178   3.526   8.287 -0.2547  0.2832  0.0752
 4875TIP3    H136260   4.240   3.491   8.351 -0.4842  1.3432  0.9284
 4875TIP3    H236261   4.093   3.520   8.331 -0.9564 -2.0902 -1.4744
 4876TIP3   OH236262   3.638   3.621   5.947  0.0838 -0.4982  0.3007
 4876TIP3    H136263   3.694   3.551   5.913  1.0615  0.6374 -0.4763
 4876TIP3    H236264   3.686   3.657   6.022  0.8544  1.0447 -0.8838
 4877TIP3   OH236265   5.307   4.817   8.977  0.0611  0.0520 -1.2187
 4877TIP3    H136266   5.219   4.848   8.998 -0.0454 -0.5338 -0.7356
 4877TIP3    H236267   5.362   4.895   8.983 -0.4139  0.4125 -1.4646
 4878TIP3   OH236268   3.952   6.217   2.409  0.7163  0.2062  0.6281
 4878TIP3    H136269   3.887   6.179   2.469 -0.3576 -2.3057 -1.8781
 4878TIP3    H236270   3.911   6.298   2.377  0.4856  0.5817  1.8293
 4879TIP3   OH236271   2.705   3.276   8.215  0.3078 -0.0525  0.6314
 4879TIP3    H136272   2.721   3.361   8.175  0.9093 -0.0640  0.8252
 4879TIP3    H236273   2.610   3.263   8.210  0.2375  0.5397  0.4283
 4880TIP3   OH236274   2.958   0.507   1.980 -0.3101  0.3898  0.1816
 4880TIP3    H136275   3.053   0.506   1.981 -0.3115  0.8423  0.8173
 4880TIP3    H236276   2.932   0.423   2.019 -0.1783  0.0448 -0.4571
 4881TIP3   OH236277   6.436   0.024   1.921 -0.3738 -0.4418 -0.0789
 4881TIP3    H136278   6.369   0.048   1.985 -1.3553  1.9377 -1.8535
 4881TIP3    H236279   6.452   0.104   1.872  1.6971 -1.6981 -1.6117
 4882TIP3   OH236280   3.544   0.722   1.087 -0.1229  0.7526  0.1125
 4882TIP3    H136281   3.509   0.742   1.173  1.0749  2.8026  0.1810
 4882TIP3    H236282   3.538   0.627   1.080 -1.4064  0.6578  1.9247
 4883TIP3   OH236283   5.388   5.678   0.520  0.0859  0.0046 -0.6201
 4883TIP3    H136284   5.466   5.631   0.547  0.3352  1.0138  0.4853
 4883TIP3    H236285   5.372   5.648   0.430  0.9886 -1.1557 -0.4211
 4884TIP3   OH236286   0.288   3.859   7.189  0.2372  0.2607  0.4155
 4884TIP3    H136287   0.335   3.821   7.263 -1.6219 -1.3329  0.8391
 4884TIP3    H236288   0.196   3.855   7.214 -0.2804  1.8608 -1.0325
 4885TIP3   OH236289   2.485   5.399   7.995  0.1253  0.1729 -0.4373
 4885TIP3    H136290   2.434   5.388   8.076 -1.7650 -0.6008 -1.6521
 4885TIP3    H236291   2.451   5.479   7.956 -1.2004 -1.0397 -1.9103
 4886TIP3   OH236292   3.279   1.301   8.039 -0.4020  0.3247 -0.4903
 4886TIP3    H136293   3.186   1.280   8.028  0.4533 -2.7404 -4.3466
 4886TIP3    H236294   3.296   1.370   7.974  0.1300  0.6034 -0.0705
 4887TIP3   OH236295   1.513   5.440   8.048  0.4361 -0.4928  0.2529
 4887TIP3    H136296   1.535   5.383   7.975  0.3276 -1.7324  1.1496
 4887TIP3    H236297   1.434   5.401   8.086  1.1848 -0.6036  1.7674
 4888TIP3   OH236298   0.662   1.797   9.023 -0.2376  0.4286  0.0886
 4888TIP3    H136299   0.701   1.884   9.023 -0.0331  0.3523 -1.1979
 4888TIP3    H236300   0.737   1.737   9.020 -0.3680  0.1826  1.2025
 4889TIP3   OH236301   6.518   2.839   1.612 -0.2987  0.3566  0.1900
 4889TIP3    H136302   6.564   2.879   1.686  0.3515 -0.6981  0.3771
 4889TIP3    H236303   6.470   2.766   1.651  0.0932 -0.2412 -0.4358
 4890TIP3   OH236304   2.931   4.469   0.544  0.5945  0.7730 -0.0721
 4890TIP3    H136305   2.927   4.392   0.601  1.3533  0.5626 -0.2903
 4890TIP3    H236306   2.953   4.433   0.458 -1.7370  0.9320 -0.8141
 4891TIP3   OH236307   2.065   3.783   9.013 -0.4521  0.2055  0.3523
 4891TIP3    H136308   1.980   3.798   9.055  0.6162  0.8175  2.4621
 4891TIP3    H236309   2.083   3.691   9.029 -0.8492 -0.0131 -0.4061
 4892TIP3   OH236310   4.493   6.516   7.205 -0.4504 -0.4316  0.5380
 4892TIP3    H136311   4.548   6.465   7.265  1.1879  1.2725  0.5760
 4892TIP3    H236312   4.550   6.536   7.131 -1.2177  0.8441  0.2531
 4893TIP3   OH236313   2.751   3.567   1.709 -0.3806 -0.4916  0.4084
 4893TIP3    H136314   2.749   3.472   1.721  0.3350 -0.5922 -0.2460
 4893TIP3    H236315   2.659   3.591   1.692 -0.5494 -1.0702  0.4931
 4894TIP3   OH236316   3.454   2.764   1.538  0.3218 -0.2688 -0.2530
 4894TIP3    H136317   3.549   2.772   1.546  0.3975 -1.3690  0.0548
 4894TIP3    H236318   3.429   2.696   1.601 -0.8435  0.8930  0.5978
 4895TIP3   OH236319   4.273   1.211   6.281  0.1038  0.0040  0.0545
 4895TIP3    H136320   4.267   1.115   6.273 -0.6362  0.1372 -1.2658
 4895TIP3    H236321   4.360   1.231   6.248  0.5338 -0.2668  0.9989
 4896TIP3   OH236322   5.990   0.166   7.514 -0.2991 -0.2265  0.6100
 4896TIP3    H136323   5.986   0.233   7.445 -0.5347 -0.2906  0.5614
 4896TIP3    H236324   6.001   0.084   7.467  3.2998  0.0257  0.7259
 4897TIP3   OH236325   5.023   1.089   6.635 -0.2033  0.0889 -0.6426
 4897TIP3    H136326   5.076   1.164   6.661 -0.2366  0.2558 -1.0434
 4897TIP3    H236327   5.079   1.039   6.576  0.0077 -0.4869  0.0303
 4898TIP3   OH236328   1.097   4.185   0.381 -0.2489 -0.0823 -0.0847
 4898TIP3    H136329   1.075   4.270   0.343 -2.3101 -1.5328 -2.4364
 4898TIP3    H236330   1.125   4.132   0.307 -1.3930 -2.1629  0.8915
 4899TIP3   OH236331   5.889   5.554   2.781  0.8633  0.3578  0.1688
 4899TIP3    H136332   5.844   5.500   2.716  0.3470  0.0844  0.7435
 4899TIP3    H236333   5.840   5.636   2.784  0.0654 -0.1245  1.1524
 4900TIP3   OH236334   4.068   5.405   9.011  0.1485 -0.3008 -0.4153
 4900TIP3    H136335   4.149   5.355   9.010 -0.6067 -1.5786 -1.4168
 4900TIP3    H236336   4.060   5.441   8.923  0.6938  1.6798  0.2975
 4901TIP3   OH236337   6.730   5.173   2.288  0.1841 -0.1707 -0.4371
 4901TIP3    H136338   6.666   5.104   2.271 -0.4779  0.7019 -1.6865
 4901TIP3    H236339   6.770   5.149   2.371  0.8565 -2.7178 -1.4015
 4902TIP3   OH236340   5.677   1.304   2.120 -0.1871 -0.0212 -0.4637
 4902TIP3    H136341   5.603   1.344   2.074  0.5275 -0.5385 -2.1308
 4902TIP3    H236342   5.637   1.239   2.178 -1.4654  3.3752  2.9099
 4903TIP3   OH236343   1.286   2.309   8.528 -0.4083 -0.1284  0.1998
 4903TIP3    H136344   1.205   2.340   8.487 -0.9681 -0.8738  0.7194
 4903TIP3    H236345   1.260   2.288   8.617  0.8273  1.6301  1.0350
 4904TIP3   OH236346   0.792   6.742   1.033 -0.3127  0.1593 -0.0254
 4904TIP3    H136347   0.700   6.719   1.019 -0.3330 -0.2031  0.6879
 4904TIP3    H236348   0.807   6.817   0.974 -1.4816  1.1929  0.9488
 4905TIP3   OH236349   2.997   6.456   9.123  0.3824  0.4835 -0.3428
 4905TIP3    H136350   2.908   6.487   9.133  0.1824 -0.5682  1.4742
 4905TIP3    H236351   3.002   6.428   9.032 -0.8502  1.3578 -0.7108
 4906TIP3   OH236352   1.687   6.552   1.480 -0.7019  0.6342  0.0691
 4906TIP3    H136353   1.620   6.575   1.416  0.4847  1.7783 -0.8200
 4906TIP3    H236354   1.683   6.623   1.544  1.4842  2.3131 -1.4978
 4907TIP3   OH236355   3.764   1.722   7.960  0.3168  0.3230 -0.2369
 4907TIP3    H136356   3.716   1.748   8.039  0.4013  0.0495 -0.0942
 4907TIP3    H236357   3.809   1.802   7.932 -0.1149  0.5487 -0.2986
 4908TIP3   OH236358   3.888   0.865   0.257  0.2156 -0.6250 -0.5637
 4908TIP3    H136359   3.858   0.805   0.188 -0.6091 -0.3320 -0.4750
 4908TIP3    H236360   3.821   0.857   0.325 -0.8342  1.6123 -1.2394
 4909TIP3   OH236361   3.004   1.345   8.434 -0.2651  0.8689  0.0574
 4909TIP3    H136362   2.982   1.424   8.385  0.1888  0.4662 -0.8122
 4909TIP3    H236363   3.099   1.350   8.447 -0.1435  0.2000 -0.4975
 4910TIP3   OH236364   3.016   4.417   1.362  0.2356  0.2378  0.4373
 4910TIP3    H136365   2.965   4.395   1.285 -1.3407 -2.1620  2.0271
 4910TIP3    H236366   3.106   4.391   1.340  0.8742  3.8848 -2.1333
 4911TIP3   OH236367   0.393   5.049   2.359 -0.5966  0.7272 -0.1291
 4911TIP3    H136368   0.357   5.128   2.400 -0.2469 -0.5624  2.9127
 4911TIP3    H236369   0.459   5.018   2.421 -1.7953 -2.8230 -0.4425
 4912TIP3   OH236370   1.543   1.210   0.283  0.3171 -0.0478  0.3759
 4912TIP3    H136371   1.595   1.130   0.274  1.4613  0.7901 -0.7748
 4912TIP3    H236372   1.606   1.278   0.303 -0.5930  0.6587  0.9294
 4913TIP3   OH236373   6.535   1.498   7.920  0.0509  0.4182 -0.2891
 4913TIP3    H136374   6.441   1.484   7.935  0.4143  0.2634  2.3112
 4913TIP3    H236375   6.542   1.588   7.890 -0.8748  0.6628  0.1978
 4914TIP3   OH236376   1.416   5.929   6.452 -0.7904  0.1711  0.4459
 4914TIP3    H136377   1.414   5.940   6.547  1.2482  0.0898  0.5350
 4914TIP3    H236378   1.334   5.969   6.422 -1.0052  1.1189  2.1340
 4915TIP3   OH236379   0.942   0.813   7.945  0.4998 -0.5124 -0.2758
 4915TIP3    H136380   0.915   0.729   7.983  0.7525 -0.9951 -1.1177
 4915TIP3    H236381   0.878   0.829   7.876 -1.2228  1.4075  1.6313
 4916TIP3   OH236382   3.207   0.089   0.346  0.1148  0.9697 -0.4331
 4916TIP3    H136383   3.270   0.123   0.282 -1.2629  0.4969 -2.1136
 4916TIP3    H236384   3.172   0.010   0.306 -1.3476  1.0640  0.5741
 4917TIP3   OH236385   4.547   4.211   8.922 -0.9988  0.7760 -0.5088
 4917TIP3    H136386   4.586   4.233   9.006  3.0867  1.4439 -2.3713
 4917TIP3    H236387   4.561   4.288   8.867 -4.5175  0.7784 -1.6640
 4918TIP3   OH236388   1.993   1.752   1.112 -0.0807  0.4118 -0.1469
 4918TIP3    H136389   2.049   1.829   1.107  0.3618  0.2095  1.1961
 4918TIP3    H236390   2.021   1.708   1.192 -0.3796 -1.1085 -0.8492
 4919TIP3   OH236391   4.519   2.410   2.403  0.4679 -0.2670 -0.0166
 4919TIP3    H136392   4.566   2.443   2.326  0.8188 -1.3173 -0.2747
 4919TIP3    H236393   4.582   2.351   2.445 -0.8545 -2.3412 -0.8085
 4920TIP3   OH236394   2.362   5.412   0.252  0.3996 -0.2186 -1.0264
 4920TIP3    H136395   2.421   5.466   0.200 -0.3354  0.8097 -0.8462
 4920TIP3    H236396   2.388   5.429   0.343  0.1328 -0.1227 -0.9661
 4921TIP3   OH236397   5.016   4.462   8.844  0.2952 -0.3617 -0.0668
 4921TIP3    H136398   5.043   4.522   8.774  0.6628  1.1260  1.2739
 4921TIP3    H236399   5.043   4.506   8.925  0.6362 -2.3872  1.0022
 4922TIP3   OH236400   6.394   6.469   8.875  0.2869 -0.0006  0.1004
 4922TIP3    H136401   6.305   6.435   8.882 -1.0187  3.2585  1.7008
 4922TIP3    H236402   6.414   6.466   8.782 -1.4913 -0.7743 -0.3014
 4923TIP3   OH236403   3.690   3.086   6.534  0.3014 -0.3379  0.2055
 4923TIP3    H136404   3.750   3.060   6.464 -2.0771 -0.9690 -1.7188
 4923TIP3    H236405   3.629   3.147   6.493 -0.2315  0.5445  2.1663
 4924TIP3   OH236406   2.747   3.074   0.487  0.0896  0.3505 -0.0156
 4924TIP3    H136407   2.659   3.037   0.481 -0.2311  1.2357 -1.3340
 4924TIP3    H236408   2.758   3.098   0.579 -0.4532 -1.1310  0.4531
 4925TIP3   OH236409   2.417   3.745   1.916 -0.5079  0.3748  0.1056
 4925TIP3    H136410   2.471   3.677   1.876 -0.4262  0.9566 -0.8017
 4925TIP3    H236411   2.477   3.819   1.928 -1.1326  1.1123 -1.1435
 4926TIP3   OH236412   2.422   2.706   1.678  0.4617 -0.3002  0.2070
 4926TIP3    H136413   2.411   2.648   1.602  0.1775 -0.0802  0.0780
 4926TIP3    H236414   2.515   2.699   1.700  0.5680 -0.2927 -0.2211
 4927TIP3   OH236415   5.245   1.822   7.358  0.2586  0.3683  0.1517
 4927TIP3    H136416   5.218   1.764   7.429 -0.0678 -0.1534 -0.3868
 4927TIP3    H236417   5.174   1.817   7.294  0.7755  0.4341 -0.4398
 4928TIP3   OH236418   4.690   2.289   1.183 -0.2648 -0.1463 -0.2053
 4928TIP3    H136419   4.638   2.271   1.104 -0.9703  5.5103 -1.4704
 4928TIP3    H236420   4.778   2.306   1.150 -0.5040  1.9965  0.1045
 4929TIP3   OH236421   6.272   4.503   0.231  0.6430  0.6917  0.3512
 4929TIP3    H136422   6.307   4.480   0.317  2.2045 -0.5037 -0.5584
 4929TIP3    H236423   6.341   4.556   0.191  0.9216 -0.6146 -0.9864
 4930TIP3   OH236424   5.021   5.315   0.736  0.3179 -0.1557 -0.2602
 4930TIP3    H136425   5.007   5.250   0.805  1.4938 -1.7647 -1.4587
 4930TIP3    H236426   4.990   5.272   0.656  1.0037  0.7954 -1.0573
 4931TIP3   OH236427   6.406   5.513   2.521  0.2713 -0.3355 -0.0309
 4931TIP3    H136428   6.417   5.597   2.478  0.9697 -0.3538  0.0990
 4931TIP3    H236429   6.330   5.524   2.579  0.7281  0.3933  0.4412
 4932TIP3   OH236430   2.353   6.280   8.737  0.4422 -0.8491 -0.1412
 4932TIP3    H136431   2.294   6.336   8.787  0.6914 -0.2586 -0.4977
 4932TIP3    H236432   2.357   6.198   8.787  0.5246 -0.3512  0.6925
 4933TIP3   OH236433   5.722   3.341   8.420 -0.7926  0.1141  0.2117
 4933TIP3    H136434   5.801   3.352   8.367 -0.9854 -1.9239 -0.5809
 4933TIP3    H236435   5.722   3.417   8.478  1.2129  0.6843 -0.4335
 4934TIP3   OH236436   2.138   0.500   7.796  0.2993  0.0265 -0.1399
 4934TIP3    H136437   2.208   0.467   7.851  0.1122 -0.9333 -0.4450
 4934TIP3    H236438   2.081   0.424   7.782 -0.9654  0.8533  0.3558
 4935TIP3   OH236439   1.973   6.633   1.985  0.3509 -0.0057  0.1854
 4935TIP3    H136440   1.951   6.725   2.001  0.3196 -0.0781  0.5856
 4935TIP3    H236441   1.920   6.585   2.049 -0.8147 -0.4190 -1.0407
 4936TIP3   OH236442   4.661   2.200   8.294 -0.2055 -0.5164  0.0813
 4936TIP3    H136443   4.571   2.233   8.293  0.0763  0.2860  0.3229
 4936TIP3    H236444   4.706   2.253   8.228  0.4504  0.1672  1.0501
 4937TIP3   OH236445   2.579   5.654   6.897 -0.3619 -0.0351  0.2198
 4937TIP3    H136446   2.526   5.716   6.948 -0.3541 -0.5506  0.8666
 4937TIP3    H236447   2.559   5.676   6.806  1.4249  2.4926  0.3286
 4938TIP3   OH236448   3.258   0.981   0.134 -0.4863  0.1300 -0.1924
 4938TIP3    H136449   3.182   0.961   0.080  0.0298 -3.2365  0.0834
 4938TIP3    H236450   3.222   0.990   0.223 -0.8446  1.4882 -0.4524
 4939TIP3   OH236451   1.425   2.290   7.202 -0.6814  0.1226 -0.1569
 4939TIP3    H136452   1.330   2.279   7.212 -0.4511 -0.9837  1.0926
 4939TIP3    H236453   1.448   2.232   7.130 -0.5326 -2.1937  1.6571
 4940TIP3   OH236454   5.010   0.031   9.014 -0.1100  0.2158 -0.3748
 4940TIP3    H136455   4.984   0.066   9.100  0.1787 -0.3862 -0.0329
 4940TIP3    H236456   5.106   0.030   9.016 -0.0502  1.5878 -1.2888
 4941TIP3   OH236457   1.081   2.029   2.078 -0.1230  0.1960  0.3936
 4941TIP3    H136458   1.133   2.104   2.107 -0.0426  0.9534 -1.5761
 4941TIP3    H236459   1.002   2.068   2.040 -0.5496 -0.7768  0.2416
 4942TIP3   OH236460   1.894   6.220   6.671 -0.6563  0.3632 -0.4386
 4942TIP3    H136461   1.974   6.258   6.635 -0.5983  0.5083 -0.1547
 4942TIP3    H236462   1.836   6.211   6.595 -0.4696  0.4997 -0.5999
 4943TIP3   OH236463   0.181   1.009   1.543 -0.1356  0.0337  0.3449
 4943TIP3    H136464   0.130   0.940   1.500  2.6569 -1.5668 -0.6537
 4943TIP3    H236465   0.159   1.001   1.636 -0.4355 -1.7450  0.1560
 4944TIP3   OH236466   0.519   3.499   8.383 -0.0110 -0.5406  0.3462
 4944TIP3    H136467   0.427   3.509   8.407  0.2877 -0.2225  1.4176
 4944TIP3    H236468   0.540   3.577   8.332  0.0337  0.0987  1.3239
 4945TIP3   OH236469   5.804   6.301   8.385 -0.6957 -0.0988  0.3573
 4945TIP3    H136470   5.779   6.391   8.364  2.1977  0.6260 -0.5375
 4945TIP3    H236471   5.893   6.292   8.350 -1.4445 -3.8617 -1.0725
 4946TIP3   OH236472   6.089   5.672   1.059  0.2487 -0.1778  0.4751
 4946TIP3    H136473   6.047   5.694   1.142  0.9746 -0.7483  1.0131
 4946TIP3    H236474   6.174   5.635   1.084  0.9230  0.6034 -0.5597
 4947TIP3   OH236475   6.119   6.325   8.910  0.4784 -0.0352 -0.0223
 4947TIP3    H136476   6.052   6.391   8.925  1.8349  1.1604  1.0773
 4947TIP3    H236477   6.072   6.241   8.915 -0.8209  0.7373  1.4181
 4948TIP3   OH236478   4.464   2.384   8.705 -0.5619  0.0593  0.0357
 4948TIP3    H136479   4.489   2.435   8.628 -0.9694  0.3592  0.1001
 4948TIP3    H236480   4.389   2.332   8.677 -1.2172  0.7597  0.4446
 4949TIP3   OH236481   4.205   0.350   2.057  0.0816 -0.0292 -0.5129
 4949TIP3    H136482   4.118   0.336   2.095  0.3758 -0.6449 -0.0381
 4949TIP3    H236483   4.254   0.272   2.082  0.5398 -0.0516 -1.4628
 4950TIP3   OH236484   1.484   6.175   7.024 -0.4329  0.1370  0.7907
 4950TIP3    H136485   1.467   6.223   6.943  2.2491  2.6280  1.5345
 4950TIP3    H236486   1.553   6.112   7.001  0.4708  0.9822  1.1354
 4951TIP3   OH236487   3.686   4.199   6.981  0.0154 -0.9479  0.1828
 4951TIP3    H136488   3.688   4.239   7.068 -0.7606 -0.6074  0.0587
 4951TIP3    H236489   3.688   4.274   6.921 -1.0059 -1.0964 -0.0587
 4952TIP3   OH236490   1.496   6.465   7.481  0.0950 -0.2152  0.0962
 4952TIP3    H136491   1.500   6.390   7.422 -0.4854  0.1643 -0.4392
 4952TIP3    H236492   1.404   6.491   7.480  0.5469  1.5096 -1.0056
 4953TIP3   OH236493   4.363   5.502   1.607 -0.2788 -0.0108  0.1353
 4953TIP3    H136494   4.421   5.570   1.572 -0.1756 -0.2466 -0.1553
 4953TIP3    H236495   4.422   5.437   1.645 -0.3841  0.1599  0.6011
 4954TIP3   OH236496   5.646   5.956   7.326 -0.3984 -0.2621 -0.1050
 4954TIP3    H136497   5.650   6.002   7.242  1.4647  0.7156  0.4578
 4954TIP3    H236498   5.555   5.965   7.354 -1.0047 -0.4193 -1.8914
 4955TIP3   OH236499   4.895   4.080   0.775  0.2883  0.1926 -0.2730
 4955TIP3    H136500   4.986   4.099   0.756  0.6253 -1.5337 -0.5168
 4955TIP3    H236501   4.870   4.146   0.840  1.7239  0.6121 -0.1143
 4956TIP3   OH236502   5.935   4.259   0.857  0.2366  0.9410  0.2998
 4956TIP3    H136503   5.921   4.326   0.790 -1.4237  0.4678  0.1298
 4956TIP3    H236504   5.964   4.309   0.934  0.4113  1.6877 -0.2347
 4957TIP3   OH236505   3.579   4.095   8.435 -0.5149 -0.1798 -0.1779
 4957TIP3    H136506   3.629   4.142   8.368  0.0207  1.5298  1.3394
 4957TIP3    H236507   3.642   4.035   8.474 -0.5817 -0.5214 -0.5980
 4958TIP3   OH236508   2.877   2.146   6.633 -0.0839  0.2404  0.2794
 4958TIP3    H136509   2.895   2.064   6.587 -1.7142  0.0054 -0.0036
 4958TIP3    H236510   2.793   2.130   6.678 -0.3510  1.6932  0.3433
 4959TIP3   OH236511   2.610   3.645   8.503  0.0735 -0.0660  0.3554
 4959TIP3    H136512   2.633   3.667   8.413 -0.2508 -0.5918  0.1333
 4959TIP3    H236513   2.517   3.620   8.498  0.1965 -0.6301  0.7289
 4960TIP3   OH236514   5.631   6.070   7.079 -0.2384  0.7366 -0.0469
 4960TIP3    H136515   5.614   6.085   6.986  4.1565 -0.6517 -1.2890
 4960TIP3    H236516   5.660   6.155   7.112  1.1718  0.5604 -0.7846
 4961TIP3   OH236517   2.085   3.224   0.962  0.1904  0.0976 -0.3200
 4961TIP3    H136518   2.025   3.295   0.939  0.9674  1.3619  1.3926
 4961TIP3    H236519   2.155   3.266   1.012  0.3401 -1.9634  1.3405
 4962TIP3   OH236520   3.995   5.831   0.639 -0.0356  0.5305 -0.4567
 4962TIP3    H136521   3.915   5.779   0.638  0.6476 -0.6120  0.8951
 4962TIP3    H236522   4.000   5.868   0.551 -1.8567  0.3575 -0.6758
 4963TIP3   OH236523   1.204   3.356   0.139 -0.0606 -0.2271 -0.7352
 4963TIP3    H136524   1.180   3.287   0.201  0.9150  1.1083  1.2556
 4963TIP3    H236525   1.266   3.314   0.080  1.1505 -0.9331  0.9303
 4964TIP3   OH236526   4.875   0.202   0.869 -0.6174  0.5519  0.1738
 4964TIP3    H136527   4.919   0.265   0.811  0.3496 -1.1799 -1.0731
 4964TIP3    H236528   4.788   0.240   0.885 -0.1221  2.1095 -0.6306
 4965TIP3   OH236529   5.812   5.177   2.444  0.1287  0.1626  0.1675
 4965TIP3    H136530   5.890   5.134   2.410  0.8323  1.4574  0.0653
 4965TIP3    H236531   5.763   5.203   2.366 -1.6166 -2.6257  0.2051
 4966TIP3   OH236532   1.855   4.245   8.464  0.1949  0.7110 -0.0496
 4966TIP3    H136533   1.896   4.255   8.378  0.0715  2.9013  0.0788
 4966TIP3    H236534   1.766   4.278   8.452 -0.3200 -0.4043  0.5789
 4967TIP3   OH236535   5.853   0.238   1.854  0.5945 -0.0034 -0.2354
 4967TIP3    H136536   5.817   0.318   1.815 -0.4856  0.4627  1.6258
 4967TIP3    H236537   5.832   0.169   1.790  0.4881  0.9826 -1.3012
 4968TIP3   OH236538   0.435   5.217   0.490 -0.0936  0.4129 -0.3726
 4968TIP3    H136539   0.477   5.184   0.411  1.9346 -0.2290  0.9231
 4968TIP3    H236540   0.388   5.295   0.460  1.0476  0.4873 -2.1229
 4969TIP3   OH236541   2.224   2.148   0.348 -0.2816 -0.2119  0.3975
 4969TIP3    H136542   2.177   2.208   0.289  0.4816  0.5592  0.5528
 4969TIP3    H236543   2.313   2.185   0.353 -0.0016 -0.9642  1.0663
 4970TIP3   OH236544   4.145   3.816   6.839  0.0185 -0.1546  0.3228
 4970TIP3    H136545   4.227   3.770   6.822  0.4449  1.5983 -3.4288
 4970TIP3    H236546   4.172   3.900   6.876 -0.3567 -0.7699  2.0394
 4971TIP3   OH236547   5.305   3.963   0.400 -0.5807 -0.3263 -0.3267
 4971TIP3    H136548   5.374   3.992   0.340  2.7010 -0.5219  2.9459
 4971TIP3    H236549   5.266   4.044   0.433  3.0877  0.4568  2.8535
 4972TIP3   OH236550   4.302   4.109   1.201  0.3541  0.0128 -0.1826
 4972TIP3    H136551   4.364   4.165   1.248  0.4185  0.6667 -1.0301
 4972TIP3    H236552   4.216   4.140   1.230  0.3766 -1.3147  1.4893
 4973TIP3   OH236553   1.399   3.472   7.504  0.0930 -0.0058  0.1313
 4973TIP3    H136554   1.349   3.415   7.446  0.3114  1.0900 -1.2025
 4973TIP3    H236555   1.399   3.557   7.459  2.8212  0.1399  0.2338
 4974TIP3   OH236556   1.196   0.843   8.167 -0.0122 -1.0062  0.1701
 4974TIP3    H136557   1.121   0.882   8.211  0.0946 -0.5335 -0.0617
 4974TIP3    H236558   1.223   0.771   8.225  0.4515 -0.0661  1.1437
 4975TIP3   OH236559   2.722   3.253   7.868  0.3345 -0.3107 -0.1306
 4975TIP3    H136560   2.649   3.232   7.809  0.4562 -2.0914  0.3022
 4975TIP3    H236561   2.694   3.333   7.913 -0.2758  0.4057 -1.7127
 4976TIP3   OH236562   4.346   3.220   7.918  0.0712 -0.4502  0.0026
 4976TIP3    H136563   4.399   3.184   7.989  1.5247  0.2144 -0.6984
 4976TIP3    H236564   4.315   3.304   7.951  1.6122  0.3479 -0.4669
 4977TIP3   OH236565   6.712   2.692   0.856 -0.0775 -0.2705  0.8077
 4977TIP3    H136566   6.652   2.639   0.908  0.2316 -0.3579  1.0720
 4977TIP3    H236567   6.659   2.720   0.781  0.2590 -2.4768 -0.3218
 4978TIP3   OH236568   0.504   2.552   7.467  0.2176  0.6463  0.2771
 4978TIP3    H136569   0.550   2.561   7.383  1.7309 -2.1775  0.6893
 4978TIP3    H236570   0.573   2.560   7.533  0.0322 -2.2567  0.9598
 4979TIP3   OH236571   5.508   0.675   7.387 -0.3437  0.2803 -0.3559
 4979TIP3    H136572   5.531   0.649   7.477  1.4204  0.3862 -0.7330
 4979TIP3    H236573   5.427   0.725   7.396  1.7783  3.7915  1.7768
 4980TIP3   OH236574   5.451   0.928   9.110  0.0019 -0.0481  0.0034
 4980TIP3    H136575   5.444   0.857   9.046 -1.9329 -0.1902  0.3185
 4980TIP3    H236576   5.544   0.931   9.132  0.2305 -2.1301 -0.4274
 4981TIP3   OH236577   0.858   3.480   7.351 -0.0964  0.4376  0.0734
 4981TIP3    H136578   0.947   3.513   7.342  0.5503 -1.3295 -0.2831
 4981TIP3    H236579   0.866   3.406   7.411 -0.3680 -3.0658 -3.7972
 4982TIP3   OH236580   4.349   3.135   6.461  0.0726  0.1154  0.2132
 4982TIP3    H136581   4.262   3.110   6.432  0.7599  1.6168 -3.7967
 4982TIP3    H236582   4.398   3.052   6.463 -1.1295 -0.5958  1.4387
 4983TIP3   OH236583   1.533   4.366   0.495 -0.8008 -0.0867  0.1896
 4983TIP3    H136584   1.549   4.375   0.589  0.3458  1.3559 -0.1064
 4983TIP3    H236585   1.444   4.399   0.483 -0.6905  0.4097  0.6715
 4984TIP3   OH236586   5.052   3.852   8.430 -0.5345  0.2913 -0.3489
 4984TIP3    H136587   5.023   3.915   8.364 -2.1530 -0.5602 -0.5027
 4984TIP3    H236588   4.973   3.828   8.477  0.1412 -1.2184  0.0724
 4985TIP3   OH236589   2.050   6.126   1.358  0.0664 -0.0103  0.2233
 4985TIP3    H136590   2.114   6.187   1.321  1.1614 -0.2799  1.5619
 4985TIP3    H236591   2.036   6.061   1.290 -0.3988  1.1885 -0.8714
 4986TIP3   OH236592   1.756   2.708   6.574  0.1774  0.1201 -0.0554
 4986TIP3    H136593   1.816   2.646   6.616  1.9690  1.5594 -0.3714
 4986TIP3    H236594   1.669   2.672   6.591  1.0937 -1.8730  0.7154
 4987TIP3   OH236595   5.776   0.738   1.120  0.0184  0.0717  0.0390
 4987TIP3    H136596   5.693   0.745   1.074 -0.0850  0.6742  0.3084
 4987TIP3    H236597   5.822   0.666   1.077 -1.1971 -1.1757  0.7732
 4988TIP3   OH236598   5.850   2.454   0.211 -0.1382  0.2614 -0.5128
 4988TIP3    H136599   5.900   2.373   0.222 -1.3537 -0.7726 -2.1676
 4988TIP3    H236600   5.797   2.460   0.290  1.1339  0.3601  0.3740
 4989TIP3   OH236601   3.871   4.125   7.909  0.1425  0.5923  0.2333
 4989TIP3    H136602   3.918   4.163   7.835 -1.4922  0.2534 -1.0163
 4989TIP3    H236603   3.940   4.101   7.971  1.4646  1.9375 -0.6623
 4990TIP3   OH236604   4.061   0.822   7.713 -0.6033  0.3483  0.1163
 4990TIP3    H136605   4.098   0.910   7.720 -0.1791  0.1869 -0.0584
 4990TIP3    H236606   4.128   0.772   7.666 -0.2410 -0.4200  1.4223
 4991TIP3   OH236607   0.361   0.755   8.534 -0.2617 -0.0858  0.7303
 4991TIP3    H136608   0.396   0.808   8.462 -0.7246 -1.3132 -0.4315
 4991TIP3    H236609   0.367   0.813   8.611 -2.0549  2.1915 -0.6990
 4992TIP3   OH236610   4.418   1.864   1.266 -0.6046 -0.6521 -0.1514
 4992TIP3    H136611   4.405   1.920   1.190  1.1149  1.2789  0.8778
 4992TIP3    H236612   4.330   1.849   1.301 -1.1414  1.1896 -0.6353
 4993TIP3   OH236613   5.300   1.988   1.498 -0.0901 -0.2149  0.1287
 4993TIP3    H136614   5.308   1.994   1.594  0.9328 -0.5903  0.0693
 4993TIP3    H236615   5.379   2.029   1.465  1.0098 -2.6850 -0.4999
 4994TIP3   OH236616   0.364   1.499   9.059 -0.1540 -0.5623 -0.4527
 4994TIP3    H136617   0.342   1.570   8.999 -1.4129  1.0263  1.7440
 4994TIP3    H236618   0.400   1.543   9.136 -0.0103 -2.3916  0.5811
 4995TIP3   OH236619   1.520   0.531   7.154 -0.2051  0.2286  0.1866
 4995TIP3    H136620   1.543   0.617   7.117  0.3635  0.1862  0.4327
 4995TIP3    H236621   1.595   0.508   7.209 -0.2732 -0.5159 -0.0264
 4996TIP3   OH236622   2.649   1.156   0.648  0.5425  0.5705  0.8972
 4996TIP3    H136623   2.732   1.187   0.684  1.2550  2.0283 -1.7716
 4996TIP3    H236624   2.660   1.061   0.643  1.6420  0.6432  1.5042
 4997TIP3   OH236625   5.296   1.789   7.662 -0.1784  0.5369 -0.5508
 4997TIP3    H136626   5.321   1.877   7.635 -1.8274  1.7221  1.4065
 4997TIP3    H236627   5.378   1.746   7.684  0.6413  1.7114 -1.2017
 4998TIP3   OH236628   1.988   3.332   1.274 -0.1244  0.4472 -0.3663
 4998TIP3    H136629   2.070   3.363   1.236  0.5818  1.0512  1.5434
 4998TIP3    H236630   1.977   3.383   1.354 -1.0652 -1.3727  0.7388
 4999TIP3   OH236631   1.861   5.754   0.253 -0.1586 -0.1863  0.0534
 4999TIP3    H136632   1.817   5.721   0.174  0.6503  0.0706 -0.5135
 4999TIP3    H236633   1.948   5.779   0.223  0.9954 -2.2126  1.4618
 5000TIP3   OH236634   0.029   2.399   0.118  0.8161  0.3962 -0.1214
 5000TIP3    H136635   0.051   2.329   0.057 -3.5399 -0.0584 -1.5556
 5000TIP3    H236636   0.016   2.476   0.063 -0.0247  0.8131  0.6335
 5001TIP3   OH236637   1.978   4.924   2.050  0.7357 -0.4726 -0.5873
 5001TIP3    H136638   2.001   4.846   1.999 -0.1566 -1.3017  0.2329
 5001TIP3    H236639   2.040   4.923   2.124  0.0375 -1.0260  0.0042
 5002TIP3   OH236640   5.914   3.449   8.797  0.0835 -0.5205 -0.4855
 5002TIP3    H136641   5.886   3.395   8.723  0.9700 -0.1307 -1.1188
 5002TIP3    H236642   5.980   3.396   8.841  3.7307  1.2854 -3.1904
 5003TIP3   OH236643   6.401   4.287   8.280 -0.1217  0.1044 -0.3703
 5003TIP3    H136644   6.485   4.276   8.236 -0.0204 -0.4702 -0.0382
 5003TIP3    H236645   6.345   4.218   8.244  0.2262 -0.9531  1.0304
 5004TIP3   OH236646   2.562   2.628   8.724  0.3790  0.2542  0.0388
 5004TIP3    H136647   2.625   2.698   8.710 -0.6411  1.6191  1.9335
 5004TIP3    H236648   2.611   2.548   8.704  1.6735  1.4254 -1.8145
 5005TIP3   OH236649   2.071   2.352   0.139 -0.2955 -0.0887 -0.1137
 5005TIP3    H136650   2.000   2.415   0.134 -1.6378 -1.3696  1.6329
 5005TIP3    H236651   2.134   2.382   0.073 -2.4414  1.0644 -1.7963
 5006TIP3   OH236652   4.190   3.990   7.619 -0.1691  0.0011  0.1142
 5006TIP3    H136653   4.139   3.967   7.541  0.2513  1.0029 -0.4803
 5006TIP3    H236654   4.136   3.962   7.692 -1.5623  0.9735 -0.4968
 5007TIP3   OH236655   3.715   3.973   8.852  0.1539 -0.0794 -0.1019
 5007TIP3    H136656   3.639   3.938   8.805  0.2284 -0.7980  0.3102
 5007TIP3    H236657   3.789   3.922   8.819  0.3093 -0.1057  0.2914
 5008TIP3   OH236658   3.140   0.654   8.896 -0.5851 -0.0801 -0.1424
 5008TIP3    H136659   3.192   0.696   8.827 -1.1031  4.2173  1.7766
 5008TIP3    H236660   3.049   0.661   8.865 -0.5632 -2.9066 -1.1701
 5009TIP3   OH236661   2.026   6.051   8.179 -0.0738  0.1867  0.5302
 5009TIP3    H136662   1.947   6.061   8.233 -1.2127  0.7334 -1.1547
 5009TIP3    H236663   2.025   5.959   8.153 -0.5015  0.3334  0.0177
 5010TIP3   OH236664   3.677   3.990   7.785 -0.2504  0.0175 -0.0407
 5010TIP3    H136665   3.751   4.042   7.818 -0.9594  1.8863 -1.2549
 5010TIP3    H236666   3.718   3.918   7.739  0.7955  0.1738  0.5923
 5011TIP3   OH236667   3.367   0.298   0.851 -0.2830 -0.0933 -0.2099
 5011TIP3    H136668   3.369   0.283   0.756  0.0629  1.1408 -0.4122
 5011TIP3    H236669   3.374   0.393   0.860  0.3910 -0.2546  1.0851
 5012TIP3   OH236670   4.577   2.408   6.197 -0.3526 -0.7400  0.3036
 5012TIP3    H136671   4.547   2.499   6.192  0.2111 -0.5294  0.6617
 5012TIP3    H236672   4.592   2.393   6.290 -0.4613 -1.2116  0.2499
 5013TIP3   OH236673   1.745   3.259   7.935  0.2158  0.2299 -0.2937
 5013TIP3    H136674   1.763   3.234   7.844  1.1121 -0.7457  0.1313
 5013TIP3    H236675   1.815   3.320   7.958  2.1207 -2.1517  0.7730
 5014TIP3   OH236676   2.384   5.798   0.052 -0.6939  0.2308 -0.1985
 5014TIP3    H136677   2.451   5.730   0.060 -2.2155 -1.1525  1.7068
 5014TIP3    H236678   2.315   5.758  -0.001 -1.1949  0.6368  0.1363
 5015TIP3   OH236679   2.206   1.227   1.125 -0.1317  0.3165 -0.1829
 5015TIP3    H136680   2.167   1.220   1.038 -0.1305  0.0855 -0.1635
 5015TIP3    H236681   2.226   1.137   1.150 -0.6751  0.3199  0.2972
 5016TIP3   OH236682   0.495   3.888   1.084 -0.1888  0.0205 -0.0575
 5016TIP3    H136683   0.468   3.944   1.157  1.9415 -0.6340  1.3346
 5016TIP3    H236684   0.532   3.810   1.126  0.0713 -0.8895 -1.8833
 5017TIP3   OH236685   3.452   2.263   1.267  0.2141  0.2293  0.5804
 5017TIP3    H136686   3.515   2.194   1.246 -0.6503 -0.5460  0.4752
 5017TIP3    H236687   3.393   2.265   1.192 -0.5765  0.1308  1.1839
 5018TIP3   OH236688   1.894   0.617   8.057 -0.4106  0.0483 -0.2119
 5018TIP3    H136689   1.979   0.651   8.030 -0.6880  0.5141 -0.5158
 5018TIP3    H236690   1.848   0.601   7.975 -0.2244 -1.2434 -0.0812
 5019TIP3   OH236691   4.148   5.738   7.970  0.2638 -0.1492  0.2510
 5019TIP3    H136692   4.140   5.819   8.021 -1.4577 -0.1012 -0.0422
 5019TIP3    H236693   4.140   5.668   8.035  1.9671 -0.1272  0.5360
 5020TIP3   OH236694   4.571   0.844   1.088 -0.2470 -0.1802  0.2454
 5020TIP3    H136695   4.630   0.831   1.014  0.9806 -1.3743  1.3742
 5020TIP3    H236696   4.627   0.831   1.165 -1.2981  1.8198  1.4132
 5021TIP3   OH236697   4.903   4.913   8.726 -0.1781 -0.0163 -0.3057
 5021TIP3    H136698   4.899   4.833   8.779 -0.5444 -0.2909 -0.7416
 5021TIP3    H236699   4.856   4.978   8.778  1.7027  0.4530  0.9369
 5022TIP3   OH236700   4.898   4.286   6.577  0.5362  0.4382 -0.7322
 5022TIP3    H136701   4.874   4.356   6.638  0.8069  1.6380 -1.9677
 5022TIP3    H236702   4.818   4.269   6.527  0.7190  0.5315 -1.0603
 5023TIP3   OH236703   0.162   2.910   6.783 -0.0208 -0.0770 -0.0725
 5023TIP3    H136704   0.192   2.942   6.868  0.3835 -2.2786  0.6803
 5023TIP3    H236705   0.232   2.853   6.752 -1.0271 -0.9283 -0.8964
 5024TIP3   OH236706   3.384   4.280   8.231 -0.2727 -0.1796 -0.2796
 5024TIP3    H136707   3.415   4.359   8.276 -0.8980 -0.8247  1.3563
 5024TIP3    H236708   3.454   4.216   8.244 -0.3818 -0.3230 -0.3984
 5025TIP3   OH236709   6.164   2.708   9.064 -0.1254 -0.3908 -0.7774
 5025TIP3    H136710   6.143   2.620   9.034  2.0944 -0.2250 -3.1975
 5025TIP3    H236711   6.122   2.766   9.001  0.5871  0.1898 -0.7340
 5026TIP3   OH236712   5.595   0.366   0.648  0.7664 -0.2983  0.7750
 5026TIP3    H136713   5.642   0.353   0.566 -0.9836  0.4367 -0.3958
 5026TIP3    H236714   5.642   0.437   0.692  0.7316  0.4934 -0.4192
 5027TIP3   OH236715   2.252   3.840   0.218  0.5883  0.0730 -0.2952
 5027TIP3    H136716   2.286   3.780   0.151 -0.5693  0.6612 -1.4606
 5027TIP3    H236717   2.166   3.804   0.241  1.4971 -0.8713  1.9114
 5028TIP3   OH236718   2.690   0.771   1.598 -0.1702  0.3881 -0.1006
 5028TIP3    H136719   2.717   0.863   1.593  0.4544  0.1512 -1.5796
 5028TIP3    H236720   2.750   0.732   1.662 -1.7656  1.4047  2.1525
 5029TIP3   OH236721   1.245   2.841   1.764  0.3326 -0.2795  0.2671
 5029TIP3    H136722   1.250   2.849   1.669 -1.5185  0.5726  0.1971
 5029TIP3    H236723   1.336   2.830   1.792  1.0167  0.4587 -1.5061
 5030TIP3   OH236724   2.309   1.175   8.603 -0.4214 -0.2434  0.4325
 5030TIP3    H136725   2.228   1.136   8.636 -1.3775  0.0443 -1.4381
 5030TIP3    H236726   2.324   1.250   8.660 -2.8097  1.0898 -0.5440
 5031TIP3   OH236727   3.706   1.968   6.592  0.2600 -0.0143 -0.4326
 5031TIP3    H136728   3.793   2.007   6.582  0.3266 -0.0187  0.1306
 5031TIP3    H236729   3.723   1.882   6.629 -0.0008  0.0524 -0.1596
 5032TIP3   OH236730   0.087   6.217   7.205  0.2322 -0.0309  0.0779
 5032TIP3    H136731   0.026   6.206   7.278 -0.6515 -0.0161 -0.6408
 5032TIP3    H236732   0.167   6.174   7.234  0.6796  1.9075  1.9751
 5033TIP3   OH236733   2.905   3.653   1.382 -0.3656  0.4034 -0.7207
 5033TIP3    H136734   2.947   3.597   1.317  0.5912  1.4636 -1.0537
 5033TIP3    H236735   2.823   3.680   1.342  0.2589  1.1225 -1.5547
 5034TIP3   OH236736   6.172   1.767   8.005 -0.0209 -0.0979 -0.1476
 5034TIP3    H136737   6.163   1.782   7.911  0.0439 -0.3442 -0.1944
 5034TIP3    H236738   6.211   1.680   8.012  0.7217  0.2462  0.0950
 5035TIP3   OH236739   3.297   5.827   7.385  0.0922 -0.3210  0.6310
 5035TIP3    H136740   3.334   5.755   7.436  0.4431  0.8466  2.0851
 5035TIP3    H236741   3.373   5.866   7.340  0.2014  0.2236  1.2625
 5036TIP3   OH236742   1.177   0.885   0.546  0.1515 -0.1524  0.0900
 5036TIP3    H136743   1.212   0.796   0.552 -0.4762 -0.2993  2.3467
 5036TIP3    H236744   1.253   0.941   0.563  0.0766 -0.3576  1.1821
 5037TIP3   OH236745   2.091   5.273   2.118 -0.0569  0.1843 -0.0338
 5037TIP3    H136746   2.112   5.349   2.172 -0.8253 -0.1725  0.7933
 5037TIP3    H236747   2.112   5.198   2.172 -1.0322 -0.1817 -0.1404
 5038TIP3   OH236748   3.388   2.732   7.310  0.6982  0.2971 -0.4909
 5038TIP3    H136749   3.350   2.784   7.381 -2.1642  0.3335 -1.8931
 5038TIP3    H236750   3.482   2.743   7.320  0.4450  0.2550  3.2793
 5039TIP3   OH236751   5.935   4.622   1.652 -0.2818  0.0236 -0.0978
 5039TIP3    H136752   5.849   4.656   1.626 -0.4532  0.8877  1.4607
 5039TIP3    H236753   5.914   4.547   1.708  0.0557 -1.0330 -1.3283
 5040TIP3   OH236754   4.130   5.250   1.736  0.3118  0.1954  0.1323
 5040TIP3    H136755   4.071   5.272   1.808  1.6788 -0.0674  1.3832
 5040TIP3    H236756   4.184   5.178   1.770  1.5176  0.5934 -0.8664
 5041TIP3   OH236757   5.049   0.710   9.037 -0.4155  0.2563 -0.3373
 5041TIP3    H136758   5.041   0.690   8.944 -3.8539 -0.4316 -0.0015
 5041TIP3    H236759   5.070   0.803   9.040 -1.6409  0.6250 -1.8260
 5042TIP3   OH236760   5.460   3.161   0.290 -0.0914  0.1396 -0.0170
 5042TIP3    H136761   5.433   3.186   0.202 -1.0061 -0.3055  0.1234
 5042TIP3    H236762   5.394   3.201   0.348 -1.2961 -2.0488  0.2419
 5043TIP3   OH236763   2.255   6.187   8.277  0.0239  0.3036 -0.5021
 5043TIP3    H136764   2.187   6.126   8.248 -0.8656  0.7349  0.5848
 5043TIP3    H236765   2.223   6.221   8.361  1.1500  1.2239 -0.4109
 5044TIP3   OH236766   1.863   6.226   7.495 -1.0038  0.2940 -0.0318
 5044TIP3    H136767   1.854   6.218   7.400 -1.2084 -0.2470  0.0332
 5044TIP3    H236768   1.869   6.136   7.527  0.1020  0.4865  0.3714
 5045TIP3   OH236769   0.842   5.647   1.404 -0.1234  0.3232 -0.3025
 5045TIP3    H136770   0.884   5.723   1.363 -0.0887  0.1912 -0.5129
 5045TIP3    H236771   0.882   5.642   1.491  2.0134 -1.1607 -1.2801
 5046TIP3   OH236772   6.221   2.460   8.050  0.4942  0.0567 -0.0725
 5046TIP3    H136773   6.170   2.410   7.986  0.4382 -2.8879  2.0376
 5046TIP3    H236774   6.287   2.506   7.998  0.0694 -1.6767 -2.3183
 5047TIP3   OH236775   1.277   0.986   0.225  0.0799  0.7231  0.6373
 5047TIP3    H136776   1.360   0.979   0.176  0.3660  0.4001  1.1576
 5047TIP3    H236777   1.288   1.064   0.278 -0.0140  0.7705  0.5861
 5048TIP3   OH236778   3.767   3.448   6.365  1.0145  0.0323 -0.1655
 5048TIP3    H136779   3.826   3.523   6.357  0.6405  0.4145  0.5346
 5048TIP3    H236780   3.808   3.393   6.432  0.6244  0.2673  0.2753
 5049TIP3   OH236781   5.990   4.835   8.445 -0.0294  0.0480 -0.7602
 5049TIP3    H136782   6.058   4.884   8.490  0.1018  0.5315 -1.4790
 5049TIP3    H236783   5.986   4.751   8.492  0.0650  0.5544  0.1765
 5050TIP3   OH236784   1.219   0.494   8.069  0.2571 -0.1721  0.2821
 5050TIP3    H136785   1.260   0.476   8.153  1.3542 -2.1919 -0.6138
 5050TIP3    H236786   1.218   0.410   8.024 -1.4131  0.6064 -1.2773
 5051TIP3   OH236787   4.642   4.334   1.583 -0.2786  0.5669  0.0035
 5051TIP3    H136788   4.660   4.269   1.651 -1.3985 -0.1826 -0.3865
 5051TIP3    H236789   4.620   4.282   1.506  1.8364  1.3797 -1.2390
 5052TIP3   OH236790   5.852   3.576   8.536  0.2424 -0.4727  0.1632
 5052TIP3    H136791   5.936   3.530   8.532 -0.8031 -2.3985 -0.3860
 5052TIP3    H236792   5.876   3.669   8.530  2.2272 -1.0277 -2.2171
 5053TIP3   OH236793   4.891   4.149   0.074 -0.5224  0.3319 -0.2607
 5053TIP3    H136794   4.889   4.080   0.140 -0.2125  0.8973  0.3450
 5053TIP3    H236795   4.962   4.208   0.102  0.4893 -0.0947 -1.7751
 5054TIP3   OH236796   4.489   0.624   7.031  0.6231 -0.0600  0.1646
 5054TIP3    H136797   4.561   0.618   6.968  1.0977  1.7791  0.4642
 5054TIP3    H236798   4.521   0.685   7.098 -1.6004  1.6863 -0.2660
 5055TIP3   OH236799   1.076   2.879   8.037  0.3936  0.2263 -0.0643
 5055TIP3    H136800   1.127   2.959   8.024  0.7301 -0.0670 -0.5609
 5055TIP3    H236801   1.025   2.871   7.956  2.1516 -1.3627 -1.0911
 5056TIP3   OH236802   2.430   4.669   1.181 -0.2024 -0.3111  0.1329
 5056TIP3    H136803   2.511   4.625   1.157 -1.1227 -2.8018  1.2967
 5056TIP3    H236804   2.373   4.658   1.106 -0.2164 -0.5360  0.1772
 5057TIP3   OH236805   4.605   4.590   0.275 -0.1582  0.0111  0.2267
 5057TIP3    H136806   4.618   4.621   0.185  1.8070 -2.5943 -0.5104
 5057TIP3    H236807   4.515   4.558   0.275  0.2205 -1.2012 -1.2993
 5058TIP3   OH236808   5.660   6.305   1.989  0.3977 -0.3379  0.2652
 5058TIP3    H136809   5.649   6.312   2.084 -2.9192 -0.3944  0.0112
 5058TIP3    H236810   5.669   6.211   1.973 -0.2172 -0.4428  0.4800
 5059TIP3   OH236811   3.035   0.391   7.062 -0.2037  0.3905 -0.3346
 5059TIP3    H136812   3.099   0.343   7.010  0.1139  2.0702 -1.5748
 5059TIP3    H236813   3.013   0.331   7.134  1.5922 -0.8256 -0.7228
 5060TIP3   OH236814   4.531   2.527   8.409 -0.5480 -0.0630  0.1727
 5060TIP3    H136815   4.519   2.597   8.344 -0.0382 -0.0712  0.0602
 5060TIP3    H236816   4.625   2.530   8.429 -0.3414 -1.3009 -0.4992
 5061TIP3   OH236817   3.931   4.192   7.638  0.0004  0.4043  0.2931
 5061TIP3    H136818   3.899   4.170   7.551 -0.7571 -0.2727  0.7289
 5061TIP3    H236819   3.942   4.287   7.636 -0.5816  0.4633 -0.3518
 5062TIP3   OH236820   3.642   1.737   8.213 -0.1214 -0.4816 -0.4172
 5062TIP3    H136821   3.584   1.811   8.194  0.1119 -0.1943 -0.0393
 5062TIP3    H236822   3.670   1.752   8.304  0.3461 -0.7463 -0.5152
 5063TIP3   OH236823   1.733   2.191   7.451  0.1403 -0.7999  0.3430
 5063TIP3    H136824   1.721   2.129   7.378 -1.4192  1.1735 -1.1785
 5063TIP3    H236825   1.812   2.240   7.427 -0.8923  0.4883 -0.5973
 5064TIP3   OH236826   3.200   0.921   2.057  0.2957 -0.3169  0.3633
 5064TIP3    H136827   3.172   1.012   2.058  0.7834 -0.1559 -0.3432
 5064TIP3    H236828   3.207   0.899   1.964 -0.0841 -1.1550  0.5248
 5065TIP3   OH236829   0.944   1.970   8.270 -0.0683  0.0675 -0.1979
 5065TIP3    H136830   0.910   2.027   8.339 -1.5281  1.7378 -2.1434
 5065TIP3    H236831   0.890   1.891   8.275 -2.9561  1.7588 -1.7780
 5066TIP3   OH236832   0.681   4.494   0.120  0.3244 -0.0255 -0.7828
 5066TIP3    H136833   0.726   4.431   0.064 -0.1260  0.6546 -1.9516
 5066TIP3    H236834   0.615   4.442   0.165  0.1729 -0.4653 -1.4895
 5067TIP3   OH236835   0.127   1.055   8.449 -0.4883 -0.0693 -0.5853
 5067TIP3    H136836   0.179   1.071   8.371  0.2545 -0.4513 -0.1779
 5067TIP3    H236837   0.180   1.088   8.521 -1.5894  1.1913 -0.3130
 5068TIP3   OH236838   5.004   5.588   7.946 -0.5185  0.3628  0.0810
 5068TIP3    H136839   4.958   5.577   8.029 -1.2794  1.7075 -0.1286
 5068TIP3    H236840   4.948   5.647   7.895  0.6029  0.6657 -0.8485
 5069TIP3   OH236841   5.979   6.097   8.977 -0.4859  0.5592 -0.2086
 5069TIP3    H136842   5.956   6.005   8.986 -1.6634  0.3685 -3.7074
 5069TIP3    H236843   5.916   6.143   9.032 -1.4431 -0.6078 -0.2856
 5070TIP3   OH236844   4.893   6.662   0.959  0.0467  0.0651 -0.0389
 5070TIP3    H136845   4.902   6.722   1.033  0.3869  1.0323 -0.8367
 5070TIP3    H236846   4.968   6.604   0.966 -0.3159 -0.3189  0.7779
 5071TIP3   OH236847   1.433   1.185   0.866  0.2884 -0.4147  0.0107
 5071TIP3    H136848   1.432   1.234   0.785 -0.4500  2.0966  1.4365
 5071TIP3    H236849   1.341   1.162   0.882  0.5221 -1.5998 -0.2145
 5072TIP3   OH236850   0.479   3.269   7.138  0.0753  0.0405  0.6031
 5072TIP3    H136851   0.573   3.288   7.146  0.3648 -1.8174  2.7669
 5072TIP3    H236852   0.472   3.210   7.063  0.3463  1.5516 -0.6562
 5073TIP3   OH236853   0.091   3.435   0.650 -0.4314  0.5689 -0.4776
 5073TIP3    H136854   0.183   3.409   0.648 -0.9421 -1.3747 -0.2584
 5073TIP3    H236855   0.084   3.493   0.726  1.0701  2.8394 -1.9376
 5074TIP3   OH236856   6.294   0.458   8.607  0.2488  0.1011 -0.3109
 5074TIP3    H136857   6.228   0.419   8.550 -1.5216  0.7966  1.1577
 5074TIP3    H236858   6.320   0.388   8.667  1.4504 -0.3753 -1.3276
 5075TIP3   OH236859   4.633   5.654   0.221  0.2487  0.1117 -0.2856
 5075TIP3    H136860   4.545   5.663   0.183 -0.7711  1.3802  2.1559
 5075TIP3    H236861   4.619   5.600   0.299  0.7730  3.4642  2.3784
 5076TIP3   OH236862   5.748   3.148   7.832  0.4250 -0.8666 -0.0864
 5076TIP3    H136863   5.728   3.232   7.872  2.8424 -0.4160  0.3478
 5076TIP3    H236864   5.750   3.166   7.738  0.3816 -0.5632 -0.0306
 5077TIP3   OH236865   5.880   4.973   8.250  0.3035 -0.6049 -0.0557
 5077TIP3    H136866   5.934   4.941   8.322  1.2119 -0.1444 -0.5069
 5077TIP3    H236867   5.791   4.944   8.271  0.2352  0.9518  2.1134
 5078TIP3   OH236868   2.958   6.107   1.432  0.2830  0.3384  0.5339
 5078TIP3    H136869   2.924   6.160   1.505  0.2128  1.3740 -0.2257
 5078TIP3    H236870   2.880   6.072   1.390  0.3286 -0.3573  1.0196
 5079TIP3   OH236871   3.454   3.631   2.028 -0.0248  0.3068 -0.7253
 5079TIP3    H136872   3.361   3.644   2.044 -0.1774  0.5116 -1.7305
 5079TIP3    H236873   3.496   3.711   2.060 -0.4172  1.1013 -2.1387
 5080TIP3   OH236874   3.541   0.014   9.108 -0.5218  0.7288  0.9002
 5080TIP3    H136875   3.486  -0.065   9.104 -0.0150  0.4398 -1.1589
 5080TIP3    H236876   3.491   0.080   9.061  0.6608  0.5867 -0.6117
 5081TIP3   OH236877   2.487   4.933   7.280  0.8175  0.1472 -0.6034
 5081TIP3    H136878   2.515   5.024   7.292  1.0782 -0.1699  1.4907
 5081TIP3    H236879   2.558   4.882   7.318  1.0550 -1.0002 -2.4899
 5082TIP3   OH236880   1.763   1.823   8.460  0.3983  0.0533 -0.3260
 5082TIP3    H136881   1.769   1.749   8.400 -2.0819 -0.2576 -0.2842
 5082TIP3    H236882   1.766   1.900   8.403 -2.6592 -0.2504 -1.0367
 5083TIP3   OH236883   4.773   2.075   8.681  0.0365  0.2765 -0.0224
 5083TIP3    H136884   4.865   2.103   8.687  0.4087 -1.1332  1.4023
 5083TIP3    H236885   4.727   2.132   8.744  0.1003  0.3644 -0.0553
 5084TIP3   OH236886   2.955   0.759   0.165  0.0672 -0.5282 -0.2696
 5084TIP3    H136887   2.966   0.683   0.108 -0.0884 -0.5820 -0.2291
 5084TIP3    H236888   2.897   0.728   0.235 -2.2633  0.3864 -1.6935
 5085TIP3   OH236889   2.102   5.355   2.435 -0.2167 -0.4364  0.2053
 5085TIP3    H136890   2.118   5.407   2.357 -2.3177 -1.7701 -1.2062
 5085TIP3    H236891   2.185   5.311   2.452  0.3719  0.1478 -1.0639
 5086TIP3   OH236892   0.099   5.063   2.520 -0.0893 -0.1183  0.1984
 5086TIP3    H136893   0.126   4.977   2.488  2.6842  0.5950  0.3717
 5086TIP3    H236894   0.028   5.045   2.581 -0.2191 -2.1740 -0.4823
 5087TIP3   OH236895   3.954   6.530   0.876 -0.1711  0.0962 -0.1721
 5087TIP3    H136896   3.971   6.539   0.782 -0.4749 -1.3415 -0.3882
 5087TIP3    H236897   4.009   6.456   0.903 -1.7858 -0.9778  0.2863
 5088TIP3   OH236898   5.986   4.365   8.214  0.4608 -0.2595  0.1611
 5088TIP3    H136899   5.917   4.426   8.192 -0.6906 -1.7082 -0.4319
 5088TIP3    H236900   6.011   4.387   8.304 -2.4267 -1.1445  1.2931
 5089TIP3   OH236901   3.845   4.510   2.074 -0.4559  0.9238  0.5131
 5089TIP3    H136902   3.756   4.482   2.096 -1.4911 -0.5036 -4.2637
 5089TIP3    H236903   3.872   4.564   2.148 -5.7061  2.4383  1.7706
 5090TIP3   OH236904   4.196   1.910   7.246  0.6194  0.4030  0.6593
 5090TIP3    H136905   4.235   1.851   7.181  1.3459  1.5929 -0.0047
 5090TIP3    H236906   4.255   1.904   7.321  1.2500  1.0412  0.2205
 5091TIP3   OH236907   1.589   2.480   8.603 -0.0832  0.0152  0.3474
 5091TIP3    H136908   1.570   2.482   8.509 -0.6041  0.9157  0.4675
 5091TIP3    H236909   1.677   2.442   8.608 -0.4904 -1.1070 -0.4177
 5092TIP3   OH236910   2.141   5.587   0.257 -0.2627 -0.4317  0.2899
 5092TIP3    H136911   2.217   5.528   0.254 -1.2764 -1.7579 -0.5345
 5092TIP3    H236912   2.070   5.533   0.292 -0.5653  1.1378  2.2693
 5093TIP3   OH236913   6.258   1.289   7.327 -0.0051  0.3791  0.2105
 5093TIP3    H136914   6.320   1.319   7.394  0.7974 -1.5117  0.3593
 5093TIP3    H236915   6.313   1.272   7.250 -0.4204 -0.7505  0.1545
 5094TIP3   OH236916   0.509   4.929   0.955  0.5462  0.6797 -0.1831
 5094TIP3    H136917   0.523   4.920   0.861  0.8105  0.1257 -0.0964
 5094TIP3    H236918   0.583   4.884   0.995 -0.6544 -1.0258  0.2709
 5095TIP3   OH236919   5.445   6.042   8.164 -0.2900 -0.2707 -0.5684
 5095TIP3    H136920   5.360   6.002   8.148 -0.2447 -0.6599  0.1343
 5095TIP3    H236921   5.432   6.135   8.145 -1.8421  0.3438  2.7968
 5096TIP3   OH236922   6.415   3.545   7.304 -0.8955  0.6846  0.1597
 5096TIP3    H136923   6.356   3.546   7.229 -0.0030  0.0827 -0.5723
 5096TIP3    H236924   6.446   3.455   7.310  2.5183  1.5950 -1.5916
 5097TIP3   OH236925   3.315   1.955   8.197 -0.2246 -0.2434  0.0425
 5097TIP3    H136926   3.287   1.869   8.166 -0.1056  0.3086 -1.7439
 5097TIP3    H236927   3.400   1.969   8.156 -0.3126  0.7805  0.1798
 5098TIP3   OH236928   5.539   1.617   7.962  0.0701 -0.1675 -0.2984
 5098TIP3    H136929   5.574   1.530   7.980  0.8282  0.2505  0.2829
 5098TIP3    H236930   5.572   1.672   8.033  1.0308  0.9735 -1.5735
 5099TIP3   OH236931   1.512   4.699   1.613  0.6026  0.7402 -0.1952
 5099TIP3    H136932   1.533   4.731   1.701 -1.0480  1.1346  0.0894
 5099TIP3    H236933   1.596   4.700   1.567  1.6798 -0.3320  1.6240
 5100TIP3   OH236934   2.477   2.681   2.100 -1.0301 -0.1504  0.4116
 5100TIP3    H136935   2.422   2.757   2.121 -0.5244  1.1323 -2.4234
 5100TIP3    H236936   2.564   2.717   2.085 -1.0677 -0.9911 -2.3682
 5101TIP3   OH236937   5.765   1.760   0.989  0.3693 -0.1784 -0.3748
 5101TIP3    H136938   5.682   1.805   0.979  0.7468  0.7360  0.5085
 5101TIP3    H236939   5.810   1.775   0.905 -1.1022 -2.3662 -1.6551
 5102TIP3   OH236940   4.662   3.494   7.909  0.7010 -0.3028 -0.3988
 5102TIP3    H136941   4.731   3.471   7.971 -2.1385 -0.2893  3.0762
 5102TIP3    H236942   4.586   3.445   7.939 -2.2909  3.8292 -0.4293
 5103TIP3   OH236943   0.596   0.126   7.870 -0.4073 -0.6565 -0.5119
 5103TIP3    H136944   0.636   0.211   7.891  0.8914 -1.2744 -0.3575
 5103TIP3    H236945   0.554   0.139   7.785 -0.5811  0.2484 -0.2995
 5104TIP3   OH236946   5.655   4.462   0.771  0.5127 -0.3476 -0.8095
 5104TIP3    H136947   5.690   4.375   0.755 -1.1432 -1.2270  0.0826
 5104TIP3    H236948   5.564   4.457   0.741 -0.5641  0.0641  2.0583
 5105TIP3   OH236949   6.479   6.663   1.599 -0.2775 -0.1892 -0.0968
 5105TIP3    H136950   6.564   6.704   1.585  0.1129 -1.0500 -0.3143
 5105TIP3    H236951   6.448   6.699   1.682 -0.1569  0.8652 -0.4881
 5106TIP3   OH236952   5.191   1.397   1.317 -0.4584  0.3247 -0.5546
 5106TIP3    H136953   5.254   1.328   1.334  1.5404  2.5873  2.4704
 5106TIP3    H236954   5.109   1.366   1.357  0.0282 -0.8203 -0.4204
 5107TIP3   OH236955   1.758   5.218   0.500 -0.0682  0.0864 -0.1098
 5107TIP3    H136956   1.823   5.159   0.538 -0.2919  0.1655  0.3885
 5107TIP3    H236957   1.692   5.160   0.461 -1.5186 -0.0476  2.3908
 5108TIP3   OH236958   5.407   3.685   2.118 -0.7062  0.7835 -0.0454
 5108TIP3    H136959   5.502   3.685   2.125 -0.4347  0.1334 -2.8393
 5108TIP3    H236960   5.380   3.772   2.150  0.8048  1.0277  0.6347
 5109TIP3   OH236961   4.213   2.369   1.526  0.3178 -0.7270 -0.1242
 5109TIP3    H136962   4.273   2.439   1.499 -1.4827  1.1761  0.6083
 5109TIP3    H236963   4.245   2.292   1.478  0.2005  1.3381 -3.9679
 5110TIP3   OH236964   2.814   2.448   7.136  0.4556 -0.3461 -0.3044
 5110TIP3    H136965   2.806   2.404   7.051 -1.0684 -1.7335  0.5172
 5110TIP3    H236966   2.878   2.395   7.184  1.7262  0.7471 -0.7364
 5111TIP3   OH236967   4.718   6.740   1.700  0.2369  0.0837 -0.0732
 5111TIP3    H136968   4.661   6.733   1.623  0.2301  0.7293 -0.1295
 5111TIP3    H236969   4.723   6.834   1.718  1.7796  0.0996 -0.4279
 5112TIP3   OH236970   4.348   0.816   8.958  0.1631 -0.4335  0.8156
 5112TIP3    H136971   4.435   0.792   8.927  0.9360  1.4177  1.4064
 5112TIP3    H236972   4.363   0.851   9.046 -1.2081 -0.2539  0.9999
 5113TIP3   OH236973   6.009   0.749   2.295 -0.2488  0.4294  0.0222
 5113TIP3    H136974   6.050   0.834   2.310 -0.7505  0.5796  0.5781
 5113TIP3    H236975   5.915   0.764   2.311 -0.0635 -0.8406  2.9990
 5114TIP3   OH236976   2.811   4.584   7.526  0.2428  0.0131  0.2109
 5114TIP3    H136977   2.785   4.514   7.585  1.5152 -1.2527 -0.6612
 5114TIP3    H236978   2.859   4.540   7.455 -0.2079  1.5881 -1.1588
 5115TIP3   OH236979   6.022   1.794   2.559 -0.2346  0.4027 -0.2273
 5115TIP3    H136980   6.041   1.701   2.543  1.5218  0.8589 -1.0616
 5115TIP3    H236981   5.946   1.813   2.504 -0.2168 -0.3947 -0.5413
 5116TIP3   OH236982   6.240   3.554   1.155 -0.3897  0.2258  0.2046
 5116TIP3    H136983   6.300   3.622   1.123  0.5084 -0.8613 -0.5014
 5116TIP3    H236984   6.172   3.549   1.088  0.0026 -0.1365 -0.1764
 5117TIP3   OH236985   2.890   1.983   7.438  0.2265 -0.4617 -0.1488
 5117TIP3    H136986   2.983   1.976   7.417  0.1870  0.5962 -0.7532
 5117TIP3    H236987   2.884   2.060   7.494 -0.1601 -1.1312  0.7491
 5118TIP3   OH236988   3.727   2.242   7.023 -0.0019 -0.2408  0.3731
 5118TIP3    H136989   3.740   2.164   7.077 -1.9791 -1.1988 -0.4086
 5118TIP3    H236990   3.692   2.208   6.941 -0.3057  1.4268 -0.2243
 5119TIP3   OH236991   5.931   3.500   0.038  0.7226 -0.2708  0.1777
 5119TIP3    H136992   5.966   3.431  -0.019  1.2066 -0.0174  0.1620
 5119TIP3    H236993   5.882   3.452   0.105 -1.5673 -0.4943 -1.5376
 5120TIP3   OH236994   4.364   1.869   9.125  0.4222 -0.0919  0.1881
 5120TIP3    H136995   4.454   1.852   9.099  0.1827  0.6596 -1.2940
 5120TIP3    H236996   4.311   1.812   9.068 -0.1255  1.6257 -1.1344
 5121TIP3   OH236997   4.508   6.454   2.154  0.2568 -0.1262  0.7093
 5121TIP3    H136998   4.568   6.467   2.227  0.9871 -1.5815  0.4005
 5121TIP3    H236999   4.564   6.450   2.077 -0.4832  1.0638  0.0754
 5122TIP3   OH237000   4.064   2.001   7.627 -0.0729  0.0034 -0.4651
 5122TIP3    H137001   4.128   2.034   7.690  1.9665 -1.1121 -1.8493
 5122TIP3    H237002   4.116   1.954   7.563 -2.4333 -2.1263 -0.9581
 5123TIP3   OH237003   2.506   4.078   7.048 -0.2291 -0.3769  0.4789
 5123TIP3    H137004   2.523   4.084   6.954 -0.5964 -2.6685  0.2261
 5123TIP3    H237005   2.549   3.997   7.075 -2.9446 -1.5493  1.6079
 5124TIP3   OH237006   3.327   5.264   8.915 -0.1864  0.0134 -0.1879
 5124TIP3    H137007   3.316   5.185   8.968  1.0227 -0.8230 -1.1611
 5124TIP3    H237008   3.419   5.286   8.923 -0.4453  1.1735 -0.1859
 5125TIP3   OH237009   1.965   1.363   7.297  0.6705 -0.0356 -0.6948
 5125TIP3    H137010   1.980   1.385   7.389  2.6105  0.5550 -1.0820
 5125TIP3    H237011   1.921   1.440   7.261 -1.5187 -0.8819  0.0101
 5126TIP3   OH237012   2.228   0.333   8.228  0.7762 -0.5869  0.3721
 5126TIP3    H137013   2.233   0.403   8.293 -0.7326 -0.4849  0.4043
 5126TIP3    H237014   2.266   0.257   8.272 -2.6296 -1.2620  2.4519
 5127TIP3   OH237015   5.036   5.687   6.950 -0.3582 -0.2308  0.0729
 5127TIP3    H137016   5.057   5.595   6.968 -1.2657 -0.2084  1.4790
 5127TIP3    H237017   5.026   5.691   6.855 -0.3184 -1.5954 -0.0196
 5128TIP3   OH237018   3.619   1.800   0.029  0.0899 -0.6939 -0.2246
 5128TIP3    H137019   3.612   1.873  -0.032 -0.5571  0.7417  1.4784
 5128TIP3    H237020   3.683   1.829   0.094 -0.8363 -1.2450  0.9718
 5129TIP3   OH237021   4.617   3.165   0.098 -0.1610 -0.3253  0.1045
 5129TIP3    H137022   4.552   3.096   0.101 -1.0135  0.2897 -1.9202
 5129TIP3    H237023   4.567   3.246   0.107  0.5076  0.1049  0.0727
 5130TIP3   OH237024   4.832   1.260   1.755  0.5346  0.0671  0.0211
 5130TIP3    H137025   4.821   1.229   1.665 -1.5125 -1.6098  0.7690
 5130TIP3    H237026   4.873   1.186   1.801 -0.2523  0.1406  0.8659
 5131TIP3   OH237027   6.435   3.762   1.207 -0.2156  0.3368  0.4544
 5131TIP3    H137028   6.501   3.832   1.205  0.5814 -0.3749  1.0513
 5131TIP3    H237029   6.352   3.807   1.190  0.4948  1.1434 -1.1469
 5132TIP3   OH237030   2.459   2.863   0.255 -0.8467  0.1129 -0.1077
 5132TIP3    H137031   2.496   2.780   0.284  1.2784  0.9585 -0.1822
 5132TIP3    H237032   2.423   2.902   0.335 -1.0554 -0.4845  0.0919
 5133TIP3   OH237033   2.477   6.254   1.682  0.2158 -0.0347 -0.1466
 5133TIP3    H137034   2.495   6.168   1.646  0.4532 -0.1598  0.2557
 5133TIP3    H237035   2.509   6.315   1.616 -0.7404 -0.2415 -0.8168
 5134TIP3   OH237036   5.133   2.482   0.197  0.0982  0.1581 -0.3349
 5134TIP3    H137037   5.212   2.534   0.181 -0.3657  0.7010 -0.9300
 5134TIP3    H237038   5.070   2.545   0.234  0.2032 -0.4463  0.9232
 5135TIP3   OH237039   4.350   1.150   7.070  0.6051  0.5052  1.0864
 5135TIP3    H137040   4.409   1.159   7.145  1.3565 -0.6709  0.6642
 5135TIP3    H237041   4.389   1.204   7.002  0.7786  0.3408  1.0537
 5136TIP3   OH237042   3.259   4.859   7.364  0.3853  0.1835  1.0667
 5136TIP3    H137043   3.279   4.768   7.340  1.2720  0.6025  0.1275
 5136TIP3    H237044   3.164   4.862   7.373  0.3578 -0.8658  1.2702
 5137TIP3   OH237045   4.836   0.679   7.337  1.0109 -0.5253  0.3602
 5137TIP3    H137046   4.746   0.703   7.316  0.3866 -1.7849  1.4491
 5137TIP3    H237047   4.878   0.669   7.251 -0.0548 -0.5383 -0.1821
 5138TIP3   OH237048   1.974   5.970   1.616  0.0519 -0.0272 -0.3995
 5138TIP3    H137049   1.884   5.937   1.616 -0.5401  1.4322 -1.8293
 5138TIP3    H237050   2.013   5.935   1.696 -1.7733 -0.7084  0.2382
 5139TIP3   OH237051   1.429   6.195   8.323  0.0639  0.4239 -0.5047
 5139TIP3    H137052   1.483   6.204   8.401 -0.5970 -1.8731  0.3148
 5139TIP3    H237053   1.358   6.258   8.334 -0.8146 -0.8467  1.5039
 5140TIP3   OH237054   1.253   1.873   7.723 -0.3961  0.3215 -0.3536
 5140TIP3    H137055   1.179   1.932   7.711  0.2191  1.0207 -0.8202
 5140TIP3    H237056   1.274   1.881   7.817 -0.9390  0.0790 -0.2098
 5141TIP3   OH237057   6.440   2.634   8.495 -0.3253 -0.0142 -0.7599
 5141TIP3    H137058   6.372   2.609   8.433 -0.1391 -0.1599 -0.9089
 5141TIP3    H237059   6.446   2.559   8.555  0.1737 -0.3014 -1.1553
 5142TIP3   OH237060   5.224   3.097   7.825 -0.1585  0.0841 -0.1384
 5142TIP3    H137061   5.143   3.049   7.845 -0.1723 -0.1325 -0.6894
 5142TIP3    H237062   5.217   3.178   7.875 -1.0531  0.3857 -0.7313
 5143TIP3   OH237063   3.902   5.687   1.025  0.0732 -0.2163  0.4024
 5143TIP3    H137064   3.837   5.688   0.955  0.6499  0.0735 -0.1353
 5143TIP3    H237065   3.878   5.612   1.079 -0.3151 -0.5038 -0.1603
 5144TIP3   OH237066   1.939   4.800   0.482 -0.1338  0.5641  0.2448
 5144TIP3    H137067   1.999   4.741   0.526 -0.5623 -0.0127  0.0678
 5144TIP3    H237068   1.862   4.746   0.462 -0.5299  1.1775  0.0808
 5145TIP3   OH237069   2.700   1.249   7.847  0.6202 -0.2045  0.3513
 5145TIP3    H137070   2.661   1.245   7.760 -0.4247  0.0664  0.7937
 5145TIP3    H237071   2.677   1.165   7.887 -1.7356  0.8784  1.5033
 5146TIP3   OH237072   6.251   0.627   8.897 -0.5687 -0.2842  0.3532
 5146TIP3    H137073   6.234   0.547   8.847 -0.3958  0.0752 -0.2956
 5146TIP3    H237074   6.165   0.665   8.913 -0.5851  0.0029 -0.3647
 5147TIP3   OH237075   4.614   4.831   7.269  0.6355  0.7040 -0.2163
 5147TIP3    H137076   4.549   4.895   7.298  0.3830  0.8964 -1.1924
 5147TIP3    H237077   4.609   4.832   7.174  2.2647  0.9239 -0.3408
 5148TIP3   OH237078   5.161   4.279   7.311  0.4603 -0.1258 -0.2867
 5148TIP3    H137079   5.179   4.246   7.223 -0.4657  1.7575 -1.2439
 5148TIP3    H237080   5.072   4.315   7.305  0.4843  0.2812  1.3627
 5149TIP3   OH237081   0.608   4.284   8.986 -0.4044 -0.4249  0.0223
 5149TIP3    H137082   0.569   4.203   8.955 -1.6450  0.4788 -0.8800
 5149TIP3    H237083   0.699   4.280   8.956 -0.8269 -0.8724 -1.2598
 5150TIP3   OH237084   3.873   3.848   1.396 -0.4369 -0.3570 -0.0923
 5150TIP3    H137085   3.860   3.891   1.311 -0.1996 -0.7989 -0.3582
 5150TIP3    H237086   3.850   3.756   1.380 -2.0911 -0.1333  0.7572
 5151TIP3   OH237087   2.408   1.127   8.893  0.5692  0.2976 -0.5053
 5151TIP3    H137088   2.468   1.166   8.956  2.3268 -0.5323 -1.5772
 5151TIP3    H237089   2.440   1.037   8.883 -0.2370  0.1361 -1.8724
 5152TIP3   OH237090   0.734   5.126   7.285 -0.1316  0.3011  0.2493
 5152TIP3    H137091   0.676   5.167   7.221 -0.1339 -2.4366 -1.6874
 5152TIP3    H237092   0.819   5.124   7.242  0.6639  1.2442  1.6933
 5153TIP3   OH237093   1.775   2.432   6.829  0.1555  0.4620 -0.0139
 5153TIP3    H137094   1.792   2.340   6.813  1.4035  0.3976  1.3952
 5153TIP3    H237095   1.858   2.475   6.810  0.2613  0.9729  1.4373
 5154TIP3   OH237096   1.939   3.384   8.568 -0.8053 -0.1285  0.9954
 5154TIP3    H137097   1.859   3.437   8.573 -1.4708 -0.5872 -2.4989
 5154TIP3    H237098   2.009   3.447   8.553 -0.6229  0.1607  2.8057
 5155TIP3   OH237099   5.125   1.381   7.627 -0.5353 -0.0587 -0.7048
 5155TIP3    H137100   5.092   1.346   7.544 -3.0017 -0.7336  0.4908
 5155TIP3    H237101   5.065   1.452   7.648 -1.4035 -1.3985  1.6185
 5156TIP3   OH237102   2.428   3.252   8.190  0.2394  0.3740 -0.4441
 5156TIP3    H137103   2.358   3.199   8.153  1.3271 -0.1059 -1.8745
 5156TIP3    H237104   2.411   3.341   8.158 -0.0388  0.3778 -0.2898
 5157TIP3   OH237105   5.859   0.990   6.662  0.8217 -0.0378  0.1498
 5157TIP3    H137106   5.826   1.067   6.710 -1.8028 -0.2952 -1.0733
 5157TIP3    H237107   5.793   0.974   6.595  2.1897 -2.3418 -0.7444
 5158TIP3   OH237108   5.074   0.563   7.993  0.3457 -0.2290  0.7894
 5158TIP3    H137109   5.072   0.657   8.009 -1.1931 -0.0418 -0.3174
 5158TIP3    H237110   5.013   0.527   8.057 -0.4851 -0.2494  0.0015
 5159TIP3   OH237111   1.125   1.748   1.434  0.0033  0.2737  0.2768
 5159TIP3    H137112   1.169   1.716   1.512  1.1967  1.0081 -0.0579
 5159TIP3    H237113   1.190   1.740   1.364 -0.7147  0.5039 -0.4455
 5160TIP3   OH237114   5.783   1.810   0.476  0.3718 -0.2804  0.0618
 5160TIP3    H137115   5.691   1.785   0.491  0.7661 -1.5442  0.4419
 5160TIP3    H237116   5.820   1.737   0.426  1.0825  0.4114 -0.4506
 5161TIP3   OH237117   1.902   3.321   0.398 -0.4789  0.0686 -0.6254
 5161TIP3    H137118   1.979   3.378   0.400 -0.7564  0.4487 -0.3099
 5161TIP3    H237119   1.838   3.370   0.346 -0.9786  0.4011  0.2774
 5162TIP3   OH237120   1.655   4.499   0.154 -0.2782 -0.0038  0.1670
 5162TIP3    H137121   1.694   4.439   0.218 -0.7486  0.4365  0.8759
 5162TIP3    H237122   1.729   4.553   0.125  0.2640 -1.2472 -0.8850
 5163TIP3   OH237123   3.499   2.424   8.592 -0.3051 -0.4369 -0.2895
 5163TIP3    H137124   3.559   2.353   8.572 -2.1847 -1.8598 -1.2180
 5163TIP3    H237125   3.429   2.383   8.643 -0.6787  1.0773  0.4635
 5164TIP3   OH237126   0.452   2.920   8.028 -0.5966 -0.6442 -0.3510
 5164TIP3    H137127   0.547   2.936   8.032 -0.7448  0.1786  0.2097
 5164TIP3    H237128   0.416   2.975   8.098 -1.4682 -1.1425 -0.3951
 5165TIP3   OH237129   6.417   5.322   7.281  0.5562 -0.0402 -0.8855
 5165TIP3    H137130   6.346   5.290   7.225  0.6510  2.1158 -2.3411
 5165TIP3    H237131   6.396   5.414   7.296  2.2300  0.2269 -0.0044
 5166TIP3   OH237132   2.180   3.409   0.378  0.5143  0.4042  0.0499
 5166TIP3    H137133   2.218   3.348   0.314 -0.0550  0.4227 -0.3064
 5166TIP3    H237134   2.250   3.421   0.443  0.9374  0.0360 -0.3261
 5167TIP3   OH237135   6.232   0.093   2.107 -0.1091  0.1314  0.8036
 5167TIP3    H137136   6.154   0.142   2.083 -0.4847 -1.2084 -0.9140
 5167TIP3    H237137   6.298   0.160   2.124  0.2380  1.4324 -4.1753
 5168TIP3   OH237138   5.778   1.904   2.164  0.4119 -0.0924 -0.1235
 5168TIP3    H137139   5.773   1.809   2.151  0.4476 -0.4979  2.4368
 5168TIP3    H237140   5.712   1.922   2.231  1.2999  1.4920  0.3631
 5169TIP3   OH237141   2.676   2.593   0.897 -0.0138 -0.0419  0.0776
 5169TIP3    H137142   2.618   2.625   0.966  0.5770 -1.3296  1.2144
 5169TIP3    H237143   2.681   2.665   0.834  0.2105  1.5597  1.8643
 5170TIP3   OH237144   5.994   3.365   1.184 -0.0642 -0.0826  0.0311
 5170TIP3    H137145   6.035   3.278   1.179  1.2386  0.5742 -2.1660
 5170TIP3    H237146   6.026   3.402   1.266  0.4149 -1.1682  0.3515
 5171TIP3   OH237147   0.404   3.956   1.736  0.4469  0.1090 -0.3237
 5171TIP3    H137148   0.344   3.983   1.805 -1.2364 -1.5501 -1.0317
 5171TIP3    H237149   0.457   3.887   1.776  0.6566  0.3453 -0.1961
 5172TIP3   OH237150   2.733   6.424   0.252 -0.1174  0.3237 -0.1529
 5172TIP3    H137151   2.723   6.503   0.305 -0.4204  0.3005 -0.1765
 5172TIP3    H237152   2.649   6.413   0.209 -0.5867 -0.8294  0.9864
 5173TIP3   OH237153   1.677   6.314   8.593 -0.1834 -0.0456 -0.1477
 5173TIP3    H137154   1.724   6.390   8.628  0.5316 -0.5220 -0.0502
 5173TIP3    H237155   1.585   6.338   8.599 -0.1202 -0.1878  2.3051
 5174TIP3   OH237156   0.877   1.841   7.105 -0.9848 -0.0088  0.5889
 5174TIP3    H137157   0.788   1.821   7.075 -0.0554 -1.5755 -1.3050
 5174TIP3    H237158   0.890   1.933   7.082 -1.2832 -0.4238 -1.3553
 5175TIP3   OH237159   0.664   0.144   0.803 -0.1261 -0.0504  0.0520
 5175TIP3    H137160   0.588   0.092   0.827 -1.1595  1.8478  1.1385
 5175TIP3    H237161   0.684   0.195   0.882  2.6281 -0.8676 -0.0150
 5176TIP3   OH237162   0.790   5.073   0.417 -0.4794  0.7313 -0.2390
 5176TIP3    H137163   0.729   5.000   0.427  0.0363  0.2039 -0.9057
 5176TIP3    H237164   0.873   5.040   0.451 -0.2967  1.0823 -0.3451
 5177TIP3   OH237165   5.887   1.214   1.938  0.1836  0.0163 -0.3139
 5177TIP3    H137166   5.815   1.250   1.989  0.3329  0.1652 -0.2067
 5177TIP3    H237167   5.911   1.133   1.983 -0.7948 -0.7365 -1.1036
 5178TIP3   OH237168   1.562   5.536   1.837  0.0473 -0.7405 -0.5632
 5178TIP3    H137169   1.543   5.442   1.833  2.1381 -1.2046 -0.6454
 5178TIP3    H237170   1.657   5.542   1.822  0.2227  1.2701  0.9243
 5179TIP3   OH237171   5.802   6.011   8.458  0.1662 -0.2350  0.0017
 5179TIP3    H137172   5.836   6.094   8.425 -0.9503 -0.6630 -2.4691
 5179TIP3    H237173   5.839   5.945   8.400 -0.7683 -1.2198  0.4765
 5180TIP3   OH237174   0.051   0.725   0.823 -0.6997  0.3093  1.0464
 5180TIP3    H137175  -0.035   0.766   0.827 -0.7206  0.2541  1.1949
 5180TIP3    H237176   0.056   0.687   0.735  0.3751  2.8785 -0.0962
 5181TIP3   OH237177   0.433   3.190   0.194 -0.0300  0.4161  0.3078
 5181TIP3    H137178   0.490   3.143   0.255 -0.2589  1.4170  1.3124
 5181TIP3    H237179   0.431   3.280   0.227 -0.7982  0.7941 -0.7242
 5182TIP3   OH237180   1.277   3.671   1.262  0.3067 -0.5370  0.0282
 5182TIP3    H137181   1.367   3.671   1.295  0.0616 -1.3224  0.7394
 5182TIP3    H237182   1.273   3.594   1.205  0.6465  0.6511 -1.6810
 5183TIP3   OH237183   3.966   1.926   7.844 -0.2043  0.3627 -0.2161
 5183TIP3    H137184   4.056   1.922   7.875 -0.2011 -0.3299 -0.3066
 5183TIP3    H237185   3.973   1.940   7.749 -0.2004  0.7146 -0.1663
 5184TIP3   OH237186   6.679   3.347   8.761 -0.3925  0.0604 -0.4913
 5184TIP3    H137187   6.762   3.309   8.732 -0.4434  0.1190 -0.7155
 5184TIP3    H237188   6.656   3.409   8.691 -1.0269 -0.5339 -0.8205
 5185TIP3   OH237189   0.794   2.597   7.239  0.2839  0.5938  0.2567
 5185TIP3    H137190   0.842   2.614   7.157 -0.1081 -0.6207 -0.2419
 5185TIP3    H237191   0.713   2.555   7.211  0.9307 -1.5326  1.3566
 5186TIP3   OH237192   4.739   1.015   0.450  0.5181 -0.1253  0.3810
 5186TIP3    H137193   4.667   1.079   0.442 -0.5571 -1.2252  0.8970
 5186TIP3    H237194   4.811   1.054   0.400 -0.3475  1.1434  0.0626
 5187TIP3   OH237195   0.411   4.546   8.625  0.0156 -0.5148 -0.3238
 5187TIP3    H137196   0.409   4.621   8.565 -0.8968 -0.6272 -0.4353
 5187TIP3    H237197   0.341   4.488   8.595 -0.3680 -0.6367  0.7578
 5188TIP3   OH237198   1.237   1.696   1.671 -0.6723 -0.3786  0.2721
 5188TIP3    H137199   1.201   1.764   1.727 -2.8603 -2.7114  1.9120
 5188TIP3    H237200   1.290   1.642   1.730  1.5841  0.1458 -1.1297
 5189TIP3   OH237201   3.685   5.261   7.320 -0.2449 -0.1784  0.2095
 5189TIP3    H137202   3.616   5.254   7.254 -1.1121 -0.6083  1.1317
 5189TIP3    H237203   3.679   5.352   7.350 -0.6932 -0.3214  0.5703
 5190TIP3   OH237204   5.576   2.031   6.189  0.0373  0.1633  0.1014
 5190TIP3    H137205   5.503   1.969   6.199 -1.0658  1.0879 -1.6326
 5190TIP3    H237206   5.559   2.098   6.255 -0.6149  0.2708 -0.1569
 5191TIP3   OH237207   6.370   3.700   7.552  0.1123 -0.0778 -0.0594
 5191TIP3    H137208   6.328   3.734   7.473  2.4480  1.1236 -0.8576
 5191TIP3    H237209   6.437   3.640   7.520  0.2794 -0.5276  1.0801
 5192TIP3   OH237210   6.467   3.086   0.607 -0.4682  0.4773  0.1596
 5192TIP3    H137211   6.510   3.160   0.650  0.2959  0.4154 -0.4739
 5192TIP3    H237212   6.539   3.026   0.587 -1.1274 -0.6248  1.0238
 5193TIP3   OH237213   4.776   6.093   8.564 -0.0873 -0.7434  0.2437
 5193TIP3    H137214   4.700   6.038   8.584 -0.6559  0.2968  1.0883
 5193TIP3    H237215   4.797   6.136   8.648  1.3964 -0.9543  0.0143
 5194TIP3   OH237216   6.045   4.045   2.148 -0.3260 -0.2731  0.4155
 5194TIP3    H137217   6.041   3.956   2.183  0.0821 -0.6414 -0.4440
 5194TIP3    H237218   6.113   4.088   2.199  0.6866 -0.9848 -0.2758
 5195TIP3   OH237219   0.774   0.459   0.803  0.3544  0.2166  0.4280
 5195TIP3    H137220   0.679   0.443   0.806  0.5558 -0.9908  1.6206
 5195TIP3    H237221   0.807   0.417   0.882  1.7440  1.7794  0.7355
 5196TIP3   OH237222   3.055   3.320   0.164 -0.4278  0.5378  0.0194
 5196TIP3    H137223   2.991   3.316   0.235  0.2307 -0.0004  0.5979
 5196TIP3    H237224   3.058   3.232   0.128 -0.9350  0.8636 -0.8552
 5197TIP3   OH237225   1.024   0.349   1.471 -0.1785  0.4135  0.1339
 5197TIP3    H137226   1.104   0.395   1.495  1.8662 -1.0106 -3.2168
 5197TIP3    H237227   1.049   0.256   1.471 -1.9960 -0.1183 -0.3999
 5198TIP3   OH237228   6.649   4.304   1.630  0.0997  0.0210 -0.6761
 5198TIP3    H137229   6.722   4.349   1.672 -0.0600  0.0941 -0.4761
 5198TIP3    H237230   6.593   4.374   1.597 -1.2342  0.0350  1.4718
 5199TIP3   OH237231   5.741   4.940   2.304  0.1728  0.3545 -0.2641
 5199TIP3    H137232   5.651   4.925   2.273  0.6705  0.1726 -1.6825
 5199TIP3    H237233   5.789   4.968   2.226  1.5065 -0.2021  0.3267
 5200TIP3   OH237234   0.158   2.639   1.696 -0.0651  0.3133 -0.2597
 5200TIP3    H137235   0.225   2.692   1.740  2.3245 -1.1686 -1.8746
 5200TIP3    H237236   0.178   2.648   1.603 -2.4150  0.0982 -0.8480
 5201TIP3   OH237237   1.213   3.987   8.664 -0.0058  0.4600  0.0760
 5201TIP3    H137238   1.274   4.059   8.647 -0.5306  0.5803 -1.3808
 5201TIP3    H237239   1.269   3.914   8.692  0.5106  1.4764  1.8659
 5202TIP3   OH237240   1.579   1.714   7.165 -0.0940  0.0895 -0.5255
 5202TIP3    H137241   1.495   1.745   7.201  0.2588 -1.0049  1.3151
 5202TIP3    H237242   1.588   1.763   7.083 -1.0487  2.5392  0.7205
 5203TIP3   OH237243   2.681   0.384   0.987  0.3367 -0.2309 -0.1772
 5203TIP3    H137244   2.719   0.468   1.010  0.3531  0.4214 -2.4170
 5203TIP3    H237245   2.589   0.391   1.013  0.5473  0.0954  0.5069
 5204TIP3   OH237246   4.755   6.535   1.313 -0.1069  0.0916 -0.8163
 5204TIP3    H137247   4.702   6.591   1.257  0.9154  0.5385 -1.3501
 5204TIP3    H237248   4.691   6.485   1.365 -1.0311  0.9166 -1.1467
 5205TIP3   OH237249   2.782   3.327   7.146  0.0985 -0.4969 -0.2563
 5205TIP3    H137250   2.822   3.390   7.086 -1.4847  0.8581  0.0564
 5205TIP3    H237251   2.761   3.251   7.091  3.0356 -1.3333 -0.4310
 5206TIP3   OH237252   3.127   3.104   0.390 -0.4467 -0.4235 -0.2638
 5206TIP3    H137253   3.067   3.177   0.403 -0.3358 -0.3806  0.0039
 5206TIP3    H237254   3.120   3.084   0.296 -0.6565 -0.2277 -0.2906
 5207TIP3   OH237255   6.684   5.354   1.449 -0.3136  0.1812  0.0812
 5207TIP3    H137256   6.644   5.417   1.509  0.1371 -0.5913  1.2346
 5207TIP3    H237257   6.762   5.398   1.415 -1.1166  1.0100 -0.7766
 5208TIP3   OH237258   5.175   4.828   0.667  0.2346 -0.2301  0.7534
 5208TIP3    H137259   5.138   4.862   0.586 -0.1879 -2.7046 -0.1878
 5208TIP3    H237260   5.270   4.836   0.655  0.1873 -0.9076 -0.1714
 5209TIP3   OH237261   4.274   4.698   7.858 -0.3109 -0.6508  0.0407
 5209TIP3    H137262   4.309   4.609   7.848  1.4718 -0.0011  0.1096
 5209TIP3    H237263   4.303   4.726   7.945 -2.5767 -0.6903  0.8625
 5210TIP3   OH237264   3.704   6.170   9.070  0.4415 -0.1163  0.0558
 5210TIP3    H137265   3.650   6.092   9.060  0.3273  0.1359 -1.6117
 5210TIP3    H237266   3.692   6.196   9.162 -0.6139 -1.2494  0.2661
 5211TIP3   OH237267   6.411   1.711   0.179 -0.4550 -0.3656  0.1987
 5211TIP3    H137268   6.346   1.751   0.237  0.2333 -0.5041  1.0801
 5211TIP3    H237269   6.495   1.747   0.208 -0.0729 -0.6661 -0.5186
 5212TIP3   OH237270   2.086   4.067   7.969  0.9732  0.2493  0.0342
 5212TIP3    H137271   2.151   3.996   7.969  0.8340  0.1031  0.8268
 5212TIP3    H237272   2.002   4.021   7.967  0.8890  0.4201 -0.3340
 5213TIP3   OH237273   2.976   3.335   7.869  0.8165 -0.0591 -0.1373
 5213TIP3    H137274   2.967   3.430   7.860  2.3829 -0.0386 -2.8112
 5213TIP3    H237275   2.887   3.302   7.868  0.0813  1.4187  3.2523
 5214TIP3   OH237276   2.793   5.741   1.127  0.2445  0.0264 -1.1932
 5214TIP3    H137277   2.839   5.737   1.211 -1.6391  0.0384 -0.1065
 5214TIP3    H237278   2.777   5.834   1.112  1.0733  0.0748 -1.8893
 5215TIP3   OH237279   5.888   1.658   0.009  0.3613  0.4653  0.2921
 5215TIP3    H137280   5.858   1.721  -0.057 -0.8741  0.6259  0.9699
 5215TIP3    H237281   5.838   1.579  -0.010 -0.9747  0.9031  1.7805
 5216TIP3   OH237282   2.612   4.740   1.744 -0.4066  0.2519 -0.6335
 5216TIP3    H137283   2.661   4.659   1.731  0.3404  0.6417 -0.3528
 5216TIP3    H237284   2.648   4.777   1.825 -0.3312  1.1411 -1.0601
 5217TIP3   OH237285   0.553   6.343   8.993 -0.8731 -0.5239 -0.2702
 5217TIP3    H137286   0.510   6.295   8.921 -1.6344 -1.1327  0.5628
 5217TIP3    H237287   0.504   6.317   9.071 -0.5739  0.7453  0.3693
 5218TIP3   OH237288   5.954   3.537   7.831 -0.1982 -0.0701  0.3879
 5218TIP3    H137289   5.944   3.632   7.829 -1.1839 -0.1696  0.1867
 5218TIP3    H237290   6.018   3.518   7.762  0.6767  0.5132  1.0237
 5219TIP3   OH237291   3.417   2.830   2.299  0.2270 -0.1960  0.4094
 5219TIP3    H137292   3.494   2.790   2.340  0.1896  0.3305  1.0071
 5219TIP3    H237293   3.452   2.877   2.223  0.5268  0.1885  0.7798
 5220TIP3   OH237294   4.039   0.488   7.795  0.3629  0.1855 -0.3774
 5220TIP3    H137295   4.007   0.410   7.841  1.4552 -1.5414 -2.3292
 5220TIP3    H237296   4.072   0.545   7.863 -0.2078 -1.1925  1.1171
 5221TIP3   OH237297   3.777   3.093   1.305  0.3187  0.5772  0.7417
 5221TIP3    H137298   3.781   3.063   1.214 -0.0067 -0.3163  1.0125
 5221TIP3    H237299   3.685   3.087   1.328  0.6971 -1.5642  1.8925
 5222TIP3   OH237300   2.491   1.399   7.209 -0.3257 -0.2805 -0.8471
 5222TIP3    H137301   2.527   1.458   7.276 -0.8762 -0.8906  0.0058
 5222TIP3    H237302   2.398   1.421   7.206 -0.5548 -1.1744 -0.4492
 5223TIP3   OH237303   6.026   4.617   0.351  0.2153 -0.8761  0.1294
 5223TIP3    H137304   6.097   4.642   0.410  0.8580 -2.1817 -0.0559
 5223TIP3    H237305   5.953   4.597   0.410 -0.7570  2.4060  0.2691
 5224TIP3   OH237306   5.254   6.209   7.898  0.2681  0.5353 -1.0022
 5224TIP3    H137307   5.257   6.114   7.889 -2.5505  0.3956 -1.4837
 5224TIP3    H237308   5.225   6.223   7.988 -0.0766  0.8986 -1.1684
 5225TIP3   OH237309   5.909   1.190   7.972  0.3300  0.0635  0.0965
 5225TIP3    H137310   5.918   1.139   8.052  1.1491  0.3860  0.2194
 5225TIP3    H237311   5.908   1.126   7.901  0.3500 -0.1759  0.3148
 5226TIP3   OH237312   0.048   5.792   7.545 -0.4317 -0.1197 -0.3429
 5226TIP3    H137313  -0.037   5.748   7.541 -0.4141 -0.0578 -1.8220
 5226TIP3    H237314   0.108   5.734   7.498  0.2369  0.1064  0.2033
 5227TIP3   OH237315   3.612   5.409   7.564 -0.5996  0.1142  0.6456
 5227TIP3    H137316   3.567   5.423   7.647  0.3312  0.2307  1.1446
 5227TIP3    H237317   3.673   5.482   7.558 -1.8387  1.0832 -0.9850
 5228TIP3   OH237318   5.317   0.069   0.629 -0.1582 -0.1077 -0.2291
 5228TIP3    H137319   5.271   0.046   0.710  1.3803  0.9624  1.0082
 5228TIP3    H237320   5.407   0.041   0.644 -0.2390 -1.9069 -2.4759
 5229TIP3   OH237321   5.475   1.651   0.173 -0.3885 -0.1871  0.0221
 5229TIP3    H137322   5.420   1.693   0.239 -0.9642  2.8493 -2.1503
 5229TIP3    H237323   5.534   1.721   0.144  1.0024 -1.8896 -1.4616
 5230TIP3   OH237324   2.238   2.177   1.093 -0.2185 -0.4425 -0.1021
 5230TIP3    H137325   2.318   2.127   1.107 -0.9580 -1.3723  0.9808
 5230TIP3    H237326   2.178   2.114   1.052 -0.7572 -0.0819  0.1310
 5231TIP3   OH237327   3.275   1.700   8.786  0.3083  0.0543  0.1560
 5231TIP3    H137328   3.182   1.714   8.767  0.2411  2.0296  1.6599
 5231TIP3    H237329   3.321   1.732   8.709 -0.1868  1.8298  0.5575
 5232TIP3   OH237330   6.043   0.845   8.939 -0.1562 -0.4301  0.3361
 5232TIP3    H137331   5.978   0.810   8.878  1.0604 -0.3334 -1.0924
 5232TIP3    H237332   6.018   0.936   8.952 -0.1406 -0.2949 -0.4859
 5233TIP3   OH237333   5.284   3.401   0.853 -0.4552  0.0899  0.1880
 5233TIP3    H137334   5.307   3.379   0.763 -1.6083  3.7199 -1.1867
 5233TIP3    H237335   5.189   3.410   0.851 -0.5019  0.1602  1.8122
 5234TIP3   OH237336   1.289   4.483   6.621 -0.2256  0.0500 -0.4086
 5234TIP3    H137337   1.340   4.439   6.552 -0.5139 -0.4897 -0.2847
 5234TIP3    H237338   1.221   4.531   6.573 -0.2846 -0.1363 -0.5111
 5235TIP3   OH237339   6.681   2.827   8.556  0.1155 -0.2484 -0.1791
 5235TIP3    H137340   6.630   2.853   8.633 -0.0532  3.4877 -1.3644
 5235TIP3    H237341   6.623   2.767   8.509 -0.2392 -1.6776  1.9113
 5236TIP3   OH237342   5.894   1.060   0.426 -0.1028 -0.5809  0.0908
 5236TIP3    H137343   5.802   1.071   0.404  0.0743 -1.5679 -1.2867
 5236TIP3    H237344   5.895   1.042   0.520 -1.2300  0.2811  0.2818
 5237TIP3   OH237345   1.123   6.618   8.509  0.1583 -0.1394 -0.2540
 5237TIP3    H137346   1.138   6.681   8.438 -0.2793 -0.3690 -0.5526
 5237TIP3    H237347   1.096   6.673   8.583  1.4909  0.1946  0.0225
 5238TIP3   OH237348   6.702   3.042   0.878 -0.3508 -0.2943 -0.1837
 5238TIP3    H137349   6.758   3.085   0.943  0.8169 -2.4105  0.2744
 5238TIP3    H237350   6.693   3.107   0.808  1.0610  0.8242  0.6229
 5239TIP3   OH237351   3.244   2.744   8.514 -0.0362 -0.3165  0.1106
 5239TIP3    H137352   3.278   2.713   8.430 -0.6798 -1.1841  0.1548
 5239TIP3    H237353   3.204   2.829   8.495  1.4991  0.4085 -0.0746
 5240TIP3   OH237354   0.059   3.743   8.299 -0.0748  0.1761 -0.3077
 5240TIP3    H137355   0.016   3.658   8.306  1.7847 -0.9686 -1.9351
 5240TIP3    H237356   0.008   3.791   8.234  0.0901 -0.4925 -0.9301
 5241TIP3   OH237357   3.264   5.724   8.527 -0.1582  0.6585 -0.0119
 5241TIP3    H137358   3.211   5.669   8.584 -0.0050  0.7109  0.1840
 5241TIP3    H237359   3.201   5.768   8.470 -0.6507  3.0320  2.1676
 5242TIP3   OH237360   4.062   1.893   8.201  0.0368 -0.0301 -0.3922
 5242TIP3    H137361   4.095   1.975   8.164  0.9999 -0.0365  0.4187
 5242TIP3    H237362   3.971   1.912   8.225 -0.2800  0.2883 -1.7284
 5243TIP3   OH237363   1.773   4.613   6.535  0.0549  0.3919 -0.3037
 5243TIP3    H137364   1.850   4.671   6.534  0.2491  0.2028  1.1811
 5243TIP3    H237365   1.699   4.673   6.546  0.1876  0.4496  0.3755
 5244TIP3   OH237366   3.912   0.259   1.240 -0.0341  0.1290 -1.0065
 5244TIP3    H137367   3.916   0.165   1.219 -0.5878  0.5139 -3.0653
 5244TIP3    H237368   3.821   0.273   1.267 -0.4842  0.3708 -2.5345
 5245TIP3   OH237369   0.120   6.299   9.032 -0.3263 -0.0780  0.1739
 5245TIP3    H137370   0.147   6.269   8.946 -1.0365 -1.2998  0.3525
 5245TIP3    H237371   0.187   6.266   9.092  0.1512  0.7445  0.1001
 5246TIP3   OH237372   6.512   2.576   8.904  0.4940 -0.1615 -0.0228
 5246TIP3    H137373   6.486   2.526   8.826  0.8918  1.7110 -1.4222
 5246TIP3    H237374   6.486   2.520   8.977  0.2581 -2.0888 -1.4682
 5247TIP3   OH237375   2.614   5.208   7.848 -0.1862  0.9516 -0.0586
 5247TIP3    H137376   2.586   5.268   7.917 -2.1688  1.4648 -1.2128
 5247TIP3    H237377   2.674   5.259   7.794 -0.7702  1.4548 -0.2402
 5248TIP3   OH237378   3.535   2.176   7.344  0.5132 -0.3270  0.0247
 5248TIP3    H137379   3.492   2.105   7.392  0.1315 -0.4681 -0.5129
 5248TIP3    H237380   3.614   2.136   7.308 -0.5344 -0.9850 -1.6979
 5249TIP3   OH237381   5.047   4.740   7.547  0.4939  0.6672  0.4774
 5249TIP3    H137382   4.952   4.738   7.540  0.4846  1.1681  0.4705
 5249TIP3    H237383   5.077   4.780   7.465  0.8200 -1.2764 -0.4091
 5250TIP3   OH237384   5.857   0.147   2.519 -0.1316 -0.2497 -0.7054
 5250TIP3    H137385   5.881   0.090   2.592  0.4065  0.5419 -0.2475
 5250TIP3    H237386   5.939   0.165   2.474 -0.1180  0.9638 -0.2450
 5251TIP3   OH237387   3.728   1.250   1.187 -0.5350  0.0582  0.1464
 5251TIP3    H137388   3.691   1.163   1.172 -2.3800  0.8399 -0.1206
 5251TIP3    H237389   3.692   1.304   1.116  0.9712  0.9419  0.0159
 5252TIP3   OH237390   4.449   3.687   1.734  0.4130  0.6035  0.2980
 5252TIP3    H137391   4.519   3.691   1.799  1.2149 -2.0970 -0.2776
 5252TIP3    H237392   4.442   3.594   1.712 -1.6901  1.1048 -1.4891
 5253TIP3   OH237393   1.713   3.054   0.286 -0.0342 -0.0597  0.1779
 5253TIP3    H137394   1.660   3.091   0.357  0.3067  0.7918  0.0020
 5253TIP3    H237395   1.803   3.077   0.309  0.0907  0.0894 -0.4488
 5254TIP3   OH237396   1.824   5.006   0.685 -0.4878 -0.2247  0.4903
 5254TIP3    H137397   1.812   4.944   0.614 -0.8096  1.4109 -0.9379
 5254TIP3    H237398   1.918   5.007   0.701 -0.2808  0.1862 -0.6747
 5255TIP3   OH237399   3.049   5.107   1.926 -0.4721  0.7698 -0.0984
 5255TIP3    H137400   3.090   5.035   1.878  2.1945  2.5374 -0.7078
 5255TIP3    H237401   2.968   5.125   1.878 -0.0107 -0.3254 -1.3473
 5256TIP3   OH237402   5.195   1.786   8.205  0.1775 -0.2475 -0.1069
 5256TIP3    H137403   5.115   1.744   8.238  1.1891 -1.2478  1.2049
 5256TIP3    H237404   5.195   1.768   8.111 -1.5082  0.4340 -0.2683
 5257TIP3   OH237405   1.306   6.127   2.249 -0.0189 -0.1890 -0.1748
 5257TIP3    H137406   1.306   6.159   2.339  0.8471  0.6531 -0.4607
 5257TIP3    H237407   1.354   6.044   2.253 -1.8326 -1.2632  0.4806
 5258TIP3   OH237408   2.803   4.857   8.161  0.1588 -0.1033  0.3355
 5258TIP3    H137409   2.864   4.846   8.088 -2.1509  0.5529 -1.8384
 5258TIP3    H237410   2.854   4.901   8.229  2.2910 -0.3368 -1.0236
 5259TIP3   OH237411   4.723   3.005   1.936 -0.4629  0.1016  0.1483
 5259TIP3    H137412   4.680   2.928   1.899 -2.7586  0.8915  0.9784
 5259TIP3    H237413   4.789   2.969   1.996 -0.1614 -1.1687 -0.8867
 5260TIP3   OH237414   2.715   2.074   7.729  0.1468  0.4491  0.1995
 5260TIP3    H137415   2.743   2.159   7.765  2.1039  0.0397 -0.1960
 5260TIP3    H237416   2.755   2.009   7.787  1.7573 -0.1899 -1.4980
 5261TIP3   OH237417   0.550   1.652   7.742  0.1141  0.4906 -0.0117
 5261TIP3    H137418   0.608   1.631   7.668  0.0116  0.0879  0.0184
 5261TIP3    H237419   0.464   1.621   7.714 -0.1125  1.1835 -0.0970
 5262TIP3   OH237420   6.336   6.404   7.263  0.0045 -0.2468 -0.4044
 5262TIP3    H137421   6.363   6.312   7.264  0.8151 -0.0197 -0.8069
 5262TIP3    H237422   6.418   6.453   7.260 -0.4369  0.4797 -0.7998
 5263TIP3   OH237423   0.184   1.957   1.525 -0.3011  0.2069  0.4254
 5263TIP3    H137424   0.148   1.915   1.604  3.2946 -1.4357  1.4082
 5263TIP3    H237425   0.178   1.889   1.458 -1.8555  1.0456 -0.3300
 5264TIP3   OH237426   1.996   2.664   1.237 -0.0384  0.7720  0.1166
 5264TIP3    H137427   2.019   2.640   1.147 -0.7741 -1.8565  0.5263
 5264TIP3    H237428   2.080   2.664   1.283  0.4884  3.2318 -0.7186
 5265TIP3   OH237429   1.807   4.575   6.883 -0.4952 -0.2125  0.4352
 5265TIP3    H137430   1.871   4.535   6.825 -1.4881 -3.9102  1.6367
 5265TIP3    H237431   1.840   4.557   6.971 -1.1389  1.5091  1.0671
 5266TIP3   OH237432   1.211   6.364   8.410  0.0535  0.3162  0.0322
 5266TIP3    H137433   1.185   6.371   8.318  1.1735 -2.2210 -0.5836
 5266TIP3    H237434   1.158   6.429   8.455 -0.2071  1.9680 -2.4617
 5267TIP3   OH237435   1.323   6.421   1.535 -0.5933  0.1230  0.4353
 5267TIP3    H137436   1.295   6.431   1.626  1.9870 -0.8044  1.4377
 5267TIP3    H237437   1.296   6.502   1.493 -0.3911  1.3260  2.4643
 5268TIP3   OH237438   6.568   1.575   1.434  0.1928  0.2381 -0.1015
 5268TIP3    H137439   6.634   1.596   1.368 -1.7148  1.8653 -1.5944
 5268TIP3    H237440   6.575   1.645   1.499  0.3114  0.0958  0.0398
 5269TIP3   OH237441   5.101   4.788   7.971 -0.0854 -0.3189  0.5400
 5269TIP3    H137442   5.143   4.747   7.896 -0.3509 -0.4178  0.4459
 5269TIP3    H237443   5.173   4.830   8.019 -0.0429  0.5952 -0.2914
 5270TIP3   OH237444   2.235   1.488   7.189 -0.0163  0.0568  0.3635
 5270TIP3    H137445   2.158   1.459   7.237 -0.7324  0.6322 -0.4264
 5270TIP3    H237446   2.214   1.471   7.097  0.2495  1.4419  0.0263
 5271TIP3   OH237447   4.002   3.549   9.024 -0.6070 -0.1674  0.2099
 5271TIP3    H137448   4.039   3.500   8.951 -1.9567 -2.4127  0.9289
 5271TIP3    H237449   3.915   3.575   8.994 -0.4310  0.6153  0.3477
 5272TIP3   OH237450   5.925   2.514   1.887 -0.4616 -0.1728  0.3739
 5272TIP3    H137451   5.869   2.437   1.880 -1.6370  0.6624  0.3990
 5272TIP3    H237452   6.006   2.489   1.843 -0.4719 -1.7327  1.1657
 5273TIP3   OH237453   2.937   0.080   8.617  0.4129  0.1769 -0.0232
 5273TIP3    H137454   2.877   0.012   8.647  0.6708  0.4962  1.2477
 5273TIP3    H237455   3.024   0.043   8.627  0.7017  1.3343  2.6002
 5274TIP3   OH237456   2.904   3.516   8.796  0.3278 -0.3792 -0.3623
 5274TIP3    H137457   2.870   3.484   8.879  0.9165  1.4019  0.6327
 5274TIP3    H237458   2.827   3.528   8.741 -0.2313 -0.1799  0.4523
 5275TIP3   OH237459   0.464   6.126   8.856  0.1772  0.2398 -0.6913
 5275TIP3    H137460   0.385   6.073   8.860 -0.4685  1.1261 -1.2000
 5275TIP3    H237461   0.520   6.081   8.794 -0.7998  0.6965 -1.9433
 5276TIP3   OH237462   2.344   4.929   1.133 -0.3068 -0.5528 -0.4463
 5276TIP3    H137463   2.335   4.850   1.186 -0.1345 -1.9795 -2.4183
 5276TIP3    H237464   2.263   4.933   1.082 -0.2211  0.4170 -0.5248
 5277TIP3   OH237465   2.953   2.843   7.920 -0.6017  0.2184 -0.2891
 5277TIP3    H137466   3.008   2.905   7.872  0.3288  0.5986  1.2146
 5277TIP3    H237467   2.883   2.897   7.957  0.0684  0.3625  0.8112
 5278TIP3   OH237468   3.204   5.401   0.509 -0.2673 -0.1316  0.2540
 5278TIP3    H137469   3.228   5.379   0.419  2.7688  0.7843  0.7166
 5278TIP3    H237470   3.181   5.318   0.549 -1.7760 -0.5398 -1.3488
 5279TIP3   OH237471   2.328   2.892   8.995 -0.1208  0.0010  0.6638
 5279TIP3    H137472   2.388   2.931   9.058  0.4168 -3.6103  2.6874
 5279TIP3    H237473   2.246   2.939   9.006  0.5162  0.7246  2.7249
 5280TIP3   OH237474   1.610   3.886   7.991 -0.0454  0.3791 -0.5227
 5280TIP3    H137475   1.574   3.829   8.059  1.5417  0.4032  0.3747
 5280TIP3    H237476   1.548   3.959   7.986 -0.4522  0.1235  0.5347
 5281TIP3   OH237477   2.650   5.140   8.853 -0.4759 -0.0983 -0.3073
 5281TIP3    H137478   2.599   5.209   8.896 -0.1365  0.1115 -0.2429
 5281TIP3    H237479   2.694   5.183   8.780 -0.4513 -0.2968 -0.4109
 5282TIP3   OH237480   3.977   0.927   1.733  0.2902  0.2600  0.2661
 5282TIP3    H137481   4.033   1.001   1.707  0.7851  0.2490  1.2466
 5282TIP3    H237482   3.922   0.911   1.657  1.5853  0.3041 -0.7260
 5283TIP3   OH237483   1.378   1.160   7.735  0.0654  0.0279  0.1330
 5283TIP3    H137484   1.301   1.216   7.748  1.1202  1.2574  1.4624
 5283TIP3    H237485   1.436   1.212   7.680 -0.3608 -1.2549 -1.6203
 5284TIP3   OH237486   6.454   3.046   1.450 -0.6421 -0.1287 -0.1211
 5284TIP3    H137487   6.424   3.003   1.370  0.5221 -1.3785  0.0733
 5284TIP3    H237488   6.485   2.974   1.505  1.3580  0.9424  0.2363
 5285TIP3   OH237489   6.568   0.617   1.821  0.5543 -0.2636 -0.4103
 5285TIP3    H137490   6.529   0.536   1.855 -0.9523 -0.2857 -2.0401
 5285TIP3    H237491   6.493   0.672   1.798  1.5315  0.8315 -1.0922
 5286TIP3   OH237492   3.848   1.503   7.419  0.0824  0.3109 -0.2470
 5286TIP3    H137493   3.871   1.483   7.329  0.7596 -1.1839  0.2429
 5286TIP3    H237494   3.790   1.432   7.446  0.2953  0.4644  0.6573
 5287TIP3   OH237495   3.293   0.181   7.688  0.0058  0.0705  0.5433
 5287TIP3    H137496   3.377   0.224   7.707  1.4642 -1.9422 -0.9002
 5287TIP3    H237497   3.254   0.168   7.774  2.0525 -0.5313  1.4609
 5288TIP3   OH237498   4.353   3.624   8.020  0.1239 -0.9062 -1.3827
 5288TIP3    H137499   4.383   3.680   8.092 -3.3157 -1.1857  0.4828
 5288TIP3    H237500   4.369   3.676   7.941  2.6551  0.0435 -0.3449
 5289TIP3   OH237501   5.658   1.701   1.365 -0.3669  0.0320  0.4151
 5289TIP3    H137502   5.594   1.640   1.328  0.2233 -0.4446  0.1563
 5289TIP3    H237503   5.679   1.761   1.293 -1.9561  1.4155  1.0517
 5290TIP3   OH237504   4.608   2.998   8.697 -0.8740  0.3907 -0.0528
 5290TIP3    H137505   4.570   2.985   8.783 -1.5837  1.1145 -0.2453
 5290TIP3    H237506   4.537   3.034   8.644 -0.7881 -1.1155 -1.2639
 5291TIP3   OH237507   0.452   5.068   0.250  0.0352  0.3375 -0.3495
 5291TIP3    H137508   0.463   5.136   0.183 -0.4978  0.5632 -0.2106
 5291TIP3    H237509   0.358   5.060   0.261  0.0747 -0.8799 -0.8087
 5292TIP3   OH237510   1.973   4.627   1.940  0.0476  0.1977 -0.3420
 5292TIP3    H137511   1.910   4.556   1.933  0.6093 -0.5291  1.3662
 5292TIP3    H237512   2.058   4.584   1.931  0.3611  0.9934 -1.4432
 5293TIP3   OH237513   2.435   4.488   8.345 -0.4511 -0.5419  0.1414
 5293TIP3    H137514   2.343   4.466   8.330 -0.9172  1.0272  0.4458
 5293TIP3    H237515   2.432   4.560   8.408  1.0136 -0.7127  0.4298
 5294TIP3   OH237516   0.380   5.978   8.093  0.2184  0.0888  0.0208
 5294TIP3    H137517   0.389   5.892   8.134 -0.7684 -0.7470 -1.4243
 5294TIP3    H237518   0.470   6.005   8.073  0.5460 -0.5631  0.5867
 5295TIP3   OH237519   2.403   4.748   8.496 -0.4451  0.1867  0.0637
 5295TIP3    H137520   2.456   4.825   8.476 -1.7561  0.6689 -1.8991
 5295TIP3    H237521   2.325   4.782   8.540  0.2085 -0.3690  1.7212
 5296TIP3   OH237522   2.013   4.066   7.436  0.2564 -0.0435  0.0400
 5296TIP3    H137523   2.086   4.009   7.412  0.5803  0.8451 -1.1206
 5296TIP3    H237524   2.047   4.121   7.506  0.7928  0.5550 -0.6860
 5297TIP3   OH237525   4.426   5.321   2.357 -0.3029 -0.0674 -0.3362
 5297TIP3    H137526   4.392   5.301   2.444 -1.8039  0.9960 -0.6650
 5297TIP3    H237527   4.351   5.313   2.299 -0.1503  2.7366 -1.0237
 5298TIP3   OH237528   1.612   0.163   1.025 -0.5534  0.3057  0.0583
 5298TIP3    H137529   1.582   0.248   1.058 -2.4439 -0.8123  1.3749
 5298TIP3    H237530   1.545   0.101   1.053  1.5446 -1.8957  0.4823
 5299TIP3   OH237531   0.934   5.672   1.671  0.2525  0.6777 -0.1834
 5299TIP3    H137532   0.967   5.757   1.701  1.8171 -0.1713  0.6427
 5299TIP3    H237533   0.841   5.673   1.694  0.4503  1.8016  0.6808
 5300TIP3   OH237534   1.256   4.304   0.568  0.0223 -0.3752  0.1081
 5300TIP3    H137535   1.223   4.250   0.496  2.4050  1.6498 -2.7317
 5300TIP3    H237536   1.328   4.252   0.606  0.1980 -0.5534 -0.4589
 5301TIP3   OH237537   1.101   0.067   1.520 -0.4203 -0.3335  0.0369
 5301TIP3    H137538   1.177   0.124   1.533 -2.0736  1.8299  0.7130
 5301TIP3    H237539   1.082   0.033   1.608 -1.5750  0.9872  0.3307
 5302TIP3   OH237540   0.543   6.583   2.592  0.4338  0.2908  0.4044
 5302TIP3    H137541   0.605   6.512   2.604  1.4109  0.9027 -0.7828
 5302TIP3    H237542   0.467   6.542   2.551  0.3197 -0.3366  1.2215
 5303TIP3   OH237543   1.890   3.097   7.636  0.8158 -0.1589  0.9127
 5303TIP3    H137544   1.865   3.145   7.557  1.5940  0.0028  0.7585
 5303TIP3    H237545   1.982   3.075   7.623  0.9006 -0.2998  1.6874
 5304TIP3   OH237546   1.881   1.211   7.614 -0.0687 -0.0055 -0.2803
 5304TIP3    H137547   1.954   1.251   7.567  0.0194  1.2859  0.8851
 5304TIP3    H237548   1.815   1.281   7.620 -0.5162 -0.4796  0.5383
 5305TIP3   OH237549   1.119   3.624   8.507 -0.0258 -0.3290 -0.6507
 5305TIP3    H137550   1.183   3.562   8.543 -1.4739 -0.6650  1.4921
 5305TIP3    H237551   1.072   3.573   8.441 -0.1776 -1.0745  0.0138
 5306TIP3   OH237552   5.628   2.266   7.113  0.2552  0.1768  0.1942
 5306TIP3    H137553   5.610   2.254   7.207  0.7823  1.2805  0.4542
 5306TIP3    H237554   5.628   2.178   7.077 -0.6222 -0.2189  1.1118
 5307TIP3   OH237555   4.638   3.602   0.658 -0.2247  0.3944 -0.5128
 5307TIP3    H137556   4.648   3.542   0.732 -0.6079  0.2327 -0.5901
 5307TIP3    H237557   4.672   3.686   0.690  0.4619  0.1056 -0.4535
 5308TIP3   OH237558   1.098   3.949   0.545  0.2499  0.2405  0.8697
 5308TIP3    H137559   1.123   4.020   0.485 -1.3021 -0.5358 -0.7922
 5308TIP3    H237560   1.016   3.979   0.583  0.3672 -0.0098  1.3160
 5309TIP3   OH237561   0.428   1.265   6.849  0.0382  0.5489  0.2230
 5309TIP3    H137562   0.387   1.277   6.935  1.3844  2.1313  0.6961
 5309TIP3    H237563   0.361   1.223   6.796 -1.5620  1.4504  1.4541
 5310TIP3   OH237564   2.745   5.495   1.526  0.6545 -0.0807  0.2678
 5310TIP3    H137565   2.781   5.531   1.607  0.3276  0.2329  0.2796
 5310TIP3    H237566   2.664   5.545   1.512  1.5204  1.0456 -1.1083
 5311TIP3   OH237567   4.601   1.146   0.926  0.1008 -0.1514  0.5187
 5311TIP3    H137568   4.625   1.186   0.842  1.2144 -0.2197  0.7879
 5311TIP3    H237569   4.613   1.052   0.911 -0.5006 -0.2314  0.5148
 5312TIP3   OH237570   1.050   3.247   1.237  0.7020 -0.4081 -0.0116
 5312TIP3    H137571   1.063   3.166   1.285 -2.8586 -0.7896  0.5705
 5312TIP3    H237572   1.040   3.314   1.305  2.2064  0.3225 -0.4615
 5313TIP3   OH237573   4.846   0.340   7.121 -0.1923  0.4635  0.1938
 5313TIP3    H137574   4.931   0.336   7.165  0.0135  1.9168 -0.0347
 5313TIP3    H237575   4.848   0.422   7.072 -2.8376  2.1403  2.5417
 5314TIP3   OH237576   0.451   1.029   1.495  0.5493  0.1874 -0.1516
 5314TIP3    H137577   0.357   1.017   1.509  0.4775  1.0426  0.1783
 5314TIP3    H237578   0.464   1.014   1.402 -0.0160  0.6448 -0.3090
 5315TIP3   OH237579   2.231   5.506   7.558 -0.2762 -0.5287  0.3571
 5315TIP3    H137580   2.152   5.526   7.508 -0.7701 -1.5001  0.7366
 5315TIP3    H237581   2.302   5.541   7.505 -0.9603  0.4660  0.0678
 5316TIP3   OH237582   6.698   0.957   8.952 -0.3900 -0.2300 -0.1025
 5316TIP3    H137583   6.638   0.888   8.981 -0.5099 -0.3588 -0.6494
 5316TIP3    H237584   6.643   1.035   8.944 -0.6818 -0.5359 -1.4102
 5317TIP3   OH237585   2.931   2.236   7.577 -0.0364 -0.5433 -0.4844
 5317TIP3    H137586   2.991   2.217   7.649  1.3475  1.0854 -1.1290
 5317TIP3    H237587   2.855   2.277   7.619  1.4320  1.8893  0.0169
 5318TIP3   OH237588   1.042   6.363   1.199 -0.1293 -0.4288  0.3767
 5318TIP3    H137589   1.031   6.387   1.107 -0.2314  0.2100  0.5505
 5318TIP3    H237590   1.075   6.443   1.241 -1.6183 -0.2054  1.2004
 5319TIP3   OH237591   2.019   1.039   7.770  0.3736 -0.3575  0.7527
 5319TIP3    H137592   2.083   0.996   7.713  1.0266 -0.2806  1.4162
 5319TIP3    H237593   1.971   1.097   7.711  0.9680 -0.3521  0.2517
 5320TIP3   OH237594   2.995   6.733   1.538 -0.1525  0.0091  0.7020
 5320TIP3    H137595   3.021   6.643   1.557 -0.7756  0.1118  2.1752
 5320TIP3    H237596   2.900   6.729   1.527 -0.3567  0.6251  1.9466
 5321TIP3   OH237597   0.417   3.454   0.266 -0.5593 -0.1906  0.3164
 5321TIP3    H137598   0.328   3.488   0.267 -0.4995  0.3875 -3.2637
 5321TIP3    H237599   0.469   3.523   0.306 -1.3415  0.9195 -0.5142
 5322TIP3   OH237600   6.472   1.415   7.470 -0.1220  0.0107  0.5882
 5322TIP3    H137601   6.517   1.345   7.516  1.2766  2.3642  3.1405
 5322TIP3    H237602   6.514   1.418   7.384 -1.1390 -2.9942 -0.1241
 5323TIP3   OH237603   1.797   0.050   7.472  0.5191 -0.0764 -0.6380
 5323TIP3    H137604   1.710   0.083   7.495  0.7218 -0.0066  0.0507
 5323TIP3    H237605   1.812   0.081   7.382 -0.2575 -0.2820 -0.8447
 5324TIP3   OH237606   2.622   5.971   0.787  0.1952 -0.1548  0.8722
 5324TIP3    H137607   2.548   6.024   0.817  1.9370  2.5146  0.7778
 5324TIP3    H237608   2.650   6.014   0.706  2.6804 -0.2467  1.6256
 5325TIP3   OH237609   5.629   0.003   7.841 -0.0603  0.1622  0.7941
 5325TIP3    H137610   5.717   0.007   7.805  0.5398 -0.1802  2.1549
 5325TIP3    H237611   5.572  -0.001   7.764  0.9119  2.8624 -0.1987
 5326TIP3   OH237612   6.649   4.341   7.138  0.1330  0.2914  0.8051
 5326TIP3    H137613   6.683   4.256   7.110  0.4611 -0.3888  3.0475
 5326TIP3    H237614   6.719   4.378   7.192 -0.1061  1.9254  0.0730
 5327TIP3   OH237615   0.365   6.155   1.571 -0.6072  0.1433  0.3312
 5327TIP3    H137616   0.284   6.106   1.556 -0.6599  0.4801 -0.5369
 5327TIP3    H237617   0.340   6.247   1.564 -0.2155  0.2561  0.3674
 5328TIP3   OH237618   2.761   1.036   1.625  0.2164  0.4512  0.0988
 5328TIP3    H137619   2.762   1.054   1.531 -1.5409 -1.2082 -0.3058
 5328TIP3    H237620   2.853   1.019   1.648  0.5274 -0.4110 -1.6172
 5329TIP3   OH237621   2.739   2.201   1.476 -0.0476  0.3718 -0.3668
 5329TIP3    H137622   2.736   2.288   1.516  0.8628  0.7148 -1.0222
 5329TIP3    H237623   2.755   2.142   1.550 -0.8676  0.7203  0.1108
 5330TIP3   OH237624   5.342   1.188   1.332  0.3151 -0.1259  0.4064
 5330TIP3    H137625   5.410   1.139   1.378  0.6543  0.1167  0.1677
 5330TIP3    H237626   5.283   1.121   1.297  0.3526 -0.3290  0.7301
 5331TIP3   OH237627   2.405   4.620   2.723 -0.5494 -0.3537  0.1869
 5331TIP3    H137628   2.462   4.651   2.653 -1.2287  0.5497  0.0168
 5331TIP3    H237629   2.317   4.623   2.686 -1.0014  0.8310  1.2871
 5332TIP3   OH237630   1.033   6.495   6.515 -0.5355 -0.1609  0.0809
 5332TIP3    H137631   0.982   6.417   6.536 -0.9145 -0.3242 -1.3040
 5332TIP3    H237632   1.004   6.519   6.427  0.6634  0.6675 -0.1118
 5333TIP3   OH237633   3.955   1.149   0.318  0.3355  0.4076  0.0436
 5333TIP3    H137634   3.912   1.199   0.249  1.6390 -0.0770 -1.1486
 5333TIP3    H237635   3.915   1.062   0.313 -0.0002  0.5407  0.3243
 5334TIP3   OH237636   3.066   5.186   0.627  0.0186  0.0529  0.3233
 5334TIP3    H137637   3.072   5.090   0.624 -0.5328 -0.0133  1.1787
 5334TIP3    H237638   3.055   5.207   0.720  0.7694  0.9910  0.2088
 5335TIP3   OH237639   2.603   4.312   8.873 -0.1231  0.8715  0.0583
 5335TIP3    H137640   2.691   4.326   8.908  0.9166 -0.9308 -1.6184
 5335TIP3    H237641   2.604   4.223   8.840 -2.3674  1.0522 -0.7015
 5336TIP3   OH237642   2.732   2.288   8.322 -0.5571  0.0822  0.1719
 5336TIP3    H137643   2.813   2.338   8.309  0.1958 -0.4469  2.3987
 5336TIP3    H237644   2.756   2.198   8.300 -1.4518  0.3341 -2.1617
 5337TIP3   OH237645   5.511   4.934   1.375 -0.6311  0.3124 -0.3988
 5337TIP3    H137646   5.493   4.894   1.290 -0.4832  1.7655 -1.1589
 5337TIP3    H237647   5.425   4.943   1.416 -0.6474 -0.9011 -0.1358
 5338TIP3   OH237648   0.210   3.178   0.357  0.0978  0.1892  0.0377
 5338TIP3    H137649   0.275   3.184   0.287 -0.1298  0.9178 -0.1172
 5338TIP3    H237650   0.145   3.245   0.336 -0.8452 -0.6903  0.0508
 5339TIP3   OH237651   0.011   6.650   8.493 -0.0889 -0.0560 -0.0995
 5339TIP3    H137652   0.024   6.559   8.469 -0.7978 -0.4741  1.0172
 5339TIP3    H237653  -0.008   6.647   8.587  0.2743  1.2762  0.0358
 5340TIP3   OH237654   0.103   4.867   0.324  0.3379  0.5910 -0.2105
 5340TIP3    H137655   0.141   4.948   0.357  0.3987  0.8774 -0.9564
 5340TIP3    H237656   0.027   4.896   0.273 -0.3461  0.0905  0.5019
 5341TIP3   OH237657   3.085   2.656   1.252  0.2902 -0.1723 -0.3411
 5341TIP3    H137658   3.177   2.660   1.228  1.3491 -0.8281  2.9965
 5341TIP3    H237659   3.069   2.563   1.269 -0.3656  0.1687  1.0446
 5342TIP3   OH237660   5.863   4.648   0.649 -0.3202 -0.2706 -0.0966
 5342TIP3    H137661   5.829   4.583   0.587 -0.1486 -0.2189 -0.2442
 5342TIP3    H237662   5.793   4.657   0.714 -0.9509  0.4737 -0.8619
 5343TIP3   OH237663   1.764   5.468   0.621  0.0125  0.6415 -0.1931
 5343TIP3    H137664   1.738   5.390   0.572  3.0836 -0.5938 -0.0760
 5343TIP3    H237665   1.738   5.450   0.711 -2.9182  1.6121 -0.7389
 5344TIP3   OH237666   6.611   2.901   1.099  0.0191  0.1990 -0.0647
 5344TIP3    H137667   6.630   2.965   1.031 -1.6007  1.3495  0.5031
 5344TIP3    H237668   6.538   2.849   1.063  0.0756 -0.0919  0.2356
 5345TIP3   OH237669   4.587   5.529   2.785  0.3804 -0.4072  0.0727
 5345TIP3    H137670   4.636   5.456   2.824  0.2959 -0.3044  0.3787
 5345TIP3    H237671   4.612   5.528   2.693  0.6733 -0.5872  0.1509
 5346TIP3   OH237672   3.195   3.507   0.621  0.2242  0.6777  0.3066
 5346TIP3    H137673   3.221   3.485   0.531 -1.1695  0.1497  0.0061
 5346TIP3    H237674   3.144   3.431   0.650 -3.7402  2.8237 -0.3211
 5347TIP3   OH237675   3.758   4.750   8.810 -0.1351 -0.1357  0.5469
 5347TIP3    H137676   3.768   4.834   8.854 -2.1185 -0.5473  1.9328
 5347TIP3    H237677   3.715   4.694   8.874 -0.0196 -1.8384 -0.7804
 5348TIP3   OH237678   0.598   3.698   8.202 -0.2704  0.3453  0.1121
 5348TIP3    H137679   0.508   3.719   8.177  0.4204  1.4989 -1.6693
 5348TIP3    H237680   0.639   3.670   8.120  0.9005 -0.4863  0.9653
 5349TIP3   OH237681   4.718   0.234   2.006 -0.2600  0.0581 -0.1506
 5349TIP3    H137682   4.743   0.159   2.059  0.1370  1.1370  1.2590
 5349TIP3    H237683   4.664   0.288   2.064 -2.4499 -0.2098 -1.8393
 5350TIP3   OH237684   1.048   2.982   8.691 -0.1111  0.5014 -0.6710
 5350TIP3    H137685   1.104   2.977   8.613  0.9240 -1.1578  0.1149
 5350TIP3    H237686   0.991   2.905   8.684  0.2195  0.1516  0.3711
 5351TIP3   OH237687   0.823   1.850   7.832  0.2556 -0.8555  0.0805
 5351TIP3    H137688   0.866   1.791   7.770 -0.8771 -0.4360 -1.1336
 5351TIP3    H237689   0.758   1.795   7.876 -1.3587 -0.3955 -1.6199
 5352TIP3   OH237690   5.279   0.556   9.118  0.1664 -0.0329 -0.0081
 5352TIP3    H137691   5.196   0.598   9.095  0.3619 -0.0332 -0.7548
 5352TIP3    H237692   5.265   0.522   9.206 -0.5001  0.2933  0.0198
 5353TIP3   OH237693   0.094   5.096   1.716 -0.6151  0.3919 -0.0412
 5353TIP3    H137694   0.048   5.052   1.645 -0.2770 -0.3418  0.1827
 5353TIP3    H237695   0.040   5.081   1.794 -0.1230 -0.2978  0.1826
 5354TIP3   OH237696   6.044   4.615   0.066  0.3006  0.3432  0.4332
 5354TIP3    H137697   6.079   4.530   0.037  1.0104  0.0600  2.0630
 5354TIP3    H237698   6.065   4.620   0.159  4.5177  4.3709 -0.3957
 5355TIP3   OH237699   2.862   2.466   1.411 -0.1005  0.0471 -0.0837
 5355TIP3    H137700   2.855   2.557   1.440 -1.8354  0.0723 -0.4404
 5355TIP3    H237701   2.785   2.454   1.355 -0.1095 -1.7495  0.2782
 5356TIP3   OH237702   6.080   1.686   7.505  0.1258 -0.0329 -0.2101
 5356TIP3    H137703   6.056   1.779   7.505  0.0410 -0.0546  0.0708
 5356TIP3    H237704   6.104   1.667   7.595 -0.5683 -0.4623 -0.1087
 5357TIP3   OH237705   4.715   0.101   7.070  0.2889 -0.6345 -0.3281
 5357TIP3    H137706   4.645   0.125   7.131  0.6169 -0.1615 -0.1378
 5357TIP3    H237707   4.785   0.164   7.086  0.7026 -1.0052 -0.6314
 5358TIP3   OH237708   4.638   0.089   0.454 -0.4174 -0.4891 -0.0503
 5358TIP3    H137709   4.674   0.177   0.442 -1.1172 -0.1202  0.4947
 5358TIP3    H237710   4.651   0.070   0.547 -2.1720 -0.0782  0.3110
 5359TIP3   OH237711   4.603   4.812   1.020 -0.4421 -0.0093 -0.2994
 5359TIP3    H137712   4.645   4.885   0.974 -0.2307  0.3583  0.4605
 5359TIP3    H237713   4.595   4.842   1.110 -1.8671 -0.2810 -0.3113
 5360TIP3   OH237714   1.673   2.031   7.248  0.2258 -0.1173 -0.0468
 5360TIP3    H137715   1.660   1.953   7.302  2.0803 -0.7232 -0.4053
 5360TIP3    H237716   1.613   2.020   7.175 -0.1522 -0.7895  0.3561
 5361TIP3   OH237717   5.330   1.700   1.028  0.0892  0.2951 -0.8902
 5361TIP3    H137718   5.260   1.736   0.973  0.2473  2.1165  0.0082
 5361TIP3    H237719   5.410   1.739   0.992  0.5130 -0.7754 -1.1253
 5362TIP3   OH237720   1.815   3.576   0.693 -0.0182 -0.8543  0.3961
 5362TIP3    H137721   1.731   3.590   0.649  0.7128 -0.4447 -0.9440
 5362TIP3    H237722   1.879   3.621   0.637  0.9203  0.1654  2.1929
 5363TIP3   OH237723   4.183   6.015   8.131  0.4410  0.2724  0.8797
 5363TIP3    H137724   4.225   6.060   8.057 -0.4162  1.5939  1.1611
 5363TIP3    H237725   4.185   6.080   8.202 -1.6210  0.2071  1.0386
 5364TIP3   OH237726   0.800   0.259   7.560  0.1385  0.5151  0.3459
 5364TIP3    H137727   0.886   0.219   7.546 -0.3133 -0.9348  1.3665
 5364TIP3    H237728   0.802   0.287   7.652 -1.6096 -2.8514  1.6303
 5365TIP3   OH237729   2.948   1.569   1.408  0.4952 -0.7518 -0.1371
 5365TIP3    H137730   2.935   1.567   1.313 -1.6864 -1.4548  0.1217
 5365TIP3    H237731   2.866   1.537   1.444  0.9973  0.2346  2.0354
 5366TIP3   OH237732   5.937   6.710   2.736 -0.2711 -0.1234  0.0686
 5366TIP3    H137733   6.031   6.694   2.749 -0.3305 -1.1911 -0.6561
 5366TIP3    H237734   5.896   6.626   2.757 -1.1620  0.5449  1.1310
 5367TIP3   OH237735   5.662   5.692   0.331  0.0020 -0.4609  0.0782
 5367TIP3    H137736   5.607   5.625   0.292  1.0460 -0.2044 -1.9413
 5367TIP3    H237737   5.618   5.775   0.310 -0.9125 -0.3981  1.9642
 5368TIP3   OH237738   3.249   0.831   8.237 -0.0113 -0.0650 -0.7362
 5368TIP3    H137739   3.237   0.794   8.149  1.5215 -0.0989 -0.9623
 5368TIP3    H237740   3.301   0.910   8.223  1.3185 -0.7305  0.2216
 5369TIP3   OH237741   6.632   5.985   8.026 -0.7407 -0.1683  0.1465
 5369TIP3    H137742   6.718   5.973   7.985  1.4867  1.2769  3.8461
 5369TIP3    H237743   6.604   5.897   8.049  0.1952 -0.6053 -0.3114
 5370TIP3   OH237744   1.141   3.469   1.112  0.1903 -0.2228  0.3012
 5370TIP3    H137745   1.085   3.502   1.182  2.0942 -1.2589  2.4071
 5370TIP3    H237746   1.132   3.374   1.116  0.2496 -0.3114 -0.9946
 5371TIP3   OH237747   0.955   5.254   0.176 -0.1193 -0.4552  0.4697
 5371TIP3    H137748   0.890   5.279   0.110  1.3849 -0.3578 -1.0529
 5371TIP3    H237749   0.933   5.163   0.198 -1.8010  0.1114  1.3222
 5372TIP3   OH237750   4.287   0.241   7.400  0.2462 -0.7251 -0.0509
 5372TIP3    H137751   4.273   0.279   7.313 -1.3863  0.2831  0.6059
 5372TIP3    H237752   4.370   0.279   7.429 -0.2933  0.7066 -0.2887
 5373TIP3   OH237753   3.223   0.896   1.782  0.1991 -0.0083  0.2225
 5373TIP3    H137754   3.298   0.955   1.782 -0.3068  0.6436  0.6918
 5373TIP3    H237755   3.261   0.809   1.768  0.9314  0.4404 -0.6925
 5374TIP3   OH237756   4.441   1.010   6.497 -0.0683 -0.1288  0.3322
 5374TIP3    H137757   4.385   0.943   6.459  0.7824 -1.8295  1.9366
 5374TIP3    H237758   4.527   0.995   6.459  0.3693 -0.6703  1.5026
 5375TIP3   OH237759   5.349   0.249   1.037 -0.0164 -0.8267 -0.3974
 5375TIP3    H137760   5.417   0.298   0.992  0.3332 -2.7957 -2.2175
 5375TIP3    H237761   5.381   0.238   1.126  1.1736 -0.1721 -0.7346
 5376TIP3   OH237762   4.629   6.103   7.266  0.3382 -0.4951 -0.0857
 5376TIP3    H137763   4.621   6.134   7.176  1.7948 -1.2788 -0.5153
 5376TIP3    H237764   4.599   6.177   7.319 -2.3292 -0.6576 -1.2013
 5377TIP3   OH237765   6.592   2.173   7.573 -0.1077  0.4292 -0.4893
 5377TIP3    H137766   6.518   2.218   7.614  0.7523  1.9865 -0.5967
 5377TIP3    H237767   6.659   2.170   7.641  0.4804  0.9205 -1.0340
 5378TIP3   OH237768   4.991   3.354   0.771 -0.2541 -0.8904  0.4191
 5378TIP3    H137769   4.956   3.411   0.839 -0.2986 -0.4034 -0.0065
 5378TIP3    H237770   4.915   3.328   0.719  0.0882  1.1403 -1.2440
 5379TIP3   OH237771   3.121   3.108   7.422 -0.4908  0.1660  0.1583
 5379TIP3    H137772   3.045   3.081   7.371  0.0963 -0.2061 -0.5392
 5379TIP3    H237773   3.103   3.199   7.446 -0.8675  0.2862 -0.5596
 5380TIP3   OH237774   5.104   2.064   7.663  0.0408  0.0375  0.3794
 5380TIP3    H137775   5.197   2.057   7.640  0.3500  2.6347  0.6041
 5380TIP3    H237776   5.060   2.083   7.580 -0.5904 -2.6052 -0.0001
 5381TIP3   OH237777   2.233   3.947   7.298 -0.0751 -0.1686 -0.3696
 5381TIP3    H137778   2.328   3.942   7.310 -0.1080 -2.2627 -0.5762
 5381TIP3    H237779   2.221   4.006   7.223  1.1212 -0.5053 -0.8433
 5382TIP3   OH237780   2.263   0.048   7.756  0.0612 -0.5352  0.1274
 5382TIP3    H137781   2.202  -0.017   7.790 -0.0684 -1.5575 -1.9315
 5382TIP3    H237782   2.338   0.044   7.815 -0.6260 -1.3744  0.9680
 5383TIP3   OH237783   0.525   4.938   1.330 -0.4743  0.0960 -0.1318
 5383TIP3    H137784   0.536   5.026   1.366  1.3905 -0.6882  1.4264
 5383TIP3    H237785   0.595   4.930   1.266 -1.2763  0.0666 -1.0249
 5384TIP3   OH237786   5.501   5.423   1.601  0.6017  0.1553 -0.1724
 5384TIP3    H137787   5.454   5.451   1.680  0.7971  2.8059 -0.8947
 5384TIP3    H237788   5.525   5.505   1.557  3.0741 -1.1454 -1.4933
 5385TIP3   OH237789   1.349   3.370   1.801  0.4553 -0.3830  0.0323
 5385TIP3    H137790   1.404   3.424   1.857  1.3162 -0.2582 -0.9051
 5385TIP3    H237791   1.370   3.397   1.712 -1.3272 -0.1620 -0.3562
 5386TIP3   OH237792   5.278   6.571   1.149 -0.1334 -0.3692  0.1208
 5386TIP3    H137793   5.291   6.556   1.055 -1.5274  0.4907 -0.2480
 5386TIP3    H237794   5.202   6.516   1.171 -0.1012 -0.2084  0.6394
 5387TIP3   OH237795   1.815   4.209   9.061  0.6533  0.2416  0.2006
 5387TIP3    H137796   1.897   4.240   9.022  0.6569 -2.1453 -1.9714
 5387TIP3    H237797   1.746   4.254   9.012  0.6617  0.3682  0.3053
 5388TIP3   OH237798   3.547   0.155   1.688 -0.9207  0.9578  0.1251
 5388TIP3    H137799   3.483   0.088   1.667 -0.7878  0.9514 -0.2748
 5388TIP3    H237800   3.553   0.154   1.784 -2.5146  1.8917  0.2711
 5389TIP3   OH237801   3.055   3.290   0.721 -0.1987 -0.1151 -0.2880
 5389TIP3    H137802   3.095   3.204   0.713 -0.1381  0.0474 -2.4597
 5389TIP3    H237803   2.961   3.274   0.719 -0.2385 -0.2398  1.3229
 5390TIP3   OH237804   3.929   3.320   1.670 -0.2158  0.1729 -0.5027
 5390TIP3    H137805   3.873   3.388   1.708 -2.4355 -0.7958 -1.8465
 5390TIP3    H237806   3.873   3.243   1.665  0.5820 -0.3339 -3.6355
 5391TIP3   OH237807   6.504   2.530   7.506 -0.1716 -0.3990  0.0868
 5391TIP3    H137808   6.551   2.496   7.582  0.1232 -1.3800 -0.5164
 5391TIP3    H237809   6.413   2.510   7.523  0.0963 -2.6776 -0.7915
 5392TIP3   OH237810   1.943   0.664   8.599  0.3136  0.5555 -0.1514
 5392TIP3    H137811   1.979   0.752   8.607 -0.8189  0.8885  1.8119
 5392TIP3    H237812   1.980   0.630   8.517  0.2236  3.0918 -1.3267
 5393TIP3   OH237813   1.292   1.251   8.607 -0.5359 -0.2332 -0.2659
 5393TIP3    H137814   1.316   1.177   8.662  0.8541 -0.2773 -0.8672
 5393TIP3    H237815   1.205   1.277   8.636  0.2439 -0.0924  2.1074
 5394TIP3   OH237816   5.007   1.315   7.373  0.5124  0.3326 -0.3776
 5394TIP3    H137817   4.981   1.405   7.351  0.5410  0.2994 -0.5492
 5394TIP3    H237818   4.927   1.276   7.409  0.6386  0.5853  0.1951
 5395TIP3   OH237819   5.012   2.180   7.424 -0.2998 -0.9002 -0.1257
 5395TIP3    H137820   5.033   2.131   7.344  0.3770  0.4292 -0.7935
 5395TIP3    H237821   5.008   2.271   7.395 -1.3484 -0.5290  1.1242
 5396TIP3   OH237822   6.733   2.889   1.791 -0.2409 -0.4652  0.8778
 5396TIP3    H137823   6.751   2.900   1.884  1.2924  0.2307  0.5385
 5396TIP3    H237824   6.744   2.795   1.775 -0.9130 -0.6487  1.4635
 5397TIP3   OH237825   6.228   2.359   1.026  0.3240 -0.0096  0.3955
 5397TIP3    H137826   6.258   2.269   1.018  2.0182  0.5917 -0.3138
 5397TIP3    H237827   6.259   2.388   1.111  2.1560  0.7096 -0.4635
 5398TIP3   OH237828   4.240   4.857   8.890 -0.2892  0.4834  0.4332
 5398TIP3    H137829   4.173   4.838   8.824 -0.0065  1.4517 -0.1575
 5398TIP3    H237830   4.245   4.777   8.943 -0.2867 -0.4575 -0.9330
 5399TIP3   OH237831   2.031   0.364   8.452 -0.0084  0.0971  0.8623
 5399TIP3    H137832   1.990   0.361   8.539  2.2173  2.2302  2.1370
 5399TIP3    H237833   2.107   0.306   8.459  0.1709  0.2630  0.3613
 5400TIP3   OH237834   1.255   0.058   8.895 -0.3814  0.0754  0.6332
 5400TIP3    H137835   1.184  -0.006   8.907 -0.4024 -0.0967 -0.3266
 5400TIP3    H237836   1.334   0.012   8.923 -0.7409  0.6115  2.7311
 5401TIP3   OH237837   0.897   1.651   9.040  0.2149 -0.6470  0.3504
 5401TIP3    H137838   0.943   1.734   9.050 -1.3912  0.1414  1.6736
 5401TIP3    H237839   0.944   1.590   9.097 -0.2449  0.1185  1.5959
 5402TIP3   OH237840   2.367   3.044   8.521  0.2677 -0.1021 -0.0112
 5402TIP3    H137841   2.347   3.011   8.433 -2.7126 -0.7099  0.7851
 5402TIP3    H237842   2.357   3.139   8.513  2.3467  0.1022 -0.7964
 5403TIP3   OH237843   3.398   0.191   1.349 -0.1929 -0.2323  1.0354
 5403TIP3    H137844   3.401   0.097   1.332 -0.4426 -0.2615  1.1473
 5403TIP3    H237845   3.342   0.199   1.426 -0.8120  0.0642  0.5674
 5404TIP3   OH237846   2.068   3.520   0.043  0.4145  0.0469  0.1249
 5404TIP3    H137847   2.051   3.442   0.097  1.9340 -0.2570  0.2151
 5404TIP3    H237848   2.048   3.491  -0.046 -1.5115  0.3653  0.4116
 5405TIP3   OH237849   5.543   3.597   8.185 -0.2731  0.4692 -0.4464
 5405TIP3    H137850   5.529   3.628   8.095  0.4274 -0.2155 -0.8046
 5405TIP3    H237851   5.615   3.649   8.219  0.0568  0.1223 -0.6026
 5406TIP3   OH237852   0.137   0.874   7.115  0.3249 -0.1114 -0.4455
 5406TIP3    H137853   0.136   0.955   7.165 -0.4080 -0.9826  1.0423
 5406TIP3    H237854   0.149   0.901   7.024 -1.5323  1.7723 -0.2020
 5407TIP3   OH237855   0.722   5.237   7.547 -0.4752  0.0222 -0.3963
 5407TIP3    H137856   0.703   5.189   7.466 -0.5736 -0.6480  0.0197
 5407TIP3    H237857   0.730   5.169   7.614 -0.3410  0.5693  0.1509
 5408TIP3   OH237858   2.641   3.797   1.305 -0.1387  0.4687  0.3325
 5408TIP3    H137859   2.683   3.823   1.386  1.7662 -1.7800  0.1906
 5408TIP3    H237860   2.614   3.706   1.320  0.8737 -0.2391 -1.7058
 5409TIP3   OH237861   0.190   0.610   6.720 -0.2839 -0.0714  0.0588
 5409TIP3    H137862   0.226   0.697   6.705 -0.3562 -0.1643 -0.7070
 5409TIP3    H237863   0.255   0.566   6.776 -1.0491  1.0125  1.8863
 5410TIP3   OH237864   2.972   0.354   8.292 -0.2265  0.4976 -0.2634
 5410TIP3    H137865   3.004   0.381   8.205 -1.7101  0.0866 -0.9750
 5410TIP3    H237866   2.984   0.259   8.294 -0.2466  0.4990 -0.0446
 5411TIP3   OH237867   3.493   3.494   6.551  0.0514 -0.5571 -0.4503
 5411TIP3    H137868   3.551   3.567   6.572 -1.6410  1.5521 -2.6405
 5411TIP3    H237869   3.421   3.501   6.614  0.0188 -0.4871 -0.4953
 5412TIP3   OH237870   0.639   5.600   9.049  0.2399  0.0432  0.0501
 5412TIP3    H137871   0.626   5.663   9.120  1.4532  0.6633 -0.2682
 5412TIP3    H237872   0.550   5.576   9.022 -0.2312  0.8221  0.8688
 5413TIP3   OH237873   1.941   4.108   1.252  0.1546  0.0624  0.1836
 5413TIP3    H137874   1.972   4.168   1.319  0.5382 -0.9395  0.9243
 5413TIP3    H237875   1.846   4.102   1.267  0.3300 -0.7082  1.1294
 5414TIP3   OH237876   2.255   4.519   1.921  0.2815  0.4320  0.5558
 5414TIP3    H137877   2.258   4.571   1.841  1.5835 -1.8778 -1.0164
 5414TIP3    H237878   2.347   4.510   1.946  0.0786 -0.8797  0.8974
 5415TIP3   OH237879   0.729   4.931   8.425 -0.2851  0.1762 -0.3427
 5415TIP3    H137880   0.696   4.870   8.359 -3.5334  0.6455  0.6810
 5415TIP3    H237881   0.754   5.009   8.375  2.6991 -1.3846 -1.5169
 5416TIP3   OH237882   4.928   5.332   8.273  0.0983  1.3290  0.2926
 5416TIP3    H137883   5.009   5.341   8.323  0.2586  0.0561  0.3023
 5416TIP3    H237884   4.901   5.421   8.254 -0.1920  1.9128  3.0023
 5417TIP3   OH237885   3.818   0.244   8.619 -0.4165  0.2988  0.1252
 5417TIP3    H137886   3.801   0.337   8.607  3.3568  1.2379  0.6745
 5417TIP3    H237887   3.880   0.240   8.692  0.7095 -2.5014 -0.8371
 5418TIP3   OH237888   1.582   6.127   1.281 -0.5313  0.0435 -0.3866
 5418TIP3    H137889   1.666   6.161   1.252  0.4564  0.3344  2.5156
 5418TIP3    H237890   1.526   6.205   1.288 -0.5714  0.0541 -0.7876
 5419TIP3   OH237891   4.497   3.501   8.732 -0.2701  0.1444 -0.4004
 5419TIP3    H137892   4.514   3.595   8.740 -0.7666  0.2127 -0.1165
 5419TIP3    H237893   4.506   3.467   8.821 -0.8572  0.0563 -0.3709
 5420TIP3   OH237894   5.321   1.396   8.375 -0.2297 -0.1485 -0.6233
 5420TIP3    H137895   5.332   1.481   8.333 -1.5738 -0.5801 -1.9098
 5420TIP3    H237896   5.410   1.368   8.396  0.2165  1.7414  0.2103
 5421TIP3   OH237897   5.214   3.101   8.453  0.3317 -0.2408 -0.3046
 5421TIP3    H137898   5.178   3.129   8.368  0.5226 -0.1153 -0.3436
 5421TIP3    H237899   5.293   3.154   8.464  0.3236 -0.2812 -0.0624
 5422TIP3   OH237900   6.473   2.337   2.464  0.4191  0.3837 -0.0430
 5422TIP3    H137901   6.480   2.288   2.382  1.3352 -0.6316  0.6183
 5422TIP3    H237902   6.434   2.421   2.438  0.0659 -0.1683 -1.4068
 5423TIP3   OH237903   4.036   2.885   0.191  0.2597 -0.0380  0.4382
 5423TIP3    H137904   4.050   2.810   0.134  0.2638  1.0043 -0.9688
 5423TIP3    H237905   3.942   2.902   0.187  0.3107  0.2608  0.4552
 5424TIP3   OH237906   0.360   3.459   1.432  0.2317 -0.2680  0.8473
 5424TIP3    H137907   0.367   3.408   1.351 -0.4074  1.7344 -0.5878
 5424TIP3    H237908   0.266   3.461   1.451  0.4544 -1.4336  2.1625
 5425TIP3   OH237909   4.781   1.254   7.054  0.3771 -0.1970  0.4998
 5425TIP3    H137910   4.799   1.273   6.962 -0.6843  0.6993  0.4591
 5425TIP3    H237911   4.858   1.287   7.101  0.4882  0.2296  0.0226
 5426TIP3   OH237912   4.113   0.985   8.529  0.1240  0.2332 -0.0953
 5426TIP3    H137913   4.039   1.033   8.567  1.6914  2.2146  0.6276
 5426TIP3    H237914   4.182   0.993   8.595  1.3371 -0.6075 -1.2310
 5427TIP3   OH237915   5.321   6.693   7.379 -0.3783 -0.1865 -0.0320
 5427TIP3    H137916   5.250   6.630   7.370 -1.5225  1.1789 -0.8988
 5427TIP3    H237917   5.317   6.746   7.299  1.6843 -0.1284 -0.1556
 5428TIP3   OH237918   1.213   0.297   9.019 -0.0987 -0.3372 -0.1843
 5428TIP3    H137919   1.300   0.328   9.046 -0.6177  1.6778 -0.6668
 5428TIP3    H237920   1.231   0.222   8.963  1.2983 -0.3862  0.2829
 5429TIP3   OH237921   0.727   6.004   9.089  0.2088 -0.0706  0.0272
 5429TIP3    H137922   0.774   5.944   9.030 -1.4532 -2.0007  0.5220
 5429TIP3    H237923   0.712   6.082   9.037  0.9345 -0.7607 -1.2754
 5430TIP3   OH237924   4.295   0.307   1.029 -0.1366 -0.4654  0.2222
 5430TIP3    H137925   4.380   0.331   1.064 -0.6999  0.2683  1.1329
 5430TIP3    H237926   4.294   0.211   1.031 -0.0053 -0.4620  1.9372
 5431TIP3   OH237927   0.778   2.815   7.779  0.1068 -0.0726  0.1570
 5431TIP3    H137928   0.699   2.836   7.828 -0.9224  0.2013 -1.5544
 5431TIP3    H237929   0.829   2.896   7.779  0.5952 -0.3511  1.5720
 5432TIP3   OH237930   5.449   2.990   0.757  0.6170 -0.1878  0.6419
 5432TIP3    H137931   5.407   3.067   0.719 -0.3394 -0.9017  0.1806
 5432TIP3    H237932   5.477   2.939   0.681  0.7639 -0.5394  0.9318
 5433TIP3   OH237933   3.097   5.494   1.824 -0.1079 -0.0485  0.0890
 5433TIP3    H137934   3.059   5.420   1.778 -0.5735  0.9726 -1.2311
 5433TIP3    H237935   3.038   5.509   1.898 -3.0989  2.1485 -2.4639
 5434TIP3   OH237936   3.646   6.359   7.744  0.2810 -0.0480  0.1925
 5434TIP3    H137937   3.668   6.350   7.652  0.8744  2.1859  0.0570
 5434TIP3    H237938   3.592   6.283   7.764 -0.7799  0.0010 -2.2718
 5435TIP3   OH237939   6.464   1.517   8.412 -0.3062 -0.1997 -0.5434
 5435TIP3    H137940   6.528   1.464   8.364 -0.1857  1.1195 -1.8912
 5435TIP3    H237941   6.494   1.607   8.400 -2.0074  0.3889 -0.5705
 5436TIP3   OH237942   5.365   4.341   8.699 -0.0234 -0.0796 -0.2083
 5436TIP3    H137943   5.338   4.250   8.714  0.2078 -0.0040  0.7291
 5436TIP3    H237944   5.347   4.385   8.783  0.0574  0.6930 -0.5895
 5437TIP3   OH237945   1.563   6.193   0.334 -0.0722 -0.1046 -0.0227
 5437TIP3    H137946   1.496   6.183   0.402 -0.7121  0.0897 -0.6113
 5437TIP3    H237947   1.643   6.159   0.374  0.5978  3.6719  2.3535
 5438TIP3   OH237948   0.935   6.027   7.314 -0.1151  0.0329  0.6183
 5438TIP3    H137949   0.874   6.052   7.245 -0.9202 -0.4493  1.1454
 5438TIP3    H237950   0.980   5.949   7.280  0.0426  0.2492  0.3282
 5439TIP3   OH237951   3.914   4.761   1.337  0.6086 -0.8163 -0.1187
 5439TIP3    H137952   3.927   4.671   1.309 -0.6276 -0.9766 -0.2664
 5439TIP3    H237953   3.835   4.758   1.391  1.0295  0.0436  0.5800
 5440TIP3   OH237954   1.642   4.101   0.854  0.3838  0.1083 -0.1988
 5440TIP3    H137955   1.642   4.029   0.791  0.2242 -0.2518  0.2068
 5440TIP3    H237956   1.732   4.133   0.854  0.2224  0.6208 -1.1780
 5441TIP3   OH237957   0.911   3.252   0.783  0.5565  0.1575  0.3025
 5441TIP3    H137958   0.925   3.183   0.718 -2.0755  1.0575 -1.3981
 5441TIP3    H237959   0.851   3.213   0.847 -0.6545  0.6741 -0.4718
 5442TIP3   OH237960   5.463   4.061   1.462 -0.1440 -0.1087 -0.6015
 5442TIP3    H137961   5.443   3.967   1.463  1.2166 -0.4343 -1.6534
 5442TIP3    H237962   5.433   4.092   1.547 -0.0791 -1.6144  0.0077
 5443TIP3   OH237963   1.299   4.555   8.096  0.0948 -0.1583  0.1503
 5443TIP3    H137964   1.319   4.469   8.060  2.0889 -0.2053  1.2008
 5443TIP3    H237965   1.295   4.613   8.019 -1.0925 -1.1144 -0.5458
 5444TIP3   OH237966   5.336   3.999   1.142  0.0536 -0.0447 -0.6527
 5444TIP3    H137967   5.391   4.068   1.103  0.1223  0.2846  0.0162
 5444TIP3    H237968   5.380   3.917   1.118 -0.3038  0.1017 -1.8848
 5445TIP3   OH237969   1.350   4.322   7.519  0.4948  0.0598 -0.3525
 5445TIP3    H137970   1.321   4.322   7.428  0.0432  0.0519 -0.2103
 5445TIP3    H237971   1.338   4.412   7.549  1.8032  0.3570 -0.6571
 5446TIP3   OH237972   0.739   3.469   8.549 -0.3847 -0.2204 -0.0469
 5446TIP3    H137973   0.784   3.423   8.477  0.0126  1.9020 -1.2264
 5446TIP3    H237974   0.662   3.509   8.508 -0.4263  0.6106  0.8147
 5447TIP3   OH237975   4.870   3.523   8.660  0.1078  0.4670 -0.1419
 5447TIP3    H137976   4.802   3.459   8.640 -1.1078  1.5203  0.4603
 5447TIP3    H237977   4.943   3.500   8.602  0.0375 -1.9327  0.5977
 5448TIP3   OH237978   3.028   1.037   7.653  0.3279 -0.2309 -0.2251
 5448TIP3    H137979   2.973   0.988   7.714  1.6729 -0.9139  0.4665
 5448TIP3    H237980   2.979   1.118   7.637 -0.7339 -0.6845  0.5984
 5449TIP3   OH237981   1.227   5.821   0.532 -0.4561  0.3062  0.2373
 5449TIP3    H137982   1.153   5.863   0.575 -1.2566 -1.2205  0.4240
 5449TIP3    H237983   1.221   5.729   0.558 -0.6844 -0.6000 -2.6484
 5450TIP3   OH237984   0.845   5.072   7.796 -0.5854 -0.3406 -0.4622
 5450TIP3    H137985   0.809   4.985   7.779 -2.1742 -0.2761  2.0459
 5450TIP3    H237986   0.924   5.056   7.847  0.2511 -0.3054 -1.6829
 5451TIP3   OH237987   3.548   2.504   8.306 -0.0919  0.2977  0.1650
 5451TIP3    H137988   3.479   2.460   8.357  1.5241 -0.1216  2.1602
 5451TIP3    H237989   3.514   2.591   8.289 -1.4039 -0.1344  0.4549
 5452TIP3   OH237990   3.999   5.230   2.575  0.5798 -0.0218 -0.8320
 5452TIP3    H137991   3.994   5.260   2.665  1.0137 -1.2893 -0.3577
 5452TIP3    H237992   3.920   5.177   2.563  0.9617 -0.5910 -0.8939
 5453TIP3   OH237993   5.032   4.563   0.547  0.1478 -0.2960  0.1645
 5453TIP3    H137994   4.965   4.627   0.525  0.1392 -0.6236 -0.8152
 5453TIP3    H237995   5.001   4.481   0.508  0.6633 -0.6543  0.4936
 5454TIP3   OH237996   5.255   2.691   7.769 -0.3773 -0.4261 -0.7915
 5454TIP3    H137997   5.239   2.670   7.677 -0.4214  0.6833 -1.0492
 5454TIP3    H237998   5.350   2.703   7.774 -0.5414  1.2541 -1.1006
 5455TIP3   OH237999   2.811   5.402   7.718 -0.0585  0.1995 -0.0539
 5455TIP3    H138000   2.868   5.418   7.643 -0.3560 -0.4933 -0.4383
 5455TIP3    H238001   2.838   5.467   7.783 -0.7272  1.7340 -1.2477
 5456TIP3   OH238002   3.492   1.837   7.060  0.3387  0.1214  0.6685
 5456TIP3    H138003   3.549   1.914   7.053 -0.7875  0.9442  0.2255
 5456TIP3    H238004   3.407   1.872   7.087 -1.0121 -0.5483 -2.3092
 5457TIP3   OH238005   1.056   5.145   1.803 -0.1620  0.0341  0.1057
 5457TIP3    H138006   0.975   5.196   1.811 -0.3199 -0.4368  2.1113
 5457TIP3    H238007   1.073   5.113   1.892  0.1669 -3.0478 -0.9387
 5458TIP3   OH238008   5.601   0.056   0.646 -0.4865  0.4768 -0.4405
 5458TIP3    H138009   5.639   0.115   0.581  1.3393 -0.5132 -0.3097
 5458TIP3    H238010   5.633   0.090   0.730 -0.4451  0.0350 -0.2757
 5459TIP3   OH238011   5.393   2.048   7.310 -0.1172  0.0191 -0.0479
 5459TIP3    H138012   5.334   1.974   7.323  0.8350 -1.1573 -1.9804
 5459TIP3    H238013   5.356   2.096   7.235 -0.6475  1.4677  1.0895
 5460TIP3   OH238014   2.207   2.813   8.544 -0.3834  0.1042 -0.3500
 5460TIP3    H138015   2.267   2.887   8.549  1.1494 -1.0737 -0.4398
 5460TIP3    H238016   2.174   2.801   8.633 -0.0560  0.4313 -0.1888
 5461TIP3   OH238017   1.176   2.043   6.972 -0.1850  0.3012 -0.0271
 5461TIP3    H138018   1.108   2.089   6.923 -0.1795  0.3873  0.0464
 5461TIP3    H238019   1.146   1.951   6.973 -0.2761  0.3304 -0.0367
 5462TIP3   OH238020   1.276   1.020   1.600 -0.5573  0.5385  0.5756
 5462TIP3    H138021   1.224   1.010   1.680  0.2426  2.9959  1.4826
 5462TIP3    H238022   1.316   1.106   1.608 -1.5064  1.4866 -3.1215
 5463TIP3   OH238023   2.799   5.781   9.103 -0.2141 -0.5912  0.3379
 5463TIP3    H138024   2.793   5.825   9.018 -1.2736 -2.5265 -0.6639
 5463TIP3    H238025   2.712   5.742   9.116  0.3513 -1.4874  1.6623
 5464TIP3   OH238026   4.291   0.614   1.668 -0.2291  0.8787  0.3119
 5464TIP3    H138027   4.225   0.641   1.604 -0.8310  0.4924  0.7575
 5464TIP3    H238028   4.262   0.527   1.696 -0.1240  1.1542  1.3014
 5465TIP3   OH238029   5.934   0.364   0.314  0.1019  0.1921  0.3749
 5465TIP3    H138030   6.016   0.412   0.297 -0.0813 -0.1969 -1.8868
 5465TIP3    H238031   5.866   0.421   0.278 -0.3456 -0.6553 -0.1387
 5466TIP3   OH238032   4.007   6.729   2.330 -0.4596 -0.2417  0.2288
 5466TIP3    H138033   3.948   6.804   2.322  0.5855  0.4365 -1.3477
 5466TIP3    H238034   4.065   6.734   2.255  1.1048 -1.3729  1.2822
 5467TIP3   OH238035   6.389   3.044   7.301  0.0332 -0.2645  0.0101
 5467TIP3    H138036   6.364   3.126   7.344 -1.3647 -0.3999 -0.4820
 5467TIP3    H238037   6.440   3.071   7.225 -1.3565  0.2512 -0.7820
 5468TIP3   OH238038   5.536   3.981   8.379  0.0845 -0.4724  0.4134
 5468TIP3    H138039   5.512   3.901   8.425 -0.1825 -0.0945  0.9412
 5468TIP3    H238040   5.529   3.959   8.286 -0.5395 -0.8945  0.5601
 5469TIP3   OH238041   6.320   5.989   1.530  0.4463 -0.0477  0.0750
 5469TIP3    H138042   6.338   5.994   1.436  1.3885 -0.5585  0.2245
 5469TIP3    H238043   6.361   5.908   1.558  1.8216  1.0345  1.2952
 5470TIP3   OH238044   3.961   5.548   7.659  0.5811  0.1209  0.1359
 5470TIP3    H138045   3.912   5.624   7.688 -0.4724 -0.2632 -0.5736
 5470TIP3    H238046   3.918   5.474   7.702  1.6714 -0.0858  0.9196
 5471TIP3   OH238047   0.565   5.810   1.025 -0.6476  0.0207 -0.4856
 5471TIP3    H138048   0.618   5.748   0.975 -1.7876 -0.5337 -1.0482
 5471TIP3    H238049   0.629   5.862   1.074  0.3728 -1.1447 -0.5240
 5472TIP3   OH238050   1.164   2.257   7.589 -0.4402 -0.2395  0.4129
 5472TIP3    H138051   1.091   2.308   7.552 -0.5028  0.1790  1.0893
 5472TIP3    H238052   1.121   2.191   7.644 -0.3781 -1.3661 -0.8661
 5473TIP3   OH238053   5.168   3.005   7.073 -0.0914  0.3430  0.0265
 5473TIP3    H138054   5.140   3.096   7.084 -2.8016 -0.6699  2.8226
 5473TIP3    H238055   5.228   2.989   7.146  0.2287 -0.1900 -0.3451
 5474TIP3   OH238056   3.557   4.286   2.586 -0.1826 -0.0454 -0.4166
 5474TIP3    H138057   3.621   4.253   2.522 -0.2703 -0.8590 -0.0917
 5474TIP3    H238058   3.493   4.216   2.595 -1.5599  1.0595 -1.3019
 5475TIP3   OH238059   2.234   4.780   6.996 -0.5958  0.0687 -0.2521
 5475TIP3    H138060   2.324   4.801   6.971 -0.7111  2.8930  1.3160
 5475TIP3    H238061   2.241   4.695   7.040  2.3583  2.2849  4.3714
 5476TIP3   OH238062   3.196   2.740   8.053  0.1362  0.4519  0.1671
 5476TIP3    H138063   3.140   2.814   8.030  1.4534  1.4566  0.0576
 5476TIP3    H238064   3.203   2.689   7.972  0.1764  0.8628 -0.0921
 5477TIP3   OH238065   4.664   2.472   1.406 -0.0591 -1.0979 -0.4470
 5477TIP3    H138066   4.673   2.407   1.336  2.9161 -0.8644 -0.4235
 5477TIP3    H238067   4.754   2.499   1.425 -1.0325  1.4189  1.0879
 5478TIP3   OH238068   4.304   1.843   7.479  0.1215  0.0133  0.0064
 5478TIP3    H138069   4.346   1.847   7.565 -1.9342 -0.0028  1.0780
 5478TIP3    H238070   4.273   1.752   7.473 -5.5254  1.3597  2.3509
 5479TIP3   OH238071   5.723   0.974   1.322  0.2056 -0.2944 -0.2355
 5479TIP3    H138072   5.790   1.042   1.332  2.8673 -2.6894 -0.2790
 5479TIP3    H238073   5.745   0.932   1.238 -2.4840 -0.1409 -1.1140
 5480TIP3   OH238074   3.832   5.313   7.750  0.3082  0.0576  0.4047
 5480TIP3    H138075   3.835   5.253   7.676  0.6494 -0.1680  0.6012
 5480TIP3    H238076   3.752   5.289   7.797  0.7620 -0.6588  0.8251
 5481TIP3   OH238077   2.895   0.552   8.488  0.0439 -0.4030 -0.1990
 5481TIP3    H138078   2.864   0.504   8.411  0.5190 -0.7902 -0.1523
 5481TIP3    H238079   2.981   0.585   8.464  0.5713 -1.2580  0.4597
 5482TIP3   OH238080   0.665   5.471   7.666  0.3188 -0.2934  0.0720
 5482TIP3    H138081   0.572   5.482   7.647  0.7457  0.6716 -1.6985
 5482TIP3    H238082   0.685   5.383   7.634 -0.1960 -0.9712  1.5317
 5483TIP3   OH238083   4.498   5.878   7.516 -0.1718  0.1385 -0.0684
 5483TIP3    H138084   4.574   5.866   7.458  1.1983  1.7974  1.2731
 5483TIP3    H238085   4.520   5.828   7.594 -1.3764 -0.9294 -0.3793
 5484TIP3   OH238086   4.909   0.328   0.302 -0.2018 -0.1626 -0.2417
 5484TIP3    H138087   4.854   0.397   0.339 -0.2331 -0.2155 -0.1891
 5484TIP3    H238088   4.936   0.276   0.378  1.1374  0.7287 -0.0807
 5485TIP3   OH238089   1.196   1.034   1.165 -0.1813 -0.6505 -0.2715
 5485TIP3    H138090   1.279   0.990   1.147 -0.1796 -1.2799  1.0949
 5485TIP3    H238091   1.132   0.963   1.168 -0.4973 -0.3540  0.1741
 5486TIP3   OH238092   3.173   0.848   1.333 -0.2304 -0.0860 -0.5636
 5486TIP3    H138093   3.179   0.937   1.367 -0.2754 -0.0224 -0.7214
 5486TIP3    H238094   3.080   0.830   1.326 -0.2205  0.0871 -1.1360
 5487TIP3   OH238095   4.315   5.886   7.072  0.7659  0.8356  0.1665
 5487TIP3    H138096   4.323   5.918   7.162  0.2964  0.0202  0.5128
 5487TIP3    H238097   4.377   5.814   7.066 -1.1489 -0.9703  0.7435
 5488TIP3   OH238098   2.349   2.266   7.211 -0.0458 -0.0072  0.0958
 5488TIP3    H138099   2.423   2.286   7.269  0.8940  1.9847 -1.6201
 5488TIP3    H238100   2.273   2.262   7.269  1.2516 -1.2491  1.8106
 5489TIP3   OH238101   0.160   4.819   7.410 -0.6546  0.1840 -0.2597
 5489TIP3    H138102   0.185   4.734   7.446 -0.3925  0.1495 -0.5209
 5489TIP3    H238103   0.071   4.833   7.443 -0.7469 -0.2480 -0.3130
 5490TIP3   OH238104   0.723   5.609   0.874 -0.5486  0.0051  0.3168
 5490TIP3    H138105   0.714   5.614   0.778  0.1354 -1.1878  0.1740
 5490TIP3    H238106   0.814   5.634   0.890 -0.0269 -1.8162  0.4382
 5491TIP3   OH238107   4.396   6.481   1.682  0.0945 -0.2687  0.1542
 5491TIP3    H138108   4.367   6.475   1.773 -0.6039  0.1554 -0.0385
 5491TIP3    H238109   4.398   6.391   1.651  0.8193 -0.4627  0.7351
 5492TIP3   OH238110   6.367   1.700   7.325  0.1214  0.1497  0.5416
 5492TIP3    H138111   6.406   1.655   7.400 -0.1139  0.9853  1.1902
 5492TIP3    H238112   6.397   1.791   7.334  3.4659 -0.4041 -2.6334
 5493TIP3   OH238113   4.740   2.537   0.743  0.2556  0.2518  0.3895
 5493TIP3    H138114   4.754   2.443   0.729 -2.2988 -0.3035  0.9252
 5493TIP3    H238115   4.815   2.566   0.794  0.4920 -1.8001  1.2823
 5494TIP3   OH238116   1.382   3.216   1.127 -0.0282 -0.1282  0.2384
 5494TIP3    H138117   1.475   3.201   1.140 -0.3996 -1.4307  1.6230
 5494TIP3    H238118   1.378   3.280   1.055  1.9237  0.5598  0.6821
 5495TIP3   OH238119   2.432   3.814   8.764  0.2020 -0.2681 -0.6660
 5495TIP3    H138120   2.521   3.795   8.794  0.5515  2.0480 -0.0223
 5495TIP3    H238121   2.382   3.827   8.844 -0.8895 -1.9802 -1.0110
 5496TIP3   OH238122   4.869   1.342   6.780  0.0185  0.3985  0.5646
 5496TIP3    H138123   4.958   1.337   6.747  0.3160  1.3437  1.1917
 5496TIP3    H238124   4.815   1.358   6.702  0.4867  0.6056  0.2810
 5497TIP3   OH238125   3.122   4.702   8.735 -0.3952  0.1894 -0.3261
 5497TIP3    H138126   3.190   4.636   8.718 -1.7593 -1.6123  0.7960
 5497TIP3    H238127   3.170   4.780   8.763  1.3019 -0.1664 -2.0221
 5498TIP3   OH238128   0.170   0.335   8.906 -0.0703 -0.3012  0.4952
 5498TIP3    H138129   0.241   0.358   8.847 -1.6424  0.8857 -1.0333
 5498TIP3    H238130   0.176   0.240   8.916  0.7904 -0.4152 -0.8726
 5499TIP3   OH238131   3.079   1.349   1.825  0.0217 -0.0615  0.5041
 5499TIP3    H138132   3.112   1.416   1.885  0.4369  0.9763 -0.8362
 5499TIP3    H238133   3.157   1.300   1.798  0.1391  0.7260 -0.6576
 5500TIP3   OH238134   6.639   0.911   0.168  0.1817 -0.9070  0.0082
 5500TIP3    H138135   6.569   0.976   0.162 -0.2185 -1.3221  0.1697
 5500TIP3    H238136   6.622   0.850   0.097  0.7884 -0.6217 -0.3930
 5501TIP3   OH238137   0.372   1.232   2.056  0.0773  0.4683  0.1693
 5501TIP3    H138138   0.436   1.162   2.050 -1.5341 -1.0140 -0.8033
 5501TIP3    H238139   0.318   1.208   2.132 -1.2589 -0.0858 -0.9145
 5502TIP3   OH238140   5.611   4.916   8.630 -0.5667 -0.0509 -0.5409
 5502TIP3    H138141   5.684   4.972   8.657  0.5579 -1.6707 -0.0758
 5502TIP3    H238142   5.593   4.862   8.707 -1.8372 -0.1090 -0.8700
 5503TIP3   OH238143   1.370   1.993   8.889 -0.1295  0.2523 -0.3480
 5503TIP3    H138144   1.429   1.984   8.814  0.2009 -1.2357  0.0721
 5503TIP3    H238145   1.398   2.074   8.932  0.1398  0.7433 -1.4063
 5504TIP3   OH238146   3.733   1.300   0.818 -0.0222 -0.5225  0.2238
 5504TIP3    H138147   3.732   1.366   0.750  2.2502 -1.4414 -0.8312
 5504TIP3    H238148   3.781   1.341   0.890  0.7301 -0.7376 -0.1434
 5505TIP3   OH238149   1.694   0.349   8.074 -0.3486 -0.1019 -0.0915
 5505TIP3    H138150   1.782   0.366   8.107 -0.8641 -0.1167  1.3701
 5505TIP3    H238151   1.705   0.284   8.005  0.6626 -1.0152  0.9102
 5506TIP3   OH238152   6.068   1.666   8.650  0.2601  0.3009 -0.0559
 5506TIP3    H138153   6.161   1.644   8.653 -0.0116 -0.8241  1.7744
 5506TIP3    H238154   6.032   1.610   8.581  0.8141  0.2545 -0.3117
 5507TIP3   OH238155   4.846   1.513   8.841 -0.5239 -0.1890  0.6767
 5507TIP3    H138156   4.899   1.594   8.843 -1.5753  0.5148  0.7885
 5507TIP3    H238157   4.781   1.529   8.773 -1.4015 -0.5104  1.4202
 5508TIP3   OH238158   3.265   1.330   8.515 -0.1230 -0.3612  0.0380
 5508TIP3    H138159   3.253   1.271   8.590 -1.7153 -0.0608  0.0609
 5508TIP3    H238160   3.356   1.318   8.490 -0.3455 -2.8043  0.0801
 5509TIP3   OH238161   5.259   6.106   8.466  0.6342 -0.4017 -0.2283
 5509TIP3    H138162   5.279   6.129   8.375  2.5439  2.2631  0.7468
 5509TIP3    H238163   5.310   6.026   8.482  0.5058 -0.7407 -1.3796
 5510TIP3   OH238164   4.294   4.613   7.212  0.2959  0.0030  0.5631
 5510TIP3    H138165   4.387   4.622   7.233  0.3561 -0.5561  0.5306
 5510TIP3    H238166   4.272   4.695   7.168  1.6019 -1.1320 -2.4529
 5511TIP3   OH238167   6.077   5.610   8.203  0.6967 -0.2265  0.0484
 5511TIP3    H138168   6.052   5.522   8.230 -1.2463  0.0786 -0.5377
 5511TIP3    H238169   6.126   5.646   8.277  2.3445 -2.0759 -0.0693
 5512TIP3   OH238170   4.991   2.849   8.195  0.0590 -0.6212 -0.1627
 5512TIP3    H138171   5.045   2.836   8.117  0.6988 -1.0569  0.3459
 5512TIP3    H238172   4.923   2.782   8.189  0.4004 -0.9725 -0.0947
 5513TIP3   OH238173   4.068   0.413   0.918 -0.0967 -0.6426  0.7958
 5513TIP3    H138174   4.140   0.448   0.970  0.4207  1.5370 -1.2088
 5513TIP3    H238175   4.061   0.322   0.945  1.8326 -0.2911  2.7477
 5514TIP3   OH238176   0.278   2.644   7.554  0.4273 -0.5937  0.8846
 5514TIP3    H138177   0.370   2.632   7.531  0.3312  0.3662 -0.0563
 5514TIP3    H238178   0.231   2.585   7.495  0.2144  1.5393 -1.2270
 5515TIP3   OH238179   3.721   4.671   1.512  0.3253 -0.3151  0.1777
 5515TIP3    H138180   3.713   4.579   1.539 -0.4768 -0.1695  0.4603
 5515TIP3    H238181   3.692   4.721   1.588 -1.0945  0.1189 -0.6111
 5516TIP3   OH238182   0.390   4.731   0.017  0.2502 -0.1871 -0.2149
 5516TIP3    H138183   0.462   4.720  -0.045  0.6379 -0.6118  0.2982
 5516TIP3    H238184   0.323   4.779  -0.032  1.4796  1.6178 -0.2365
 5517TIP3   OH238185   3.394   3.664   7.684  0.2933  0.0130 -0.2758
 5517TIP3    H138186   3.460   3.595   7.684 -1.0882 -1.3713 -0.5815
 5517TIP3    H238187   3.394   3.697   7.594 -0.2306 -0.8122 -0.5910
 5518TIP3   OH238188   0.392   3.622   7.704 -0.7291 -0.5161 -0.7177
 5518TIP3    H138189   0.354   3.588   7.785 -2.0260  0.9357 -0.6537
 5518TIP3    H238190   0.333   3.591   7.635  0.3415 -1.7066 -1.1220
 5519TIP3   OH238191   1.258   1.178   6.466 -0.1857  0.4617 -0.4774
 5519TIP3    H138192   1.181   1.184   6.524 -0.3020 -1.7752 -0.2842
 5519TIP3    H238193   1.292   1.090   6.482  2.0604  1.1684 -1.0532
 5520TIP3   OH238194   1.785   4.497   0.796 -0.1055 -0.1071  0.5513
 5520TIP3    H138195   1.823   4.524   0.712  0.0203 -1.0128  0.2982
 5520TIP3    H238196   1.693   4.482   0.777 -0.3762  1.0042  0.9056
 5521TIP3   OH238197   1.187   1.815   8.224  0.0868  0.1983  0.4760
 5521TIP3    H138198   1.262   1.872   8.238 -0.2850  0.8002  0.0191
 5521TIP3    H238199   1.111   1.870   8.241 -0.2735 -0.2152  0.2253
 5522TIP3   OH238200   6.706   4.519   0.787 -0.4838 -0.0777 -0.1170
 5522TIP3    H138201   6.799   4.500   0.800 -0.3091  0.0377 -1.1100
 5522TIP3    H238202   6.689   4.494   0.696 -1.4477 -0.1721  0.0758
 5523TIP3   OH238203   4.823   6.731   8.231  0.1144  0.1166  0.0286
 5523TIP3    H138204   4.839   6.699   8.142  0.3937  1.3601 -0.3872
 5523TIP3    H238205   4.859   6.820   8.232 -1.2396  0.6955  0.9302
 5524TIP3   OH238206   6.538   6.091   8.441 -0.4015  0.1602 -0.1101
 5524TIP3    H138207   6.593   6.169   8.446 -0.7299  0.7482 -3.3654
 5524TIP3    H238208   6.464   6.111   8.499  0.3819  1.4734  0.5002
 5525TIP3   OH238209   0.721   0.267   8.514  0.4319 -0.0372  0.6641
 5525TIP3    H138210   0.677   0.234   8.436  3.4984  1.1770 -1.7668
 5525TIP3    H238211   0.707   0.361   8.512 -2.1036 -0.2140  3.4935
 5526TIP3   OH238212   1.759   3.608   8.097  0.4104 -0.4086 -0.0316
 5526TIP3    H138213   1.788   3.552   8.169 -1.2828 -0.3368  0.7633
 5526TIP3    H238214   1.671   3.636   8.122 -0.0671 -0.0335 -1.9305
 5527TIP3   OH238215   1.568   3.299   8.159  0.4140 -0.1533  0.4337
 5527TIP3    H138216   1.656   3.337   8.166  0.0345  1.2442 -1.5284
 5527TIP3    H238217   1.551   3.296   8.065 -1.0942 -1.7619  0.7108
 5528TIP3   OH238218   1.875   4.751   0.043 -0.3050  0.0799  0.7276
 5528TIP3    H138219   1.925   4.676   0.008 -0.0672  0.8039 -0.5599
 5528TIP3    H238220   1.940   4.821   0.050 -0.8241  0.5878  0.5038
 5529TIP3   OH238221   5.513   6.544   0.719  0.7726 -0.2109 -0.4421
 5529TIP3    H138222   5.584   6.480   0.729  0.3662 -0.6844 -0.5809
 5529TIP3    H238223   5.553   6.617   0.670  1.4340 -0.0277  0.3556
 5530TIP3   OH238224   3.704   1.972   7.229 -0.0792  0.5665 -0.0360
 5530TIP3    H138225   3.668   1.884   7.224  0.7341  0.2338 -0.1660
 5530TIP3    H238226   3.791   1.961   7.269 -0.4564  1.4469  1.0851
 5531TIP3   OH238227   4.675   2.739   1.483  0.1954 -0.0081 -0.3209
 5531TIP3    H138228   4.595   2.717   1.435 -1.0294 -0.6317  1.8605
 5531TIP3    H238229   4.687   2.666   1.544  0.2730  1.8092  1.9794
 5532TIP3   OH238230   6.704   0.543   8.299  0.3346  0.2643  0.0784
 5532TIP3    H138231   6.683   0.553   8.392  0.0265  0.7946 -0.0426
 5532TIP3    H238232   6.762   0.616   8.279 -0.5576  0.8590 -0.4186
 5533TIP3   OH238233   1.123   6.595   1.334  0.1149  0.9575 -0.7086
 5533TIP3    H138234   1.149   6.652   1.262  1.2929  1.3587  0.0056
 5533TIP3    H238235   1.124   6.652   1.411  3.2518 -0.3669  0.3793
 5534TIP3   OH238236   5.567   5.990   7.721 -0.0972  0.2085  0.2630
 5534TIP3    H138237   5.522   6.074   7.732  0.7703  0.6227  0.8116
 5534TIP3    H238238   5.551   5.944   7.803 -0.5006 -0.1239 -0.0043
 5535TIP3   OH238239   2.824   1.967   8.376 -0.2093 -0.8385 -0.3878
 5535TIP3    H138240   2.915   1.995   8.362 -0.0458 -1.4190 -0.5262
 5535TIP3    H238241   2.818   1.951   8.470 -0.4417  0.1046 -0.2268
 5536TIP3   OH238242   5.347   2.593   6.430  0.1810  0.6335 -0.6219
 5536TIP3    H138243   5.303   2.619   6.349  2.1367  1.0139 -1.6149
 5536TIP3    H238244   5.381   2.506   6.413  0.2370  0.5369 -0.0433
 5537TIP3   OH238245   0.588   0.821   8.130 -0.1455 -0.1454  0.1292
 5537TIP3    H138246   0.670   0.777   8.149  0.0419  0.0551 -0.2047
 5537TIP3    H238247   0.592   0.841   8.037  0.2830  1.6058  0.4907
 5538TIP3   OH238248   1.651   4.331   8.909 -0.5895  0.1395  0.3932
 5538TIP3    H138249   1.598   4.397   8.863 -0.5568  0.1901  0.4284
 5538TIP3    H238250   1.723   4.313   8.849  0.0099  0.9570  0.8575
 5539TIP3   OH238251   6.082   1.824   6.806  0.0155 -0.0014 -0.2411
 5539TIP3    H138252   6.141   1.772   6.752  0.7730  1.1794 -0.6056
 5539TIP3    H238253   5.999   1.825   6.757 -0.0917 -1.0534 -0.0965
 5540TIP3   OH238254   4.917   5.424   2.227  0.3827 -0.0846 -0.4251
 5540TIP3    H138255   4.893   5.347   2.177 -0.0119 -1.7612  2.1884
 5540TIP3    H238256   4.924   5.394   2.317  1.0416  2.7732  0.5986
 5541TIP3   OH238257   0.988   2.352   1.032 -0.0483 -0.4289  0.3316
 5541TIP3    H138258   1.037   2.380   0.954  0.5724  1.4981  1.3361
 5541TIP3    H238259   1.015   2.262   1.046  0.3516 -0.5952 -1.2851
 5542TIP3   OH238260   2.532   5.206   7.274  0.1741  0.0456  1.1441
 5542TIP3    H138261   2.560   5.264   7.346 -0.7529  0.5239  1.1488
 5542TIP3    H238262   2.510   5.266   7.203  1.0339 -0.4284  0.4728
 5543TIP3   OH238263   3.924   1.793   6.853 -0.1371  0.4308  0.3222
 5543TIP3    H138264   3.976   1.736   6.797  0.4784 -0.7113  1.9707
 5543TIP3    H238265   3.842   1.805   6.805  1.3220  1.7571 -2.0349
 5544TIP3   OH238266   6.737   4.804   2.367  0.4908 -0.1918 -0.3899
 5544TIP3    H138267   6.718   4.755   2.287 -0.3261 -4.8434  2.2695
 5544TIP3    H238268   6.655   4.849   2.388  0.5813  0.7058 -1.8285
 5545TIP3   OH238269   0.922   6.149   2.053 -0.1491 -0.5043 -0.2312
 5545TIP3    H138270   0.861   6.079   2.032  1.1367 -1.7861  0.1775
 5545TIP3    H238271   0.977   6.158   1.975  1.9654 -2.4424  0.9264
 5546TIP3   OH238272   2.070   4.380   7.800  0.1527 -0.2354  0.2583
 5546TIP3    H138273   2.080   4.361   7.893  1.9921 -1.0051 -0.0381
 5546TIP3    H238274   2.123   4.458   7.785 -2.1755  1.4434  0.2672
 5547TIP3   OH238275   0.095   4.512   2.657 -0.5962 -0.0256 -0.2339
 5547TIP3    H138276   0.020   4.478   2.705 -0.6324 -0.4508 -0.5792
 5547TIP3    H238277   0.137   4.574   2.717 -0.6896 -0.4795  0.3099
 5548TIP3   OH238278   1.963   5.208   8.976  0.0753 -0.1525 -0.0319
 5548TIP3    H138279   1.911   5.192   8.898  0.6541  0.7877 -0.6427
 5548TIP3    H238280   2.054   5.204   8.946  0.2970  0.8281  0.4417
 5549TIP3   OH238281   2.153   4.285   0.616  0.1770  0.1662  0.1319
 5549TIP3    H138282   2.134   4.192   0.612  0.7516  0.0728 -2.3352
 5549TIP3    H238283   2.208   4.296   0.694 -1.1874 -1.2487  1.3513
 5550TIP3   OH238284   4.855   6.181   0.232 -0.4887 -0.5216 -0.0056
 5550TIP3    H138285   4.940   6.210   0.264  0.4552 -0.1732 -2.5345
 5550TIP3    H238286   4.811   6.262   0.204 -0.8442 -0.8563 -0.4356
 5551TIP3   OH238287   4.150   3.023   6.711 -0.4784  0.5382  0.7230
 5551TIP3    H138288   4.128   3.072   6.790 -0.2309 -0.8021  1.6501
 5551TIP3    H238289   4.239   2.992   6.726 -0.2229  0.7384 -0.3298
 5552TIP3   OH238290   3.696   0.108   0.575  0.3243  0.5037 -0.1925
 5552TIP3    H138291   3.621   0.049   0.580  0.8515 -0.0703  2.2412
 5552TIP3    H238292   3.710   0.137   0.665  3.7012 -0.2832 -0.3341
 5553TIP3   OH238293   0.618   2.624   0.665  0.1525  0.3545  0.4492
 5553TIP3    H138294   0.683   2.588   0.725  1.9401 -0.2981 -1.7366
 5553TIP3    H238295   0.569   2.548   0.634 -0.3067  0.6060  0.5365
 5554TIP3   OH238296   1.061   6.073   0.352 -0.1343 -0.1840  0.3676
 5554TIP3    H138297   1.135   6.014   0.338  0.0107  0.1504 -0.3213
 5554TIP3    H238298   0.990   6.036   0.299 -0.0201  0.3008 -0.1285
 5555TIP3   OH238299   6.510   5.335   1.213  0.1441  0.1164  0.3894
 5555TIP3    H138300   6.548   5.295   1.291 -2.2657 -0.2340  1.4669
 5555TIP3    H238301   6.484   5.261   1.158  0.0452  0.3263  0.1491
 5556TIP3   OH238302   6.414   3.205   7.739 -0.0097 -0.4409  0.5251
 5556TIP3    H138303   6.346   3.149   7.775 -0.0095 -0.4911  0.4471
 5556TIP3    H238304   6.412   3.284   7.794 -0.2271 -0.3809  0.4328
 5557TIP3   OH238305   5.611   0.516   1.216  0.3501 -0.1746 -0.0646
 5557TIP3    H138306   5.529   0.562   1.234 -0.0547 -0.7787 -0.3429
 5557TIP3    H238307   5.608   0.494   1.123  0.2505 -1.2916  0.1828
 5558TIP3   OH238308   1.748   6.664   8.162  0.1879 -0.2412  0.1932
 5558TIP3    H138309   1.841   6.642   8.170  0.4062  0.4856 -0.2393
 5558TIP3    H238310   1.702   6.587   8.195  0.9364 -0.9185 -0.2982
 5559TIP3   OH238311   0.587   4.060   0.608  0.1273  0.2615 -0.2555
 5559TIP3    H138312   0.540   4.022   0.533  0.8270 -1.9222  0.3260
 5559TIP3    H238313   0.523   4.120   0.648 -1.4483 -1.0190 -0.7167
 5560TIP3   OH238314   1.293   0.686   7.431  0.6042 -0.6005  0.3594
 5560TIP3    H138315   1.257   0.619   7.374 -1.4445 -0.5443  1.4900
 5560TIP3    H238316   1.279   0.768   7.384 -0.9680 -0.5656  0.8558
 5561TIP3   OH238317   2.207   2.338   8.759 -0.1858 -0.0749 -0.0069
 5561TIP3    H138318   2.268   2.296   8.820  0.3697 -2.0367 -1.7712
 5561TIP3    H238319   2.257   2.409   8.720  0.0418  0.0734  0.5506
 5562TIP3   OH238320   1.659   0.020   1.953 -0.0436 -0.1203  0.4826
 5562TIP3    H138321   1.740   0.053   1.992  1.6575 -2.4772 -0.8243
 5562TIP3    H238322   1.655  -0.072   1.979 -1.9572 -0.2552 -0.0809
 5563TIP3   OH238323   4.422   4.362   6.913 -0.2440 -0.4349  0.0655
 5563TIP3    H138324   4.477   4.432   6.879 -1.3294 -0.6033 -2.2045
 5563TIP3    H238325   4.394   4.313   6.836 -0.7141 -2.4951  1.4548
 5564TIP3   OH238326   2.006   5.885   1.200 -0.2362 -0.3352 -0.1794
 5564TIP3    H138327   2.027   5.903   1.109  0.0074  1.3149  0.1744
 5564TIP3    H238328   1.910   5.888   1.204 -0.2030  2.3692  0.0925
 5565TIP3   OH238329   0.903   4.978   0.043 -0.0637  0.0157  0.3380
 5565TIP3    H138330   0.815   5.003   0.012 -0.1893  1.4274  1.7184
 5565TIP3    H238331   0.946   4.943  -0.035 -1.5028  0.2571 -0.6160
 5566TIP3   OH238332   2.757   6.634   7.938 -0.7107  0.1021  0.0533
 5566TIP3    H138333   2.697   6.564   7.915 -1.9493  0.5147  1.7882
 5566TIP3    H238334   2.816   6.595   8.003 -0.2133  0.1768 -0.3475
 5567TIP3   OH238335   1.956   1.540   0.277 -0.5189 -0.3994  0.0547
 5567TIP3    H138336   1.998   1.460   0.308 -1.8752 -0.8160  0.9095
 5567TIP3    H238337   1.972   1.540   0.183  2.8782  0.3962  0.5282
 5568TIP3   OH238338   5.748   5.422   2.584  0.2150 -0.0134 -0.0732
 5568TIP3    H138339   5.790   5.490   2.532 -2.6924  0.3738 -2.1629
 5568TIP3    H238340   5.770   5.340   2.539  1.7909 -0.2877  1.0982
 5569TIP3   OH238341   3.218   3.113   2.253  0.0212  0.2900 -0.3052
 5569TIP3    H138342   3.155   3.180   2.281 -0.0728  0.2241 -0.3562
 5569TIP3    H238343   3.304   3.150   2.275  0.0038  0.6702 -0.8453
 5570TIP3   OH238344   5.517   1.867   0.630  0.0033  0.1480 -0.8584
 5570TIP3    H138345   5.447   1.893   0.689  1.2077  1.3358  0.0997
 5570TIP3    H238346   5.515   1.771   0.631 -1.1226  0.1655 -0.2904
 5571TIP3   OH238347   1.399   4.972   8.861  0.3201  0.8007 -0.2679
 5571TIP3    H138348   1.439   4.885   8.854 -1.6222 -0.2247  0.8041
 5571TIP3    H238349   1.403   5.007   8.772 -0.2764 -1.0402 -1.0630
 5572TIP3   OH238350   1.458   4.302   8.122 -0.1769  0.8730  0.0852
 5572TIP3    H138351   1.453   4.220   8.073 -1.5551  0.3729  0.9945
 5572TIP3    H238352   1.528   4.351   8.079 -0.4761 -0.0564 -1.5713
 5573TIP3   OH238353   4.601   1.045   7.883 -0.0363 -0.6621 -0.0975
 5573TIP3    H138354   4.508   1.021   7.882  0.0448 -1.0721  0.8566
 5573TIP3    H238355   4.631   1.028   7.794 -0.7307 -1.1274 -0.2521
 5574TIP3   OH238356   4.123   1.102   7.723  0.1297 -0.2283 -0.4509
 5574TIP3    H138357   4.079   1.136   7.801  1.0199  1.7118 -0.7403
 5574TIP3    H238358   4.205   1.151   7.718  1.2051 -1.9969 -1.3010
 5575TIP3   OH238359   3.620   0.903   7.274  0.0775 -0.1934  0.5168
 5575TIP3    H138360   3.678   0.893   7.349 -0.6150 -0.4376  1.0266
 5575TIP3    H238361   3.539   0.937   7.311  0.0191  0.5234 -0.2440
 5576TIP3   OH238362   1.841   5.781   6.550 -0.1370 -0.6109 -0.2384
 5576TIP3    H138363   1.775   5.770   6.480 -1.1758  1.0068  0.4211
 5576TIP3    H238364   1.903   5.844   6.514 -0.5635  0.0720  0.2010
 5577TIP3   OH238365   0.904   2.771   8.640 -0.1950  0.1548  0.1929
 5577TIP3    H138366   0.873   2.745   8.554 -0.8448  2.7538 -0.4379
 5577TIP3    H238367   0.947   2.693   8.675 -0.2419 -1.0779 -2.3127
 5578TIP3   OH238368   2.150   4.936   8.434  0.2197  0.2211 -0.3815
 5578TIP3    H138369   2.191   5.022   8.438  1.9822 -0.6060  0.5794
 5578TIP3    H238370   2.151   4.913   8.341 -1.6042  1.7911 -0.8470
 5579TIP3   OH238371   0.027   3.444   8.257  0.5352  0.4585 -0.2422
 5579TIP3    H138372   0.103   3.393   8.230  0.3664 -0.4100  0.8591
 5579TIP3    H238373  -0.028   3.448   8.179  1.3299  0.4005 -0.8188
 5580TIP3   OH238374   1.250   0.396   8.419  0.1607  0.5338  0.2323
 5580TIP3    H138375   1.291   0.310   8.409 -0.2948  0.3033  0.3019
 5580TIP3    H238376   1.290   0.432   8.498 -0.5753 -0.1637  0.9428
 5581TIP3   OH238377   1.031   2.377   9.131 -0.1029  0.0235  0.1557
 5581TIP3    H138378   1.075   2.293   9.117  0.1298 -0.0300  1.1632
 5581TIP3    H238379   0.969   2.384   9.059 -0.1858 -1.0501  0.1098
 5582TIP3   OH238380   1.561   1.357   1.810 -0.2876 -0.0706  0.4142
 5582TIP3    H138381   1.483   1.331   1.762  1.6242 -0.6476 -2.6051
 5582TIP3    H238382   1.576   1.448   1.785  1.1965 -0.6299 -0.8553
 5583TIP3   OH238383   0.967   3.671   0.702 -0.3434 -0.3460 -0.1776
 5583TIP3    H138384   1.044   3.644   0.751 -1.0005 -1.0387  0.4876
 5583TIP3    H238385   1.000   3.738   0.641  0.2073  1.8603  2.3591
 5584TIP3   OH238386   3.694   6.637   7.254  0.3783 -0.3202  0.0580
 5584TIP3    H138387   3.661   6.660   7.167 -0.2530 -0.6516  0.2062
 5584TIP3    H238388   3.632   6.572   7.287  0.2553  0.2525  1.0039
 5585TIP3   OH238389   6.521   2.168   8.764  0.0429  0.3960 -0.0109
 5585TIP3    H138390   6.588   2.220   8.810  0.6435  0.5093 -0.9659
 5585TIP3    H238391   6.570   2.095   8.726 -0.1400  1.0901 -1.6814
 5586TIP3   OH238392   5.487   2.934   8.774 -0.4194  0.5282 -0.1293
 5586TIP3    H138393   5.442   2.858   8.810  0.8135  0.2486  0.8957
 5586TIP3    H238394   5.481   2.923   8.679  1.1923 -1.8027 -0.0450
 5587TIP3   OH238395   6.017   2.459   1.399 -0.7827 -0.6500 -0.3462
 5587TIP3    H138396   5.984   2.529   1.455  0.1621  0.1830 -0.7901
 5587TIP3    H238397   5.950   2.450   1.331 -0.9065 -0.1596 -0.2956
 5588TIP3   OH238398   0.683   5.252   2.230  0.3363 -0.4487 -0.8321
 5588TIP3    H138399   0.702   5.273   2.322 -0.8717 -1.3690 -0.3437
 5588TIP3    H238400   0.713   5.329   2.181  1.3678 -0.1083  0.2855
 5589TIP3   OH238401   6.723   4.574   8.234  0.4710  0.4236  0.4480
 5589TIP3    H138402   6.689   4.663   8.225 -2.5008 -0.4545  1.8842
 5589TIP3    H238403   6.697   4.546   8.321  0.3916 -2.2289 -0.3375
 5590TIP3   OH238404   0.661   2.933   1.336  0.3476  0.8470 -0.2592
 5590TIP3    H138405   0.582   2.912   1.285  0.6367  0.7932 -0.6955
 5590TIP3    H238406   0.628   2.968   1.418 -0.1560 -0.7618  0.2639
 5591TIP3   OH238407   0.140   4.495   1.659  0.2654  0.0462 -0.1280
 5591TIP3    H138408   0.161   4.417   1.712  0.7554  0.3945  0.1981
 5591TIP3    H238409   0.107   4.558   1.723  1.6045  0.7524 -0.0931
 5592TIP3   OH238410   1.778   3.735   8.829  0.5624 -0.5437 -0.5847
 5592TIP3    H138411   1.724   3.781   8.765  0.0853 -0.4658 -0.1327
 5592TIP3    H238412   1.818   3.804   8.882  0.2939 -0.6302 -0.2676
 5593TIP3   OH238413   5.044   4.848   9.054 -0.4579 -0.1734  0.1829
 5593TIP3    H138414   5.030   4.941   9.034 -0.0693 -0.2727 -0.5677
 5593TIP3    H238415   4.972   4.803   9.010  0.1439 -0.3509 -0.6414
 5594TIP3   OH238416   4.735   2.741   0.140  0.2483 -0.1558  0.0309
 5594TIP3    H138417   4.770   2.826   0.115 -2.0526  0.6344 -0.8115
 5594TIP3    H238418   4.675   2.760   0.212  1.1962 -1.3901  1.2013
 5595TIP3   OH238419   3.730   6.083   7.756 -0.2414  0.7135 -0.3305
 5595TIP3    H138420   3.790   6.072   7.682 -1.1106 -2.4050 -0.7201
 5595TIP3    H238421   3.653   6.125   7.718 -0.4405 -0.3214 -1.1318
 5596TIP3   OH238422   6.016   6.465   1.025 -0.1014  0.2730 -0.4271
 5596TIP3    H138423   6.020   6.398   1.094  0.9609 -0.1558 -0.8903
 5596TIP3    H238424   5.936   6.445   0.977  0.4586 -0.9805 -0.8655
 5597TIP3   OH238425   0.399   2.337   7.604 -1.0371  0.6168 -0.2904
 5597TIP3    H138426   0.364   2.289   7.529  0.1059  0.1547 -0.5481
 5597TIP3    H238427   0.455   2.404   7.566 -1.0131  0.8373  0.1300
 5598TIP3   OH238428   3.124   2.848   2.267 -0.1472 -0.1133 -0.3445
 5598TIP3    H138429   3.197   2.790   2.288  0.4672  0.7089 -0.1604
 5598TIP3    H238430   3.165   2.933   2.253 -1.1468  0.4860  0.3297
 5599TIP3   OH238431   3.466   4.702   1.343  0.3029  0.1393 -0.1505
 5599TIP3    H138432   3.548   4.683   1.389  0.1768  2.7013  1.2789
 5599TIP3    H238433   3.467   4.796   1.327 -1.9129  0.0931 -1.0464
 5600TIP3   OH238434   0.183   5.351   0.411 -0.4130  0.1597 -0.1332
 5600TIP3    H138435   0.159   5.367   0.502 -0.5240 -1.2294  0.1169
 5600TIP3    H238436   0.103   5.367   0.361 -0.2847  1.1698 -0.0217
 5601TIP3   OH238437   4.262   0.794   1.202 -0.0418 -0.0040 -0.1892
 5601TIP3    H138438   4.232   0.761   1.117  0.5376  0.8436 -0.7422
 5601TIP3    H238439   4.273   0.716   1.256 -1.5715 -0.4619 -0.5039
 5602TIP3   OH238440   2.279   6.551   8.652 -0.0402 -0.6209 -0.0959
 5602TIP3    H138441   2.206   6.571   8.593  0.4151 -0.8068 -0.7274
 5602TIP3    H238442   2.237   6.510   8.728 -0.8939  1.7527  0.8003
 5603TIP3   OH238443   4.270   2.136   9.101  0.5870 -0.3941  0.0046
 5603TIP3    H138444   4.286   2.050   9.140  0.7793 -0.4500 -0.2001
 5603TIP3    H238445   4.175   2.142   9.096  0.5798 -1.4920 -1.9684
 5604TIP3   OH238446   2.473   3.873   1.115  0.1074  0.2258 -0.3857
 5604TIP3    H138447   2.532   3.823   1.172  0.5367  0.4399 -0.6408
 5604TIP3    H238448   2.531   3.930   1.065 -0.3143  0.3999 -0.6755
 5605TIP3   OH238449   1.159   1.392   6.133 -0.2671 -0.1054 -0.2566
 5605TIP3    H138450   1.119   1.351   6.210 -0.6392 -0.6353 -0.7255
 5605TIP3    H238451   1.244   1.349   6.125 -0.9410 -1.3157 -1.1594
 5606TIP3   OH238452   3.249   1.777   0.040 -0.0491  0.0548 -0.3671
 5606TIP3    H138453   3.232   1.704   0.099 -2.6826  0.9719  0.1233
 5606TIP3    H238454   3.310   1.741  -0.025 -2.3811 -3.0812 -1.0539
 5607TIP3   OH238455   6.269   4.256   0.970 -0.5734  0.4148  0.3207
 5607TIP3    H138456   6.318   4.197   1.028  1.3231  1.1876 -0.4011
 5607TIP3    H238457   6.265   4.339   1.017  1.4966  1.2273 -0.7690
 5608TIP3   OH238458   3.383   6.475   6.782  0.5626 -0.3342 -1.0942
 5608TIP3    H138459   3.322   6.542   6.753 -0.7028 -1.7000 -1.6917
 5608TIP3    H238460   3.468   6.519   6.782 -0.6105  2.3661  2.1600
 5609TIP3   OH238461   1.457   0.002   7.289 -0.6715  0.5779  0.9983
 5609TIP3    H138462   1.530  -0.054   7.264 -0.8779 -0.0428  1.7760
 5609TIP3    H238463   1.459   0.073   7.225  0.5438  0.5139  0.9495
 5610TIP3   OH238464   1.689   1.907   2.048 -0.4924  0.1914 -0.1570
 5610TIP3    H138465   1.754   1.977   2.053  0.9892 -1.0201 -1.3884
 5610TIP3    H238466   1.675   1.893   1.955 -0.0832 -1.6968  0.0113
 5611TIP3   OH238467   6.106   4.113   8.116 -0.3858  0.0253  0.0241
 5611TIP3    H138468   6.189   4.130   8.070 -0.6174 -1.5576 -1.0530
 5611TIP3    H238469   6.088   4.194   8.163  2.7003 -0.1506  1.7560
 5612TIP3   OH238470   6.442   6.290   7.673  0.0558  0.3182  0.6850
 5612TIP3    H138471   6.462   6.362   7.733 -0.2546  2.0338 -1.1581
 5612TIP3    H238472   6.348   6.299   7.656 -0.0040 -0.5858  0.5100
 5613TIP3   OH238473   0.222   1.979   8.463  0.9509  0.2846 -0.0925
 5613TIP3    H138474   0.305   2.017   8.492  1.9950 -0.0696 -2.3491
 5613TIP3    H238475   0.248   1.913   8.398 -1.0397 -0.9261  0.2715
 5614TIP3   OH238476   5.866   1.419   8.959  0.3776 -0.1346 -0.4352
 5614TIP3    H138477   5.956   1.414   8.927  0.0847  0.2368 -1.3516
 5614TIP3    H238478   5.814   1.441   8.882 -0.4206  0.3098  0.2064
 5615TIP3   OH238479   5.880   1.311   0.321 -0.8144 -0.2491  0.3957
 5615TIP3    H138480   5.824   1.324   0.244 -2.8515  0.5666  1.9196
 5615TIP3    H238481   5.920   1.225   0.307 -1.0132 -0.0691 -1.6085
 5616TIP3   OH238482   3.231   1.788   7.624 -0.0654 -0.2903 -0.7165
 5616TIP3    H138483   3.307   1.809   7.678  1.3777 -2.7709 -1.5900
 5616TIP3    H238484   3.165   1.758   7.685 -0.1468  1.2316 -0.0025
 5617TIP3   OH238485   4.216   2.482   7.217  0.0028 -0.7048  0.0577
 5617TIP3    H138486   4.207   2.577   7.230 -0.2039 -0.7446  0.2069
 5617TIP3    H238487   4.266   2.452   7.293 -0.4248 -0.8014  0.3014
 5618TIP3   OH238488   1.512   3.694   1.994  0.5691 -0.6349  0.5137
 5618TIP3    H138489   1.537   3.610   1.955 -0.6235 -1.1094  0.7366
 5618TIP3    H238490   1.418   3.686   2.011  0.5445  0.5480  1.0408
 5619TIP3   OH238491   0.063   5.977   7.745 -0.1785  0.3625 -0.2428
 5619TIP3    H138492   0.101   5.939   7.825 -2.2648 -0.1954  0.5603
 5619TIP3    H238493   0.068   5.906   7.681  2.6279  1.2005 -1.0699
 5620TIP3   OH238494   1.425   0.173   7.097  0.1251  0.4857  0.7931
 5620TIP3    H138495   1.382   0.185   7.012 -0.2149 -0.5876  0.7883
 5620TIP3    H238496   1.501   0.231   7.095 -1.3789  2.5625  0.8493
 5621TIP3   OH238497   3.275   5.064   1.444  0.4038 -0.4748 -0.2213
 5621TIP3    H138498   3.315   5.035   1.526 -2.0176 -0.4563  1.0685
 5621TIP3    H238499   3.306   5.153   1.432 -0.8210  0.3110  1.8958
 5622TIP3   OH238500   2.731   1.051   2.289  0.4914 -0.0006 -0.4597
 5622TIP3    H138501   2.710   1.013   2.375  0.2760 -0.5066 -0.7372
 5622TIP3    H238502   2.772   1.135   2.310  0.3735 -0.0887  0.1408
 5623TIP3   OH238503   4.934   3.553   0.930 -0.2787  0.3592 -0.3985
 5623TIP3    H138504   5.012   3.609   0.924 -0.3199  0.3901 -0.6527
 5623TIP3    H238505   4.862   3.614   0.946 -0.0649  0.2224  1.3910
 5624TIP3   OH238506   6.477   5.330   0.065 -0.2959 -0.1951  0.3420
 5624TIP3    H138507   6.506   5.420   0.082  0.0808 -0.3536  0.5509
 5624TIP3    H238508   6.388   5.327   0.101 -0.3463  0.1179  0.2538
 5625TIP3   OH238509   5.072   0.621   8.744  0.5324 -0.0125  0.0626
 5625TIP3    H138510   5.129   0.697   8.731  0.6872 -0.1190  0.1049
 5625TIP3    H238511   5.124   0.547   8.712 -0.2945  0.1028 -1.6160
 5626TIP3   OH238512   6.350   2.004   6.221 -0.6043 -0.3672 -0.5193
 5626TIP3    H138513   6.423   1.974   6.167  0.7887  1.7927  0.0055
 5626TIP3    H238514   6.362   2.099   6.224 -1.2281 -0.2994  2.6831
 5627TIP3   OH238515   3.263   4.845   8.515  0.2040  0.0787  0.3589
 5627TIP3    H138516   3.317   4.902   8.460  0.6838 -0.0746  0.6685
 5627TIP3    H238517   3.254   4.892   8.597  2.4426 -1.2211  1.4245
 5628TIP3   OH238518   3.848   3.135   7.788  0.1118  0.2095 -0.0314
 5628TIP3    H138519   3.868   3.223   7.817 -0.6091  0.2584  0.3468
 5628TIP3    H238520   3.931   3.088   7.793 -0.2823 -0.5131  4.5976
 5629TIP3   OH238521   3.989   2.636   1.109 -0.1155 -0.3020 -0.1476
 5629TIP3    H138522   4.075   2.647   1.069  0.4481 -3.0506  0.0746
 5629TIP3    H238523   3.930   2.687   1.054  1.5277  1.1237 -0.6836
 5630TIP3   OH238524   2.686   6.426   7.021  0.7117 -0.1991 -0.6352
 5630TIP3    H138525   2.598   6.416   6.983  0.8385 -0.8424 -0.7672
 5630TIP3    H238526   2.672   6.475   7.102  0.1385 -0.9397 -0.2770
 5631TIP3   OH238527   5.393   3.734   2.649  0.0569 -0.0565 -0.1278
 5631TIP3    H138528   5.377   3.828   2.643  0.0464 -0.1324 -1.6300
 5631TIP3    H238529   5.472   3.726   2.702 -0.0022  0.7879  0.1002
 5632TIP3   OH238530   5.475   0.324   8.795 -0.5448 -0.2239 -0.4137
 5632TIP3    H138531   5.489   0.329   8.701  0.5772 -1.2398 -0.3299
 5632TIP3    H238532   5.381   0.316   8.805 -0.8098  1.2175 -1.3588
 5633TIP3   OH238533   2.795   4.356   7.676  0.2884 -0.2866  0.0730
 5633TIP3    H138534   2.761   4.348   7.765  1.7057 -0.0025  0.6585
 5633TIP3    H238535   2.737   4.301   7.623 -0.6247 -0.3876  1.1469
 5634TIP3   OH238536   1.198   4.015   1.422 -0.0955  0.1422  0.1457
 5634TIP3    H138537   1.171   4.104   1.448  1.6960  0.1523  2.3307
 5634TIP3    H238538   1.285   4.027   1.384  0.3583 -0.7102  0.8867
 5635TIP3   OH238539   6.029   4.330   7.469 -0.0758  0.3687 -0.6292
 5635TIP3    H138540   6.034   4.244   7.511 -0.0986 -0.0456 -1.4599
 5635TIP3    H238541   6.120   4.361   7.468 -0.1246  0.5492  0.0585
 5636TIP3   OH238542   5.095   6.204   8.152  0.5235  0.6308 -0.2523
 5636TIP3    H138543   5.080   6.151   8.231  2.6350 -0.2004 -0.3572
 5636TIP3    H238544   5.036   6.166   8.087  0.1402  0.0894  0.3877
 5637TIP3   OH238545   6.318   1.250   8.232  0.3355  0.2036 -0.5716
 5637TIP3    H138546   6.252   1.217   8.172  0.3065 -0.8273  0.0124
 5637TIP3    H238547   6.288   1.338   8.255 -0.9892 -0.3479 -0.1053
 5638TIP3   OH238548   2.732   5.232   8.611 -0.2252 -0.1470  0.5677
 5638TIP3    H138549   2.791   5.219   8.536 -1.0331 -1.4348  0.1171
 5638TIP3    H238550   2.658   5.282   8.575 -0.3368 -0.2587  0.6399
 5639TIP3   OH238551   1.472   4.887   8.347 -0.1973  0.2964 -0.5076
 5639TIP3    H138552   1.546   4.938   8.315  1.2976 -1.3733  0.0950
 5639TIP3    H238553   1.473   4.900   8.442 -0.3999 -0.0638 -0.4540
 5640TIP3   OH238554   5.221   3.973   8.607 -0.3598 -0.4184  0.1647
 5640TIP3    H138555   5.160   3.922   8.554  0.7180 -3.7133  1.7596
 5640TIP3    H238556   5.303   3.922   8.604  0.6242  0.8519  2.4971
 5641TIP3   OH238557   0.095   4.822   8.983 -0.4115  0.5255  0.0779
 5641TIP3    H138558   0.048   4.743   9.011 -0.6930  0.3220 -0.9315
 5641TIP3    H238559   0.150   4.793   8.911 -0.9478  1.3615 -0.6860
 5642TIP3   OH238560   3.199   3.391   7.658  0.8585 -0.2863  0.2821
 5642TIP3    H138561   3.105   3.377   7.669  0.4981 -1.0717 -2.7300
 5642TIP3    H238562   3.231   3.412   7.745 -2.2680  1.0423  1.2509
 5643TIP3   OH238563   5.249   4.721   1.379  0.0447 -0.4764 -0.4480
 5643TIP3    H138564   5.211   4.706   1.292  1.2222  1.5470 -1.3963
 5643TIP3    H238565   5.330   4.668   1.379  0.0290 -0.4999 -0.5687
 5644TIP3   OH238566   5.238   0.940   8.292  0.0053 -0.0830  0.0111
 5644TIP3    H138567   5.247   1.023   8.338 -2.5608 -0.2805  1.0540
 5644TIP3    H238568   5.280   0.876   8.349  0.7398  0.2773 -0.1117
 5645TIP3   OH238569   3.476   2.675   7.883  0.4015  0.0530 -0.1969
 5645TIP3    H138570   3.491   2.760   7.924  1.3654 -0.4719  0.5592
 5645TIP3    H238571   3.381   2.669   7.875  0.2340  0.4877  1.2686
 5646TIP3   OH238572   4.314   2.824   0.350  0.2534 -0.0512 -0.0103
 5646TIP3    H138573   4.338   2.916   0.348 -0.5493  0.1813 -2.2399
 5646TIP3    H238574   4.309   2.802   0.443 -2.0058  2.8439  0.7221
 5647TIP3   OH238575   3.381   1.787   0.361  0.6888 -0.0288 -1.0917
 5647TIP3    H138576   3.459   1.734   0.375 -0.2244 -1.0937  0.2283
 5647TIP3    H238577   3.410   1.859   0.306  2.5848 -0.3983 -0.6310
 5648TIP3   OH238578   5.135   6.206   2.691 -0.1396  0.3254  0.1414
 5648TIP3    H138579   5.173   6.247   2.614  0.8573 -2.5653 -1.0565
 5648TIP3    H238580   5.209   6.189   2.749 -0.4856  0.0697  0.5171
 5649TIP3   OH238581   4.570   1.606   0.588 -0.4046  0.6207  0.3662
 5649TIP3    H138582   4.580   1.700   0.580  1.3051  0.4830  0.5333
 5649TIP3    H238583   4.546   1.576   0.500  3.7744  0.7323 -1.0328
 5650TIP3   OH238584   5.676   2.136   0.605 -0.0479  0.4611  0.8484
 5650TIP3    H138585   5.602   2.080   0.623 -0.6424  1.2564  0.9363
 5650TIP3    H238586   5.747   2.076   0.583 -1.1350 -0.2615 -0.8396
 5651TIP3   OH238587   3.718   6.182   1.825  0.1133 -0.1625  0.7808
 5651TIP3    H138588   3.688   6.101   1.865 -0.4959  0.0507  0.7699
 5651TIP3    H238589   3.694   6.173   1.732  1.1975 -0.5067  0.5190
 5652TIP3   OH238590   4.766   3.327   0.637 -0.4946  0.2015  0.0156
 5652TIP3    H138591   4.745   3.277   0.558 -0.6943 -0.8211  0.7016
 5652TIP3    H238592   4.685   3.327   0.687 -0.3695  0.8566  0.2171
 5653TIP3   OH238593   3.719   4.925   7.650 -0.1071  0.2343 -0.1147
 5653TIP3    H138594   3.791   4.940   7.589 -0.0577 -2.1415 -0.7277
 5653TIP3    H238595   3.653   4.879   7.598 -1.2855  0.6984  0.9200
 5654TIP3   OH238596   1.719   2.660   1.212  0.3736  0.0900  0.6414
 5654TIP3    H138597   1.713   2.700   1.126  0.6257 -1.4111 -0.1089
 5654TIP3    H238598   1.810   2.674   1.239  0.6875 -0.6959  0.0105
 5655TIP3   OH238599   6.292   2.467   8.315  0.4031 -0.3860  0.3797
 5655TIP3    H138600   6.322   2.382   8.348  0.9896 -1.4082 -2.4737
 5655TIP3    H238601   6.264   2.449   8.225  0.6770  2.4752 -0.3754
 5656TIP3   OH238602   2.800   1.500   7.426  0.4344  0.2440 -0.3128
 5656TIP3    H138603   2.861   1.567   7.396  1.0552  0.2989  1.0221
 5656TIP3    H238604   2.776   1.527   7.514 -0.5137 -0.4747 -0.3384
 5657TIP3   OH238605   2.838   0.732   0.887  0.2951  0.2545 -0.0134
 5657TIP3    H138606   2.845   0.706   0.979  0.1146 -1.5238 -0.4650
 5657TIP3    H238607   2.772   0.673   0.850  0.0234  1.2478 -1.1856
 5658TIP3   OH238608   5.576   1.015   1.942 -0.0078 -0.2465 -0.3098
 5658TIP3    H138609   5.482   1.010   1.930  0.2132  0.2609 -2.6693
 5658TIP3    H238610   5.587   1.043   2.033 -2.1443  0.5635 -0.2426
 5659TIP3   OH238611   5.952   2.315   0.940  0.1689 -0.0219 -0.9850
 5659TIP3    H138612   5.940   2.226   0.973  1.4917  0.0656 -0.1946
 5659TIP3    H238613   6.047   2.329   0.942  0.0091  1.2942 -1.3865
 5660TIP3   OH238614   0.483   3.412   1.022 -0.1969  0.6077  0.4494
 5660TIP3    H138615   0.532   3.331   1.006 -1.4591 -0.1791  0.4326
 5660TIP3    H238616   0.530   3.478   0.971  1.2441  0.0379  0.9880
 5661TIP3   OH238617   1.015   3.571   7.747 -0.7276  0.1099 -0.0685
 5661TIP3    H138618   1.079   3.556   7.817 -0.0460  1.7936 -0.2936
 5661TIP3    H238619   1.013   3.488   7.699  0.9589 -0.1393  0.2158
 5662TIP3   OH238620   4.468   1.372   1.779  0.1733 -0.5081 -0.2599
 5662TIP3    H138621   4.395   1.367   1.717  1.7954 -4.0650 -2.1935
 5662TIP3    H238622   4.452   1.299   1.839 -0.1308  1.4815  2.2332
 5663TIP3   OH238623   4.475   4.237   0.562 -0.0013 -0.6482 -0.2677
 5663TIP3    H138624   4.488   4.209   0.471  0.3484 -1.6070  0.0609
 5663TIP3    H238625   4.559   4.275   0.587  0.5065 -2.0290  0.2038
 5664TIP3   OH238626   1.802   4.055   8.653  0.4718 -0.1986  0.2428
 5664TIP3    H138627   1.829   4.122   8.591  1.4684 -0.3883  0.4513
 5664TIP3    H238628   1.878   4.044   8.710 -0.7991  0.8063  2.2442
 5665TIP3   OH238629   0.674   2.656   0.161  0.1162  0.1929  0.0097
 5665TIP3    H138630   0.581   2.647   0.182  0.0314 -2.2764 -0.9661
 5665TIP3    H238631   0.715   2.682   0.243 -1.5099  2.4439  0.2036
 5666TIP3   OH238632   3.948   6.331   0.010  0.4868  0.3891 -0.2169
 5666TIP3    H138633   4.024   6.319  -0.048  1.1665  1.0350  0.5026
 5666TIP3    H238634   3.926   6.424  -0.000  1.5782  0.9144  1.6451
 5667TIP3   OH238635   6.162   5.598   7.470 -0.4616  0.2366  0.0028
 5667TIP3    H138636   6.079   5.563   7.502  0.3243  0.1138  2.0830
 5667TIP3    H238637   6.228   5.549   7.518  0.9242 -0.6270 -2.5799
 5668TIP3   OH238638   5.553   1.040   8.446  1.0366 -0.0145 -0.5438
 5668TIP3    H138639   5.618   1.110   8.438  1.2503 -0.0146  0.9164
 5668TIP3    H238640   5.604   0.959   8.436  1.4509 -0.0403  1.4771
 5669TIP3   OH238641   1.495   6.242   7.306  0.3721 -0.1916 -0.2274
 5669TIP3    H138642   1.562   6.173   7.304 -0.3421 -0.9026 -0.0248
 5669TIP3    H238643   1.479   6.261   7.213  1.9199  1.0789 -0.2981
 5670TIP3   OH238644   0.093   6.593   7.719 -0.5357  0.2002  0.2757
 5670TIP3    H138645   0.114   6.552   7.803 -1.7876 -0.7973  0.1202
 5670TIP3    H238646   0.007   6.633   7.733  0.1315  1.7909  0.0615
 5671TIP3   OH238647   1.514   2.763   7.608 -0.3872  0.1042  0.3202
 5671TIP3    H138648   1.476   2.699   7.547 -1.2075  0.1400  0.7809
 5671TIP3    H238649   1.595   2.791   7.565 -0.3698 -0.7155 -0.2211
 5672TIP3   OH238650   6.716   2.844   8.124 -0.5331 -0.5177 -0.2352
 5672TIP3    H138651   6.792   2.872   8.176  0.0638 -0.1278 -1.2948
 5672TIP3    H238652   6.686   2.764   8.167  1.3605 -1.4839 -0.6287
 5673TIP3   OH238653   4.343   0.464   6.241 -0.1183 -0.2917 -0.2101
 5673TIP3    H138654   4.406   0.410   6.287  0.2820  2.2182  2.5245
 5673TIP3    H238655   4.261   0.452   6.290 -0.6823 -0.3358 -1.1387
 5674TIP3   OH238656   4.559   2.212   9.095 -0.6309 -0.3166 -0.2305
 5674TIP3    H138657   4.575   2.304   9.116  0.0120 -0.3100 -0.7507
 5674TIP3    H238658   4.472   2.194   9.133 -0.0278  0.0205  1.3803
 5675TIP3   OH238659   2.688   5.217   0.973 -0.1644 -0.6440  0.3196
 5675TIP3    H138660   2.764   5.274   0.974 -0.8591  0.3115  0.1429
 5675TIP3    H238661   2.621   5.267   0.926 -1.0944 -1.2056  1.0134
 5676TIP3   OH238662   1.424   1.883   0.206 -0.7400 -0.2171 -0.1635
 5676TIP3    H138663   1.428   1.809   0.267  0.4849 -0.0250  0.0126
 5676TIP3    H238664   1.447   1.846   0.121  0.0801 -0.0105 -0.0379
 5677TIP3   OH238665   2.318   3.929   9.020 -0.0224  0.2454 -0.5008
 5677TIP3    H138666   2.360   3.963   9.098 -0.5013 -0.2009 -0.0400
 5677TIP3    H238667   2.236   3.890   9.051 -0.5151  0.6069 -1.3062
 5678TIP3   OH238668   6.228   4.683   7.511 -0.1978  0.1285 -0.3076
 5678TIP3    H138669   6.133   4.680   7.500 -0.2030  1.8760 -0.9391
 5678TIP3    H238670   6.241   4.660   7.603 -1.2964  0.6819  0.0083
 5679TIP3   OH238671   1.716   6.124   6.476 -0.0970  0.9443 -0.3523
 5679TIP3    H138672   1.649   6.079   6.425  0.0858 -0.0739  0.2980
 5679TIP3    H238673   1.792   6.127   6.418 -0.0471  0.2402 -0.3256
 5680TIP3   OH238674   1.013   3.445   8.777  0.6113  0.0948 -0.3683
 5680TIP3    H138675   0.959   3.454   8.855  1.2150 -3.3405  0.5704
 5680TIP3    H238676   0.950   3.432   8.706  0.1235  1.5493 -0.2444
 5681TIP3   OH238677   4.183   1.844   1.430  0.4982  0.2037 -0.2875
 5681TIP3    H138678   4.220   1.815   1.513  0.0489  0.5802  0.0474
 5681TIP3    H238679   4.091   1.863   1.449  0.1172 -0.7324 -1.1184
 5682TIP3   OH238680   1.842   2.486   7.266  0.1030 -1.0568  0.0173
 5682TIP3    H138681   1.915   2.490   7.203 -0.1618 -0.8517 -0.2820
 5682TIP3    H238682   1.766   2.517   7.216  0.0756  0.0545  0.7028
 5683TIP3   OH238683   1.611   0.450   1.661 -0.5239 -0.2508  0.1486
 5683TIP3    H138684   1.667   0.470   1.735 -0.4626  1.0646 -0.2329
 5683TIP3    H238685   1.527   0.423   1.700 -0.6135  0.7952  0.6965
 5684TIP3   OH238686   6.441   2.039   0.573 -0.2545 -0.0377  0.0067
 5684TIP3    H138687   6.437   1.980   0.498 -1.3856  0.4952 -0.3733
 5684TIP3    H238688   6.518   2.010   0.623 -1.2314 -2.3428  0.2761
 5685TIP3   OH238689   0.686   1.385   0.117 -0.2984 -0.3072  1.0017
 5685TIP3    H138690   0.682   1.359   0.025 -1.3196 -0.0922  0.9726
 5685TIP3    H238691   0.774   1.361   0.145 -0.6981 -2.4080  0.5724
 5686TIP3   OH238692   4.327   3.325   0.493 -0.3163 -0.1106 -0.3550
 5686TIP3    H138693   4.242   3.360   0.518 -0.0856 -0.6048  1.1773
 5686TIP3    H238694   4.377   3.402   0.466 -1.3094  0.1541 -1.5378
 5687TIP3   OH238695   1.363   1.304   8.199 -0.2051  0.0507 -0.0597
 5687TIP3    H138696   1.335   1.392   8.225 -0.2504  0.3428 -1.0864
 5687TIP3    H238697   1.307   1.281   8.125 -0.1890 -0.8461  0.1930
 5688TIP3   OH238698   2.151   0.944   1.179 -0.3636  0.3255  0.3056
 5688TIP3    H138699   2.154   0.875   1.113 -1.0167  0.1242  0.4803
 5688TIP3    H238700   2.057   0.962   1.191 -0.2275  0.7521  0.7686
 5689TIP3   OH238701   3.156   3.505   9.118 -0.3890  0.1304  0.0697
 5689TIP3    H138702   3.114   3.576   9.166  2.0366  1.0265  1.0166
 5689TIP3    H238703   3.136   3.426   9.169  0.4006  0.7734  1.4259
 5690TIP3   OH238704   1.844   6.233   1.165  0.4306 -0.0731  0.5212
 5690TIP3    H138705   1.939   6.219   1.158  0.2448 -1.6189  0.7489
 5690TIP3    H238706   1.809   6.199   1.083  0.0829  0.8185  0.2895
 5691TIP3   OH238707   2.656   3.131   7.002 -0.0000  0.0562  0.0685
 5691TIP3    H138708   2.596   3.075   6.953 -1.8108 -0.8167  2.9882
 5691TIP3    H238709   2.649   3.217   6.961 -2.3106 -0.3458 -0.5121
 5692TIP3   OH238710   4.395   2.175   7.715  0.0370 -0.2079 -0.1432
 5692TIP3    H138711   4.339   2.246   7.683  0.9143  0.5611 -0.0566
 5692TIP3    H238712   4.475   2.184   7.663  0.4099 -0.7139  0.3367
 5693TIP3   OH238713   2.223   3.441   8.436  0.3377 -0.0931  0.3730
 5693TIP3    H138714   2.299   3.384   8.435  1.7734  1.7233 -1.0868
 5693TIP3    H238715   2.251   3.519   8.484 -0.9867  0.1592  0.8045
 5694TIP3   OH238716   2.938   2.168   1.277 -0.3460  0.3452  0.4309
 5694TIP3    H138717   2.966   2.077   1.286  1.0366  0.7214  0.2250
 5694TIP3    H238718   2.868   2.178   1.341 -1.6338 -1.2686 -0.6307
 5695TIP3   OH238719   4.478   0.860   0.290  0.1143  0.3833 -0.1712
 5695TIP3    H138720   4.407   0.821   0.240 -0.9158  0.2176  1.3771
 5695TIP3    H238721   4.508   0.933   0.236 -0.9860  0.2340 -1.0085
 5696TIP3   OH238722   5.506   1.884   0.946 -0.6019  0.1517  0.3644
 5696TIP3    H138723   5.434   1.936   0.911  1.3960  1.7751 -1.5895
 5696TIP3    H238724   5.550   1.942   1.008  0.9524  0.4503 -0.9527
 5697TIP3   OH238725   1.851   6.586   0.530  0.1389  0.3408  0.3192
 5697TIP3    H138726   1.873   6.561   0.620  1.2163 -1.9436 -0.5093
 5697TIP3    H238727   1.929   6.630   0.497  1.3380 -2.3394 -0.6775
 5698TIP3   OH238728   2.940   2.799   7.589  0.0057  0.0406  0.4639
 5698TIP3    H138729   2.922   2.744   7.513  1.4306 -1.4683  1.1494
 5698TIP3    H238730   3.015   2.853   7.564  1.0335 -1.0734  1.0403
 5699TIP3   OH238731   3.992   0.876   7.313  0.3191  0.0962  0.3433
 5699TIP3    H138732   3.921   0.864   7.377 -0.7626  0.8029 -0.6820
 5699TIP3    H238733   4.036   0.791   7.310  0.4164  0.0532  2.0340
 5700TIP3   OH238734   4.762   3.658   0.069 -0.5646 -0.0329 -0.3011
 5700TIP3    H138735   4.789   3.645  -0.022  1.4510  1.7004 -0.0177
 5700TIP3    H238736   4.830   3.613   0.120 -0.8832  0.2435  0.3700
 5701TIP3   OH238737   0.853   4.691   0.387  0.1610 -0.2217 -0.0665
 5701TIP3    H138738   0.757   4.682   0.384 -0.0185  1.4364 -1.0604
 5701TIP3    H238739   0.870   4.774   0.341  1.9598  0.3221  1.4491
 5702TIP3   OH238740   5.430   5.524   0.289 -0.0737 -0.4865  0.3760
 5702TIP3    H138741   5.454   5.431   0.280 -1.5477 -0.6820 -3.2532
 5702TIP3    H238742   5.335   5.525   0.278  0.2242  1.6491 -4.2246
 5703TIP3   OH238743   6.206   5.227   0.839  0.2584  0.3352  0.3504
 5703TIP3    H138744   6.255   5.302   0.806 -0.1326  0.3539 -0.2137
 5703TIP3    H238745   6.136   5.266   0.892 -0.9301  0.4869 -1.2486
 5704TIP3   OH238746   5.399   0.988   2.584 -0.4446 -0.2567 -0.3747
 5704TIP3    H138747   5.485   1.004   2.543 -1.1404  1.4710 -1.2609
 5704TIP3    H238748   5.365   0.911   2.538  0.6528 -1.0245  0.0556
 5705TIP3   OH238749   2.494   4.749   2.485  0.1476  0.0067  0.1750
 5705TIP3    H138750   2.454   4.830   2.452 -0.4274 -0.1309  0.5279
 5705TIP3    H238751   2.555   4.723   2.415 -0.0221  0.4747 -0.1578
 5706TIP3   OH238752   6.470   5.511   8.282  0.5706  0.1228 -0.0041
 5706TIP3    H138753   6.562   5.492   8.304  0.8073  0.3746 -0.7465
 5706TIP3    H238754   6.420   5.468   8.352  1.2893  0.9911  1.0870
 5707TIP3   OH238755   5.306   1.834   6.977  0.1532  0.1303  0.9632
 5707TIP3    H138756   5.368   1.761   6.975  0.3237  0.2462  1.6502
 5707TIP3    H238757   5.225   1.799   6.939  1.0108  0.3623 -1.2152
 5708TIP3   OH238758   5.845   2.056   1.648 -0.5291 -0.4292 -0.0495
 5708TIP3    H138759   5.931   2.016   1.661  0.0878  0.7999 -0.2142
 5708TIP3    H238760   5.816   2.080   1.736  0.7322  1.9897 -0.2233
 5709TIP3   OH238761   3.859   1.889   1.179  1.1248  0.4155  0.5763
 5709TIP3    H138762   3.884   1.936   1.259  0.9919  3.0149 -0.7782
 5709TIP3    H238763   3.764   1.904   1.173  1.2110  0.6517 -0.2749
 5710TIP3   OH238764   0.401   1.081   0.175 -0.1248 -0.0646 -0.0698
 5710TIP3    H138765   0.405   1.110   0.084  0.2467 -0.6831 -0.2575
 5710TIP3    H238766   0.329   1.018   0.178 -1.0174  0.9363  0.3666
 5711TIP3   OH238767   3.746   2.643   8.479 -0.0447 -0.0332  0.4435
 5711TIP3    H138768   3.694   2.567   8.455 -1.7671  1.4153 -0.7470
 5711TIP3    H238769   3.835   2.622   8.452 -0.6265 -1.3229 -0.5503
 5712TIP3   OH238770   5.993   0.961   7.805 -0.7370 -0.2370  0.2819
 5712TIP3    H138771   6.057   1.009   7.753 -0.7752  0.6904  1.0670
 5712TIP3    H238772   5.950   0.903   7.742 -0.2033  0.2502 -0.5520
 5713TIP3   OH238773   3.568   6.051   0.670 -0.0618 -0.2327  0.2529
 5713TIP3    H138774   3.658   6.078   0.651 -0.7101  0.0652 -2.9087
 5713TIP3    H238775   3.574   5.958   0.690  1.1129  0.1703  1.9635
 5714TIP3   OH238776   4.651   4.160   1.788  0.5852 -0.4618  0.3524
 5714TIP3    H138777   4.740   4.125   1.791  0.3372 -1.1950 -0.4563
 5714TIP3    H238778   4.597   4.086   1.759 -0.0658  0.3590 -0.5965
 5715TIP3   OH238779   6.551   1.533   6.870 -0.4080 -0.3968  0.4181
 5715TIP3    H138780   6.473   1.574   6.832  0.2936  0.0014 -0.6539
 5715TIP3    H238781   6.525   1.442   6.887 -0.6881 -0.6626 -1.2861
 5716TIP3   OH238782   1.006   4.084   8.080 -0.4700  0.3185  0.3661
 5716TIP3    H138783   1.086   4.119   8.119 -1.3069  1.0391  1.4886
 5716TIP3    H238784   1.011   4.109   7.988  1.5872 -1.4898 -0.0941
 5717TIP3   OH238785   5.886   6.362   0.458 -0.5669 -0.3522  0.0254
 5717TIP3    H138786   5.931   6.315   0.388 -1.2076 -1.1359  0.1273
 5717TIP3    H238787   5.871   6.296   0.526 -1.4065  0.0071  0.2042
 5718TIP3   OH238788   1.549   3.859   0.255 -0.1084 -0.2768  0.8527
 5718TIP3    H138789   1.460   3.870   0.290  0.3507 -0.3412  2.0658
 5718TIP3    H238790   1.589   3.945   0.265 -0.1392 -0.1487 -0.0415
 5719TIP3   OH238791   1.727   1.165   7.894  0.3999  0.3164 -0.0772
 5719TIP3    H138792   1.783   1.215   7.952  0.9187  0.2089 -0.4833
 5719TIP3    H238793   1.684   1.231   7.840  1.1491  0.3275 -0.6715
 5720TIP3   OH238794   1.932   1.224   0.589  0.3566 -0.2042  0.3854
 5720TIP3    H138795   1.969   1.175   0.662  0.1771 -0.3441  0.3810
 5720TIP3    H238796   1.894   1.158   0.532  0.3292 -0.0795  0.2577
 5721TIP3   OH238797   2.593   5.575   1.117 -0.4146 -0.1709  0.1551
 5721TIP3    H138798   2.524   5.624   1.163 -1.3448 -0.9690 -0.3752
 5721TIP3    H238799   2.665   5.638   1.110 -1.1183  0.7159  0.6143
 5722TIP3   OH238800   6.120   0.302   1.309 -0.0920 -0.5147 -0.0454
 5722TIP3    H138801   6.134   0.361   1.384  1.6416 -0.7188 -0.1638
 5722TIP3    H238802   6.065   0.353   1.249  0.4356  0.5574  0.3425
 5723TIP3   OH238803   4.550   5.166   8.232 -0.2692 -0.1147 -0.5573
 5723TIP3    H138804   4.467   5.183   8.187  0.9694 -0.9924 -3.4074
 5723TIP3    H238805   4.606   5.239   8.206 -0.0055  0.3218  1.1193
 5724TIP3   OH238806   4.627   4.125   8.356 -0.3441 -0.3760 -0.0685
 5724TIP3    H138807   4.534   4.133   8.335 -0.3091 -1.5024 -0.7191
 5724TIP3    H238808   4.632   4.146   8.449 -0.6762  3.5053 -0.7449
 5725TIP3   OH238809   3.391   6.282   8.505  0.3566  0.0283 -0.1651
 5725TIP3    H138810   3.452   6.319   8.441  1.8667 -0.6290  0.8494
 5725TIP3    H238811   3.344   6.358   8.539 -0.2512  0.4241 -1.7962
 5726TIP3   OH238812   3.381   1.148   1.785  0.5127 -0.2645  0.1989
 5726TIP3    H138813   3.429   1.097   1.850 -0.0425 -0.2789  0.6013
 5726TIP3    H238814   3.396   1.239   1.811  2.5204 -0.1066 -1.2181
 5727TIP3   OH238815   0.644   3.498   7.678  0.0150  0.0825  0.4652
 5727TIP3    H138816   0.551   3.516   7.691 -0.0929 -0.6356  0.7107
 5727TIP3    H238817   0.680   3.581   7.646 -0.9397  0.0281 -0.8149
 5728TIP3   OH238818   1.825   6.510   8.775  0.3562 -0.4738 -0.0943
 5728TIP3    H138819   1.741   6.531   8.817 -0.8944 -0.9910 -2.1743
 5728TIP3    H238820   1.836   6.416   8.789 -0.3370 -0.7568 -1.2886
 5729TIP3   OH238821   0.843   0.540   1.444  0.7837 -0.7295  0.4242
 5729TIP3    H138822   0.762   0.525   1.494  0.0780  2.0600  0.2944
 5729TIP3    H238823   0.903   0.472   1.474 -0.8757 -1.5043  2.2040
 5730TIP3   OH238824   1.963   0.266   8.151  0.3464  0.3526 -0.1892
 5730TIP3    H138825   2.040   0.318   8.177  1.5667 -0.9183 -1.0764
 5730TIP3    H238826   2.000   0.183   8.120 -0.9398  1.2059 -4.8607
 5731TIP3   OH238827   2.433   0.734   0.373 -0.6526 -0.4497  0.9284
 5731TIP3    H138828   2.413   0.825   0.350  0.2776 -0.6185 -0.7865
 5731TIP3    H238829   2.529   0.731   0.377 -0.5890 -1.6062 -0.4182
 5732TIP3   OH238830   5.709   6.676   8.930  0.0672  0.3342  1.0812
 5732TIP3    H138831   5.717   6.771   8.933  0.9751  0.2733  0.7339
 5732TIP3    H238832   5.668   6.657   8.845  1.3246  0.3305  0.4621
 5733TIP3   OH238833   3.632   4.071   1.301 -0.1326  0.1117  0.4153
 5733TIP3    H138834   3.704   4.053   1.240 -0.4891  0.9376 -0.2631
 5733TIP3    H238835   3.576   3.993   1.295  0.6482 -0.5045  0.8936
 5734TIP3   OH238836   5.107   0.073   8.558  0.7134 -0.5340 -0.2985
 5734TIP3    H138837   5.142   0.091   8.470 -0.5380  0.5178 -0.6122
 5734TIP3    H238838   5.101  -0.023   8.562 -0.5053 -0.5736 -1.9192
 5735TIP3   OH238839   6.266   1.385   7.647 -0.0525  0.1876 -0.0950
 5735TIP3    H138840   6.205   1.454   7.673 -0.0444 -0.2503  1.1836
 5735TIP3    H238841   6.333   1.429   7.595 -0.1978  1.0955  0.4744
 5736TIP3   OH238842   5.251   4.035   7.700  0.2657 -0.2798  0.0934
 5736TIP3    H138843   5.163   4.059   7.730  0.4776 -1.7478  2.0888
 5736TIP3    H238844   5.301   4.024   7.781  1.5701 -2.0602 -0.9004
 5737TIP3   OH238845   0.900   0.664   0.528 -0.6003 -0.2318  0.5106
 5737TIP3    H138846   0.903   0.568   0.534 -0.7898 -0.2336  0.5812
 5737TIP3    H238847   0.988   0.689   0.503 -1.1912 -0.6129 -2.2092
 5738TIP3   OH238848   0.867   6.537   0.680 -0.0244 -0.6262  0.5508
 5738TIP3    H138849   0.832   6.588   0.606  1.3897 -1.4277 -0.7370
 5738TIP3    H238850   0.798   6.474   0.699  0.8210 -2.7010 -2.4593
 5739TIP3   OH238851   1.673   5.052   9.059 -0.0692  0.3331 -0.2592
 5739TIP3    H138852   1.666   5.061   8.964  1.3710  1.6221 -0.2929
 5739TIP3    H238853   1.705   4.963   9.074 -0.1173  0.1913 -1.0095
 5740TIP3   OH238854   0.308   1.501   7.431  0.0968 -0.1846 -0.5399
 5740TIP3    H138855   0.391   1.535   7.400  0.3565 -0.5476 -0.2534
 5740TIP3    H238856   0.287   1.554   7.508  0.5393 -0.7104 -0.0484
 5741TIP3   OH238857   1.349   5.518   1.276 -0.1109  0.0220 -0.3085
 5741TIP3    H138858   1.354   5.429   1.311 -1.9630  0.2574  0.7430
 5741TIP3    H238859   1.277   5.515   1.213 -0.8570  0.9371  0.4524
 5742TIP3   OH238860   5.197   3.490   6.878  0.1997  0.3777 -0.1343
 5742TIP3    H138861   5.235   3.428   6.816  0.2473 -0.4289  0.6781
 5742TIP3    H238862   5.179   3.568   6.826 -1.8245 -1.0231 -1.7002
 5743TIP3   OH238863   1.495   2.420   7.765  0.3190 -0.0067 -0.0194
 5743TIP3    H138864   1.549   2.446   7.840  0.5881 -0.9987  0.1474
 5743TIP3    H238865   1.416   2.473   7.772  1.4818  1.8847 -0.5766
 5744TIP3   OH238866   1.234   2.502   0.926  0.0904  0.5996  0.0896
 5744TIP3    H138867   1.212   2.588   0.961  3.7854  1.4647  0.6908
 5744TIP3    H238868   1.207   2.506   0.834  0.9367  2.7978 -0.1285
 5745TIP3   OH238869   5.831   0.715   0.580  0.1700 -0.0687  0.2678
 5745TIP3    H138870   5.884   0.794   0.591 -0.8180  0.3005  3.3081
 5745TIP3    H238871   5.752   0.745   0.536  1.3003 -0.1736 -2.0175
 5746TIP3   OH238872   2.336   4.892   0.855  0.4304 -0.5335  0.1312
 5746TIP3    H138873   2.411   4.845   0.818  0.3298 -0.4578 -0.1754
 5746TIP3    H238874   2.371   4.938   0.932  1.5046  2.1519 -1.7967
 5747TIP3   OH238875   4.495   6.659   1.509 -0.0400 -0.1989 -0.2058
 5747TIP3    H138876   4.482   6.601   1.434 -0.2506  0.0364 -0.3512
 5747TIP3    H238877   4.469   6.607   1.585 -2.8795  0.5807 -0.5600
 5748TIP3   OH238878   1.843   5.581   1.747 -0.1268  0.3248 -0.4290
 5748TIP3    H138879   1.924   5.536   1.773  0.3013  1.4444  0.2011
 5748TIP3    H238880   1.851   5.590   1.652 -0.4949 -1.4337 -0.6661
 5749TIP3   OH238881   0.537   4.485   8.165 -0.2061 -0.1447 -0.6028
 5749TIP3    H138882   0.592   4.462   8.240  0.4086 -0.5556 -1.1665
 5749TIP3    H238883   0.451   4.501   8.203  0.4648  1.3363  0.4199
 5750TIP3   OH238884   4.335   1.931   0.279  0.2434  0.0112 -0.0771
 5750TIP3    H138885   4.256   1.886   0.310 -1.6101  3.4107  0.6096
 5750TIP3    H238886   4.342   1.905   0.187 -2.5424  0.5617 -0.5494
 5751TIP3   OH238887   6.300   4.706   1.431 -0.0806 -0.6342 -0.0169
 5751TIP3    H138888   6.305   4.763   1.508 -0.4667  1.2715 -1.3481
 5751TIP3    H238889   6.208   4.706   1.407  0.0736 -1.0216 -0.6269
 5752TIP3   OH238890   6.602   4.025   8.454  0.1497  0.0659  0.4866
 5752TIP3    H138891   6.516   4.056   8.480  0.1345  0.2521  0.2173
 5752TIP3    H238892   6.593   4.002   8.361  0.5794  0.7763  0.2654
 5753TIP3   OH238893   5.197   5.854   7.096  0.1726 -0.2543 -0.4043
 5753TIP3    H138894   5.282   5.822   7.064  0.7689  1.6039 -0.7961
 5753TIP3    H238895   5.133   5.818   7.034  1.0148  0.8443 -2.0009
 5754TIP3   OH238896   0.375   3.032   8.271 -0.4927  0.0927  0.0828
 5754TIP3    H138897   0.316   3.082   8.328  1.1610  1.3580  0.7451
 5754TIP3    H238898   0.378   2.945   8.310 -2.7436 -0.3566 -0.5985
 5755TIP3   OH238899   0.037   1.509   7.633 -0.2559  0.6684 -0.1459
 5755TIP3    H138900  -0.008   1.504   7.717  0.2001  0.0699  0.0656
 5755TIP3    H238901   0.099   1.581   7.643 -0.4344  0.8177 -0.0925
 5756TIP3   OH238902   0.956   5.614   2.418  0.5869  0.0116  0.0697
 5756TIP3    H138903   0.957   5.689   2.478  0.2315  0.1660 -0.1139
 5756TIP3    H238904   1.042   5.573   2.430  0.0200 -0.7848  1.7181
 5757TIP3   OH238905   5.006   1.067   1.577  0.0070 -0.3987 -0.3014
 5757TIP3    H138906   4.951   1.134   1.537 -0.0922 -0.6214 -0.5435
 5757TIP3    H238907   4.944   1.003   1.611 -0.0625  1.0976  2.6754
 5758TIP3   OH238908   4.236   1.540   8.059  0.6875  0.0781  0.5540
 5758TIP3    H138909   4.309   1.590   8.096  0.1011  0.0136  1.8797
 5758TIP3    H238910   4.162   1.563   8.115  0.0059 -0.9000  0.0692
 5759TIP3   OH238911   0.866   2.560   8.215 -0.2371 -0.1068  0.4877
 5759TIP3    H138912   0.817   2.638   8.240  1.2084  1.0361 -0.0453
 5759TIP3    H238913   0.806   2.487   8.229 -1.7761  1.1453  0.5892
 5760TIP3   OH238914   4.269   5.625   0.373  0.0291 -0.3847 -1.1294
 5760TIP3    H138915   4.206   5.555   0.363 -1.8295  1.1632 -0.8220
 5760TIP3    H238916   4.216   5.704   0.389  2.0490  0.6955  0.9627
 5761TIP3   OH238917   3.748   2.557   1.791 -0.1089  0.7180 -0.2013
 5761TIP3    H138918   3.811   2.507   1.843  0.8950  0.2710 -1.7550
 5761TIP3    H238919   3.665   2.512   1.804  0.2493  0.2330  0.4952
 5762TIP3   OH238920   2.471   3.371   1.195 -0.4089  1.0078  0.0921
 5762TIP3    H138921   2.425   3.369   1.279 -2.0152 -0.4712 -0.7465
 5762TIP3    H238922   2.548   3.426   1.210 -1.4887  2.0651  2.0785
 5763TIP3   OH238923   0.125   2.232   3.005  0.1891  0.8402 -0.0003
 5763TIP3    H138924   0.220   2.233   3.012  0.1839  1.4005  0.0894
 5763TIP3    H238925   0.107   2.252   2.913  0.1519  1.6469  0.1745
 5764TIP3   OH238926   2.263   4.402   1.437 -0.4434  0.0387  0.3460
 5764TIP3    H138927   2.269   4.498   1.440  0.0745  0.0053  0.4029
 5764TIP3    H238928   2.224   4.383   1.352  1.1424  0.2268 -0.4619
 5765TIP3   OH238929   2.420   0.974   6.707 -0.1133 -0.0388 -0.1995
 5765TIP3    H138930   2.383   0.901   6.756 -1.5583  1.3509  0.8684
 5765TIP3    H238931   2.505   0.990   6.748 -0.6857  0.1803  0.9233
 5766TIP3   OH238932   0.704   0.757   1.062 -0.1366  0.7293 -0.2985
 5766TIP3    H138933   0.655   0.836   1.083 -1.6068 -0.3334  0.3697
 5766TIP3    H238934   0.735   0.725   1.147  0.3318  0.5001 -0.5519
 5767TIP3   OH238935   6.073   2.578   0.343  0.1792  0.3539 -0.1557
 5767TIP3    H138936   6.057   2.664   0.304 -0.4322 -0.4221 -1.6760
 5767TIP3    H238937   6.018   2.518   0.294  1.1021 -1.0316  0.4293
 5768TIP3   OH238938   1.410   4.772   7.002  0.2908  0.4044  0.3255
 5768TIP3    H138939   1.391   4.745   6.912 -1.1639  0.7262  0.5179
 5768TIP3    H238940   1.342   4.836   7.023  1.3667  1.2863  1.2297
 5769TIP3   OH238941   4.456   1.319   6.853 -0.1646  0.0229 -0.0783
 5769TIP3    H138942   4.435   1.276   6.770  0.4468  0.6278 -0.5617
 5769TIP3    H238943   4.500   1.400   6.827  1.0174 -0.2871  0.8382
 5770TIP3   OH238944   4.917   2.895   7.068  0.0706 -0.1754  0.2652
 5770TIP3    H138945   5.003   2.938   7.067 -0.6010  1.3091  1.6801
 5770TIP3    H238946   4.875   2.927   7.148 -1.4642 -1.5835  0.0753
 5771TIP3   OH238947   5.180   1.358   0.743  0.2717 -0.0540  0.0393
 5771TIP3    H138948   5.101   1.386   0.696  0.4147 -1.2933 -1.0029
 5771TIP3    H238949   5.153   1.354   0.835 -0.9875 -0.7441 -0.3365
 5772TIP3   OH238950   4.685   4.743   2.035  0.0224  0.3596 -0.1726
 5772TIP3    H138951   4.764   4.792   2.056  0.6682 -0.5532 -0.3687
 5772TIP3    H238952   4.653   4.712   2.120  0.1313  0.3628 -0.1301
 5773TIP3   OH238953   5.501   5.225   0.301  0.0851  0.8583  0.2418
 5773TIP3    H138954   5.521   5.200   0.211 -1.6289 -0.3637  0.1545
 5773TIP3    H238955   5.555   5.167   0.355 -0.6413 -0.0865 -0.0116
 5774TIP3   OH238956   6.296   6.267   1.283 -0.0375  0.2539  0.1545
 5774TIP3    H138957   6.251   6.229   1.359 -1.9131 -0.3269 -1.1856
 5774TIP3    H238958   6.331   6.350   1.316  0.6983 -0.7349  2.0791
 5775TIP3   OH238959   0.809   5.077   2.032 -0.3978 -0.4835  0.3007
 5775TIP3    H138960   0.903   5.060   2.035 -0.6838 -2.0353  1.2523
 5775TIP3    H238961   0.769   4.990   2.022 -1.6986  0.2464 -1.3921
 5776TIP3   OH238962   5.322   2.103   6.406 -0.2355  0.0547 -0.1523
 5776TIP3    H138963   5.330   2.043   6.331  1.0445 -0.3200  0.2597
 5776TIP3    H238964   5.237   2.145   6.393 -0.4888 -0.7316 -1.2778
 5777TIP3   OH238965   4.798   6.064   1.372  0.2555 -0.5471  0.7843
 5777TIP3    H138966   4.766   6.001   1.436  0.2529 -0.7097  0.6249
 5777TIP3    H238967   4.743   6.051   1.295 -1.0786  1.0339  1.4122
 5778TIP3   OH238968   1.608   2.771   8.180  0.2222  0.3886  0.0433
 5778TIP3    H138969   1.565   2.821   8.249  1.5895 -0.6433  1.7067
 5778TIP3    H238970   1.664   2.835   8.136  2.8003  0.2548  2.8466
 5779TIP3   OH238971   1.596   5.391   7.163 -0.0747 -0.0849 -0.4180
 5779TIP3    H138972   1.527   5.384   7.228 -0.9375  1.3364 -1.1247
 5779TIP3    H238973   1.590   5.482   7.132  1.0680 -0.3950 -1.6372
 5780TIP3   OH238974   0.230   0.649   7.865 -0.1278  0.2251 -0.2062
 5780TIP3    H138975   0.206   0.742   7.869 -2.7818 -0.3950  0.0199
 5780TIP3    H238976   0.152   0.603   7.893  1.5217 -2.0869  0.9173
 5781TIP3   OH238977   5.787   3.652   6.904 -0.8476  0.1377 -0.0689
 5781TIP3    H138978   5.789   3.572   6.851 -1.3553 -0.9113  1.4181
 5781TIP3    H238979   5.694   3.665   6.924 -0.9201  1.8187 -1.2686
 5782TIP3   OH238980   3.467   1.484   1.500 -0.6140 -0.2256 -0.2429
 5782TIP3    H138981   3.390   1.523   1.541 -0.2455 -0.2045  0.4548
 5782TIP3    H238982   3.433   1.414   1.445 -1.3546  1.5187 -2.0872
 5783TIP3   OH238983   5.071   2.192   8.453 -0.5117  0.3985 -0.7507
 5783TIP3    H138984   5.039   2.271   8.409  2.8257  1.5378 -1.3540
 5783TIP3    H238985   5.111   2.140   8.384 -1.6084 -1.3503 -0.1536
 5784TIP3   OH238986   0.511   4.188   0.140  1.0915 -0.7277 -0.6088
 5784TIP3    H138987   0.571   4.165   0.211 -1.0166 -4.9907  0.1432
 5784TIP3    H238988   0.442   4.239   0.184  1.9676  0.5132 -0.6154
 5785TIP3   OH238989   3.565   4.542   2.545  0.1250 -0.2584  0.3053
 5785TIP3    H138990   3.647   4.584   2.572  1.3157 -0.8578 -2.1150
 5785TIP3    H238991   3.575   4.451   2.573 -0.1306 -0.1419  0.7943
 5786TIP3   OH238992   1.058   1.278   1.762  0.2819  0.3499 -0.4414
 5786TIP3    H138993   1.016   1.315   1.840 -1.4777 -2.3203 -0.0084
 5786TIP3    H238994   1.079   1.188   1.787  0.7427 -0.2070 -2.6841
 5787TIP3   OH238995   4.434   5.844   1.766  0.8329  0.5109  0.1738
 5787TIP3    H138996   4.412   5.923   1.815  0.1806 -0.6219  1.8010
 5787TIP3    H238997   4.527   5.854   1.745  0.5918  2.0182 -0.3299
 5788TIP3   OH238998   6.346   2.336   1.939 -0.2665 -0.0634  0.2106
 5788TIP3    H138999   6.257   2.367   1.921  0.0548  1.3234  0.8669
 5788TIP3    H239000   6.372   2.383   2.018  1.6130  0.7452 -0.8204
 5789TIP3   OH239001   4.831   2.273   0.694 -0.2030 -0.2015  0.2028
 5789TIP3    H139002   4.864   2.339   0.634 -1.5519  0.0349 -0.3242
 5789TIP3    H239003   4.788   2.208   0.638  1.6432 -1.8984  0.6599
 5790TIP3   OH239004   2.233   3.181   1.626 -0.7401 -0.0617 -0.2743
 5790TIP3    H139005   2.179   3.229   1.689  0.3259 -1.1641  1.6026
 5790TIP3    H239006   2.214   3.089   1.645 -0.4152 -0.4275 -1.6293
 5791TIP3   OH239007   4.120   3.069   7.825  0.2183 -0.0983 -0.0045
 5791TIP3    H139008   4.169   3.144   7.859  2.3965 -0.8129 -1.4022
 5791TIP3    H239009   4.163   2.993   7.862 -1.4492 -0.7378  0.7188
 5792TIP3   OH239010   5.534   1.817   7.201 -0.3478 -0.8194  0.5067
 5792TIP3    H139011   5.447   1.850   7.222 -0.1099 -0.7261  1.3548
 5792TIP3    H239012   5.577   1.889   7.154 -0.0668 -0.1532  1.7559
 5793TIP3   OH239013   0.344   0.914   8.874 -0.0097 -0.4250  0.1277
 5793TIP3    H139014   0.308   0.960   8.949 -0.0983  1.1757 -0.8559
 5793TIP3    H239015   0.438   0.911   8.890  0.2765  2.0758 -0.7900
 5794TIP3   OH239016   4.400   6.513   1.299 -0.2823  0.3637  0.3275
 5794TIP3    H139017   4.348   6.439   1.330  0.0467  0.6908  1.7571
 5794TIP3    H239018   4.427   6.489   1.211 -1.8671 -0.3222  0.0047
 5795TIP3   OH239019   1.154   2.638   0.450  0.3438 -0.0867  0.0244
 5795TIP3    H139020   1.100   2.693   0.392 -0.1819 -0.1456  0.4474
 5795TIP3    H239021   1.174   2.560   0.397  1.5559  0.7327 -0.7701
 5796TIP3   OH239022   4.884   2.970   8.741  0.1599 -0.2913  0.7442
 5796TIP3    H139023   4.794   2.973   8.708  0.6698  1.4586 -0.6103
 5796TIP3    H239024   4.897   2.878   8.765 -1.0970 -1.1614 -1.5983
 5797TIP3   OH239025   0.709   2.593   9.010 -0.0824  0.3247 -0.3410
 5797TIP3    H139026   0.684   2.635   9.092  1.8093 -1.1290  1.0894
 5797TIP3    H239027   0.756   2.514   9.037  2.2658  0.7355 -2.7982
 5798TIP3   OH239028   4.915   0.858   0.572  0.0567 -0.0042 -0.3871
 5798TIP3    H139029   4.995   0.893   0.612 -1.2110  1.3716  1.0728
 5798TIP3    H239030   4.874   0.934   0.530 -0.8702 -0.5222 -0.4433
 5799TIP3   OH239031   5.121   3.503   7.628 -0.0104  0.6243  0.0266
 5799TIP3    H139032   5.187   3.451   7.582  0.5763  1.3996 -0.0185
 5799TIP3    H239033   5.056   3.438   7.656  0.0779  0.0230 -1.0934
 5800TIP3   OH239034   1.491   2.440   0.927  0.0452 -0.4127  0.0268
 5800TIP3    H139035   1.404   2.475   0.948  1.2851  2.7825  0.4112
 5800TIP3    H239036   1.523   2.404   1.010  0.8301  2.7400  1.2513
 5801TIP3   OH239037   2.054   3.788   8.587  0.3670  0.3075  0.8747
 5801TIP3    H139038   1.992   3.849   8.548  0.2716 -1.5333 -2.2593
 5801TIP3    H239039   2.038   3.793   8.681 -3.8283  0.6775  0.3391
 5802TIP3   OH239040   4.402   2.681   0.107  0.0360  0.4384  0.1168
 5802TIP3    H139041   4.352   2.602   0.086 -0.3684  0.7679 -0.1819
 5802TIP3    H239042   4.357   2.719   0.182  0.0763  0.5237  0.0986
 5803TIP3   OH239043   4.974   1.771   8.018 -0.2297 -0.1897  0.0455
 5803TIP3    H139044   4.989   1.678   8.003 -1.0382 -0.2707 -0.3242
 5803TIP3    H239045   4.905   1.773   8.084 -0.5306  0.1450 -0.2761
 5804TIP3   OH239046   5.618   0.491   1.488  0.5511 -1.0394 -0.1264
 5804TIP3    H139047   5.605   0.481   1.394 -0.6067 -0.5198 -0.0378
 5804TIP3    H239048   5.598   0.583   1.506 -0.0031 -1.3095  0.7287
 5805TIP3   OH239049   3.453   3.315   0.184 -0.4782 -0.1223  0.9428
 5805TIP3    H139050   3.455   3.261   0.262 -1.9363  1.3780  2.0824
 5805TIP3    H239051   3.522   3.381   0.199 -0.7021  0.1150  0.9431
 5806TIP3   OH239052   2.747   6.641   9.032 -0.0832 -0.3026  0.5430
 5806TIP3    H139053   2.683   6.611   8.967 -0.0068 -0.1557  0.3977
 5806TIP3    H239054   2.713   6.726   9.060 -1.1412 -1.1924  2.1056
 5807TIP3   OH239055   3.197   6.321   0.410 -0.6183  0.1696 -0.4523
 5807TIP3    H139056   3.251   6.245   0.432 -3.4536 -1.6013  1.0090
 5807TIP3    H239057   3.200   6.325   0.314  1.8207  0.0573 -0.4532
 5808TIP3   OH239058   1.613   5.432   6.651 -0.3638  0.4065 -0.2849
 5808TIP3    H139059   1.538   5.373   6.650 -0.5306  0.6057  0.3115
 5808TIP3    H239060   1.575   5.520   6.650 -0.1188  0.5165 -1.0177
 5809TIP3   OH239061   6.257   4.540   0.944 -0.2687 -0.1990 -0.1280
 5809TIP3    H139062   6.230   4.550   1.035  1.3530 -1.9315  0.6133
 5809TIP3    H239063   6.350   4.564   0.943  0.2365 -1.9698 -0.8946
 5810TIP3   OH239064   0.533   5.465   1.051 -0.4364  0.4513 -0.2209
 5810TIP3    H139065   0.587   5.505   0.982 -0.6257  0.4550 -0.3652
 5810TIP3    H239066   0.443   5.484   1.026 -0.4803  1.6280  0.7300
 5811TIP3   OH239067   6.536   4.244   0.840  0.1620 -0.1040 -0.3148
 5811TIP3    H139068   6.453   4.292   0.837  0.7802  1.0571  0.4258
 5811TIP3    H239069   6.567   4.256   0.930  1.5252  0.1848 -0.8000
 5812TIP3   OH239070   5.032   2.872   0.889  0.0953 -0.1449  0.2274
 5812TIP3    H139071   5.087   2.943   0.855 -2.1902  1.3556 -0.5349
 5812TIP3    H239072   4.962   2.916   0.936 -0.3897 -2.0132  1.3576
 5813TIP3   OH239073   5.232   0.449   0.254 -0.1067 -0.4269 -0.0163
 5813TIP3    H139074   5.166   0.469   0.320 -1.1256 -3.0553 -0.1141
 5813TIP3    H239075   5.256   0.357   0.271  1.3236 -0.4487 -1.8488
 5814TIP3   OH239076   2.717   2.612   8.336 -0.8101  0.6813 -0.0083
 5814TIP3    H139077   2.736   2.655   8.419 -0.8666  0.4583  0.1194
 5814TIP3    H239078   2.803   2.596   8.297 -0.7549  0.1080  0.3496
 5815TIP3   OH239079   0.708   2.753   0.421  0.2913  0.2742  0.3475
 5815TIP3    H139080   0.653   2.772   0.498  0.2473 -0.4791  0.5134
 5815TIP3    H239081   0.761   2.679   0.448  0.5125  0.2140 -0.2431
 5816TIP3   OH239082   6.423   4.810   0.324 -0.3730 -0.1032 -0.0229
 5816TIP3    H139083   6.466   4.850   0.400  0.8763 -0.1583 -0.6631
 5816TIP3    H239084   6.342   4.773   0.358 -0.6796  1.3718  0.9484
 5817TIP3   OH239085   5.256   6.192   1.903  0.0373 -0.0237  0.3913
 5817TIP3    H139086   5.256   6.273   1.853 -1.0892  0.0831  0.5442
 5817TIP3    H239087   5.164   6.173   1.918  0.0661 -2.6965 -1.8756
 5818TIP3   OH239088   6.644   1.251   0.480 -0.3863  0.1327 -0.0687
 5818TIP3    H139089   6.549   1.241   0.473 -0.4909  0.5861  0.6074
 5818TIP3    H239090   6.672   1.173   0.529 -1.0585  2.2094  4.1358
 5819TIP3   OH239091   1.644   6.334   7.684  0.4396 -0.1026 -0.4772
 5819TIP3    H139092   1.603   6.376   7.608 -1.5729 -2.0203 -0.5716
 5819TIP3    H239093   1.707   6.273   7.646  0.2203 -0.2791 -0.5599
 5820TIP3   OH239094   2.951   5.366   0.017  0.6442  0.7654 -0.3900
 5820TIP3    H139095   2.860   5.351  -0.006  0.4851 -2.7129  1.7779
 5820TIP3    H239096   2.998   5.367  -0.066 -1.2161  1.9502 -1.4907
 5821TIP3   OH239097   3.286   2.350   0.606  0.0098  0.4446 -0.2453
 5821TIP3    H139098   3.250   2.270   0.643 -2.7863  0.9150 -1.7020
 5821TIP3    H239099   3.372   2.325   0.573 -0.3884 -1.6925  0.2089
 5822TIP3   OH239100   3.896   6.247   8.594  0.7601 -0.1312  0.6791
 5822TIP3    H139101   3.875   6.336   8.564 -0.8895 -0.6618  0.1700
 5822TIP3    H239102   3.991   6.241   8.585  0.9508  1.6852  1.0304
 5823TIP3   OH239103   3.827   0.538   1.005  0.2833  0.7800  0.3982
 5823TIP3    H139104   3.800   0.554   0.915  0.9083  1.2374  0.2864
 5823TIP3    H239105   3.906   0.483   0.998 -0.9477 -1.1557  0.7367
 5824TIP3   OH239106   4.158   0.017   7.709 -0.5472 -0.3498 -0.0542
 5824TIP3    H139107   4.194   0.106   7.708 -0.8552 -0.1046  2.9470
 5824TIP3    H239108   4.108   0.011   7.627 -0.1662  2.0687 -0.5493
 5825TIP3   OH239109   2.421   5.643   7.356 -0.2227  0.0511 -0.1481
 5825TIP3    H139110   2.509   5.660   7.321  0.3702 -1.1781  0.6835
 5825TIP3    H239111   2.364   5.652   7.280  0.5244  1.4220 -0.6055
 5826TIP3   OH239112   0.686   3.767   2.558 -0.2597  0.2133 -0.3340
 5826TIP3    H139113   0.626   3.781   2.631 -0.6274 -0.4174 -0.5179
 5826TIP3    H239114   0.701   3.855   2.523  1.1942  0.7725  1.4880
 5827TIP3   OH239115   6.236   5.186   8.692  0.1558 -0.2852  0.2560
 5827TIP3    H139116   6.235   5.216   8.782  0.2402 -1.7574  0.7835
 5827TIP3    H239117   6.304   5.117   8.691  0.5365  0.0866 -1.0526
 5828TIP3   OH239118   3.965   6.538   7.317  0.2969 -0.0366 -0.5515
 5828TIP3    H139119   4.015   6.611   7.355  0.9908 -1.3711  1.2159
 5828TIP3    H239120   3.880   6.577   7.295  0.7416  1.3692  0.0706
 5829TIP3   OH239121   6.349   6.001   1.228 -0.0771  0.7822 -0.2742
 5829TIP3    H139122   6.363   5.973   1.138 -0.0090  0.7571 -0.2560
 5829TIP3    H239123   6.333   6.095   1.223  1.2877  1.0437 -0.1808
 5830TIP3   OH239124   0.205   2.747   8.874 -0.4107  0.3922 -0.3379
 5830TIP3    H139125   0.280   2.802   8.896 -0.2501  0.4475 -0.9950
 5830TIP3    H239126   0.150   2.803   8.819  0.0722 -0.2865 -1.5622
 5831TIP3   OH239127   6.455   2.860   1.925  0.0228 -0.2355  0.1351
 5831TIP3    H139128   6.444   2.770   1.895  0.2232 -0.3846  0.5087
 5831TIP3    H239129   6.525   2.856   1.990  0.3123  0.2552 -0.1386
 5832TIP3   OH239130   5.729   4.012   0.022  0.0490 -0.0492  0.3770
 5832TIP3    H139131   5.806   4.045   0.066  1.3460  0.6863 -2.2733
 5832TIP3    H239132   5.681   4.090  -0.007 -0.8667 -0.5032  0.6073
 5833TIP3   OH239133   2.303   1.813   8.105  0.3501 -0.9109  0.4881
 5833TIP3    H139134   2.366   1.776   8.044  0.2236 -1.7362  0.8521
 5833TIP3    H239135   2.311   1.759   8.183  0.7559  0.3289  1.3468
 5834TIP3   OH239136   0.697   3.854   7.358  0.2553 -0.7024  0.4210
 5834TIP3    H139137   0.788   3.882   7.367  0.4400 -0.8582 -0.7631
 5834TIP3    H239138   0.680   3.858   7.264 -0.7459 -1.3497  0.5580
 5835TIP3   OH239139   1.955   0.521   0.412 -0.0397  0.0047 -0.7819
 5835TIP3    H139140   1.948   0.537   0.318 -0.6923 -0.3888 -0.8127
 5835TIP3    H239141   2.046   0.540   0.434 -0.0709  0.8469 -1.3453
 5836TIP3   OH239142   3.594   1.865   1.134 -0.5618  0.0882 -0.3609
 5836TIP3    H139143   3.540   1.829   1.063  0.1776 -0.0820 -0.8444
 5836TIP3    H239144   3.584   1.802   1.205 -0.0410 -0.5789 -0.8714
 5837TIP3   OH239145   6.435   5.116   1.474  0.1732  0.0805 -0.0828
 5837TIP3    H139146   6.423   5.082   1.563  1.8370  2.2499  1.0486
 5837TIP3    H239147   6.364   5.179   1.463  2.1950  2.8126  1.3751
 5838TIP3   OH239148   2.570   1.492   8.163 -0.2550 -0.2690 -0.3391
 5838TIP3    H139149   2.521   1.461   8.239 -1.2448  1.0368 -0.4259
 5838TIP3    H239150   2.527   1.573   8.137  0.0704 -0.6733 -2.3030
 5839TIP3   OH239151   1.761   5.722   0.946  0.7679 -0.3253  0.2283
 5839TIP3    H139152   1.856   5.728   0.937  0.7441  0.1907  0.2708
 5839TIP3    H239153   1.727   5.775   0.874  0.5113 -0.7066  0.0697
 5840TIP3   OH239154   6.090   3.413   0.670  0.2127 -0.0477  0.2733
 5840TIP3    H139155   6.123   3.331   0.635  0.9150 -0.3022  1.4792
 5840TIP3    H239156   6.031   3.446   0.602 -0.0395 -1.5092 -0.2477
 5841TIP3   OH239157   3.137   5.370   7.685 -0.4627  0.1140  0.6279
 5841TIP3    H139158   3.205   5.303   7.681  0.4979  1.1143 -0.8362
 5841TIP3    H239159   3.161   5.424   7.759  1.4542  1.5152 -0.9145
 5842TIP3   OH239160   1.948   5.358   0.323  0.6539 -0.4054 -0.1252
 5842TIP3    H139161   1.898   5.355   0.404  0.5845 -1.0074 -0.1850
 5842TIP3    H239162   1.920   5.281   0.274  1.0760 -0.3336 -0.4931
 5843TIP3   OH239163   1.027   5.086   7.457  0.2686  0.6317 -0.4323
 5843TIP3    H139164   1.048   5.123   7.372 -0.8104  1.3788 -0.3899
 5843TIP3    H239165   0.939   5.048   7.446  0.2057  0.5513  0.2873
 5844TIP3   OH239166   2.992   4.767   7.979 -0.2277  0.3258 -0.0831
 5844TIP3    H139167   2.988   4.716   7.898  1.2999  1.3442 -0.8474
 5844TIP3    H239168   3.039   4.711   8.041  1.1186  0.6138 -0.8074
 5845TIP3   OH239169   2.758   2.780   8.529  0.0354  0.3576  0.2759
 5845TIP3    H139170   2.799   2.784   8.616  1.1241  0.8389 -0.2379
 5845TIP3    H239171   2.682   2.838   8.536 -0.6295 -0.5905  1.2682
 5846TIP3   OH239172   4.014   3.978   0.583  0.3047  0.0857  0.0550
 5846TIP3    H139173   4.097   3.931   0.572  1.7463  1.5849  3.0910
 5846TIP3    H239174   3.977   3.942   0.664 -2.0933 -0.5445 -1.2317
 5847TIP3   OH239175   0.246   0.376   7.327 -0.4902  0.5264 -0.1083
 5847TIP3    H139176   0.227   0.438   7.256 -1.9790 -0.8260 -0.9582
 5847TIP3    H239177   0.326   0.409   7.367  1.1341  0.6711 -3.2006
 5848TIP3   OH239178   6.166   0.737   7.185 -0.1737 -0.0182 -0.2016
 5848TIP3    H139179   6.077   0.769   7.195  0.3043  0.7422  2.3693
 5848TIP3    H239180   6.161   0.644   7.206 -0.4953 -0.1694 -0.9417
 5849TIP3   OH239181   1.213   2.369   6.813  0.2306  0.4725 -0.6404
 5849TIP3    H139182   1.183   2.455   6.783 -1.1358  1.4006  2.9008
 5849TIP3    H239183   1.136   2.312   6.803  0.0845  0.5351  0.0877
 5850TIP3   OH239184   5.112   1.354   1.052  0.5514 -0.5722 -0.1235
 5850TIP3    H139185   5.043   1.420   1.051  1.6760  0.6579  0.3327
 5850TIP3    H239186   5.131   1.340   1.144  1.9217  0.2406 -0.2521
 5851TIP3   OH239187   6.306   5.519   8.060  0.5729 -0.1854  0.2124
 5851TIP3    H139188   6.361   5.534   8.137  0.2013 -0.2943  0.4986
 5851TIP3    H239189   6.217   5.530   8.091  0.4058 -0.5020 -0.1413
 5852TIP3   OH239190   1.182   4.554   7.611 -0.3048  0.0542  0.2342
 5852TIP3    H139191   1.120   4.627   7.615 -0.6763 -0.1247 -1.4477
 5852TIP3    H239192   1.133   4.484   7.568 -0.0667 -1.3418  2.0810
 5853TIP3   OH239193   4.101   4.169   0.077 -0.0637 -0.3059 -0.1986
 5853TIP3    H139194   4.034   4.235   0.058 -0.5420 -1.0299 -1.0855
 5853TIP3    H239195   4.097   4.159   0.172  1.4017  2.3666  0.2512
 5854TIP3   OH239196   1.663   4.744   7.081 -0.5792  0.0395 -0.3592
 5854TIP3    H139197   1.709   4.678   7.028  0.0893 -0.3292  0.6643
 5854TIP3    H239198   1.579   4.755   7.036  0.7964  1.4291 -2.8271
 5855TIP3   OH239199   2.038   5.587   0.912 -0.0297  0.3978  0.2031
 5855TIP3    H139200   1.999   5.575   0.998  0.1578  2.4838  0.6208
 5855TIP3    H239201   2.127   5.617   0.930  0.9333 -1.6868 -0.7513
 5856TIP3   OH239202   2.582   5.908   7.739 -0.6239  0.0421  0.3615
 5856TIP3    H139203   2.542   5.985   7.698 -1.4675 -0.5488  0.0260
 5856TIP3    H239204   2.512   5.842   7.739 -0.6820  0.0162  2.8083
 5857TIP3   OH239205   0.488   1.614   8.455  1.2735  0.1738  0.0724
 5857TIP3    H139206   0.486   1.558   8.532  0.2126 -0.5286 -0.4383
 5857TIP3    H239207   0.538   1.690   8.482  3.3013 -1.2713  0.6143
 5858TIP3   OH239208   5.022   1.759   7.164  0.0369 -0.1569  0.0017
 5858TIP3    H139209   4.968   1.809   7.103  0.8969 -1.7657 -2.2060
 5858TIP3    H239210   4.961   1.699   7.207 -0.2866 -0.4757 -0.8785
 5859TIP3   OH239211   2.061   0.088   0.569  0.6476  0.0046  0.4337
 5859TIP3    H139212   2.136   0.140   0.597 -0.2873  1.3021  0.6495
 5859TIP3    H239213   1.985   0.136   0.602 -0.3378 -0.4601 -1.0490
 5860TIP3   OH239214   3.564   3.205   8.009 -0.4134  0.5651  0.1179
 5860TIP3    H139215   3.522   3.243   8.087 -1.0244 -0.0301  0.0793
 5860TIP3    H239216   3.523   3.250   7.935  0.1226  1.0849  0.1214
 5861TIP3   OH239217   4.848   3.883   1.486 -0.5182 -0.5993 -0.3584
 5861TIP3    H139218   4.760   3.914   1.462 -0.9949 -1.1078  0.6861
 5861TIP3    H239219   4.902   3.962   1.489 -0.6327 -0.3924 -2.1518
 5862TIP3   OH239220   0.784   5.585   7.908  0.3135 -0.1681 -0.4586
 5862TIP3    H139221   0.707   5.557   7.859 -0.7392  1.1641  0.3778
 5862TIP3    H239222   0.829   5.646   7.850 -0.1324  0.2658 -0.3575
 5863TIP3   OH239223   6.203   4.359   7.717 -0.0720 -0.2140  0.0589
 5863TIP3    H139224   6.200   4.454   7.713  0.5846 -0.2452 -2.4440
 5863TIP3    H239225   6.295   4.338   7.732  0.1947 -0.4574 -1.7471
 5864TIP3   OH239226   4.442   5.942   0.442 -0.4239 -0.1303  0.2885
 5864TIP3    H139227   4.524   5.908   0.405  0.2775  1.3188  0.4244
 5864TIP3    H239228   4.450   5.927   0.536  0.1502  0.8840  0.4176
 5865TIP3   OH239229   4.577   1.241   0.466 -0.2002 -0.0361 -0.0131
 5865TIP3    H139230   4.485   1.257   0.487 -0.0933  1.9530 -0.8274
 5865TIP3    H239231   4.624   1.258   0.547 -0.4726 -0.2718  0.1961
 5866TIP3   OH239232   5.212   0.431   7.541  0.7478  0.0082  0.3345
 5866TIP3    H139233   5.242   0.353   7.588  0.7388  0.9271  1.9283
 5866TIP3    H239234   5.217   0.502   7.605 -2.2500  0.7495 -0.0930
 5867TIP3   OH239235   2.113   0.784   0.957 -0.2278 -0.2535  0.8325
 5867TIP3    H139236   2.031   0.734   0.953 -0.3331 -0.0348  0.1861
 5867TIP3    H239237   2.181   0.717   0.967 -0.3716 -0.5308  0.0024
 5868TIP3   OH239238   3.311   5.497   9.082 -0.0290 -0.0942  0.0812
 5868TIP3    H139239   3.393   5.473   9.123  1.1980  2.0272 -0.9325
 5868TIP3    H239240   3.280   5.416   9.041  2.3368 -0.6444 -0.7763
 5869TIP3   OH239241   2.465   1.349   8.427  0.0738  0.4382 -0.8438
 5869TIP3    H139242   2.445   1.268   8.474  0.6380  2.3637  3.1525
 5869TIP3    H239243   2.383   1.399   8.430  0.5107  1.1533 -0.6856
 5870TIP3   OH239244   1.535   5.428   6.101 -0.2110  0.3428  0.0919
 5870TIP3    H139245   1.524   5.374   6.180 -0.8811 -1.0835 -0.9289
 5870TIP3    H239246   1.623   5.466   6.110  0.0980 -0.5531  1.0784
 5871TIP3   OH239247   2.102   2.896   7.334 -0.9185  0.4016  0.3946
 5871TIP3    H139248   2.021   2.874   7.289 -0.4490  0.5141 -0.5335
 5871TIP3    H239249   2.088   2.868   7.425 -1.1360 -1.7833 -0.2523
 5872TIP3   OH239250   4.293   0.983   8.746  0.2092 -0.1758 -0.9350
 5872TIP3    H139251   4.337   0.901   8.767 -0.4757 -0.1097  0.9053
 5872TIP3    H239252   4.269   1.020   8.831 -0.1112  1.5969 -1.7528
 5873TIP3   OH239253   4.551   2.946   6.412  0.2362  0.5616  0.1768
 5873TIP3    H139254   4.613   2.991   6.356 -0.2634  2.6648  1.2173
 5873TIP3    H239255   4.603   2.879   6.457  1.3001  0.9656 -0.4277
 5874TIP3   OH239256   5.662   5.887   8.157  0.2937 -0.7879  0.2960
 5874TIP3    H139257   5.727   5.927   8.098 -1.2562 -0.4449 -1.2647
 5874TIP3    H239258   5.598   5.956   8.172  0.1476 -1.1953  1.6330
 5875TIP3   OH239259   2.548   3.776   6.715 -0.4693  0.0811  0.0365
 5875TIP3    H139260   2.497   3.699   6.688  0.6835 -0.4598 -0.6599
 5875TIP3    H239261   2.484   3.847   6.715 -0.7932 -0.0011 -3.4626
 5876TIP3   OH239262   6.597   0.760   1.548  0.3072 -0.2069  0.2775
 5876TIP3    H139263   6.596   0.855   1.562 -0.2962  0.1102 -1.6613
 5876TIP3    H239264   6.570   0.724   1.632 -1.4392  1.4461  0.5028
 5877TIP3   OH239265   3.092   4.134   6.046 -0.4622  0.2204  0.3157
 5877TIP3    H139266   3.091   4.230   6.050 -2.1756  0.3204 -1.2698
 5877TIP3    H239267   3.022   4.107   6.105 -0.1954 -0.0344  0.5140
 5878TIP3   OH239268   2.557   3.035   7.253 -0.2080 -0.4719 -0.3881
 5878TIP3    H139269   2.487   3.089   7.291  0.2551 -0.8525  1.0771
 5878TIP3    H239270   2.568   3.069   7.164 -1.2248  0.5807 -0.1351
 5879TIP3   OH239271   0.967   2.930   1.718  0.0840  0.0402 -0.3581
 5879TIP3    H139272   1.048   2.881   1.733 -0.1001 -0.2706 -0.3789
 5879TIP3    H239273   0.943   2.963   1.805 -0.1803 -0.5134 -0.2168
 5880TIP3   OH239274   5.775   3.064   9.082 -0.1691  0.2033 -0.4508
 5880TIP3    H139275   5.825   3.110   9.149 -0.2726  0.4659 -0.5526
 5880TIP3    H239276   5.808   2.974   9.085  1.7667  0.8052 -1.8915
 5881TIP3   OH239277   3.062   6.363   8.566 -0.2849  0.2602  0.2031
 5881TIP3    H139278   3.032   6.286   8.518 -1.0145 -0.4488  1.7303
 5881TIP3    H239279   3.058   6.435   8.502 -0.7864 -0.7194 -0.8938
 5882TIP3   OH239280   3.350   2.941   0.361  0.3108  0.9340 -0.4915
 5882TIP3    H139281   3.285   3.010   0.357 -0.5127  0.2007 -0.1400
 5882TIP3    H239282   3.434   2.986   0.368 -0.2907  1.8869  0.8895
 5883TIP3   OH239283   5.049   6.564   0.202 -0.4785 -0.9222 -0.3537
 5883TIP3    H139284   5.101   6.614   0.265 -0.7983 -1.2491  0.1845
 5883TIP3    H239285   5.114   6.521   0.146 -0.1932 -0.4445 -0.3895
 5884TIP3   OH239286   5.701   3.309   8.889 -0.0631  0.2235 -0.5072
 5884TIP3    H139287   5.770   3.251   8.922 -0.7471 -0.5089 -0.3599
 5884TIP3    H239288   5.745   3.394   8.878  0.6906 -0.0574  0.2475
 5885TIP3   OH239289   5.774   2.509   8.661 -0.0065  0.3528 -0.3431
 5885TIP3    H139290   5.684   2.504   8.631  0.2664  0.8633 -1.3174
 5885TIP3    H239291   5.768   2.510   8.757 -0.8949 -1.6412 -0.3318
 5886TIP3   OH239292   6.041   4.141   7.779  0.6620 -0.1389 -0.3961
 5886TIP3    H139293   6.064   4.234   7.786 -1.1376  0.3106  0.2036
 5886TIP3    H239294   5.945   4.141   7.773  0.6235 -1.9744 -0.2213
 5887TIP3   OH239295   1.951   5.119   1.153  0.0760  0.7850 -0.3012
 5887TIP3    H139296   1.863   5.139   1.185 -0.0765  1.8836 -1.3397
 5887TIP3    H239297   1.964   5.179   1.081  0.4997 -1.4142 -2.1813
 5888TIP3   OH239298   6.219   2.692   1.921 -0.0178 -0.0095  0.2881
 5888TIP3    H139299   6.135   2.650   1.937 -0.9491  1.4643 -0.5057
 5888TIP3    H239300   6.265   2.686   2.005 -1.4474  0.3383  1.1288
 5889TIP3   OH239301   5.028   1.092   7.019  0.1671 -0.1892 -0.1496
 5889TIP3    H139302   5.038   1.059   6.930 -0.8053 -1.2315  0.1063
 5889TIP3    H239303   5.093   1.162   7.026  0.4887 -0.3177 -1.5587
 5890TIP3   OH239304   6.074   3.767   8.126  0.8390 -0.1751  0.0246
 5890TIP3    H139305   6.084   3.794   8.035  1.0634  1.1017  0.4202
 5890TIP3    H239306   5.984   3.735   8.132  0.2431  1.3983 -0.2336
 5891TIP3   OH239307   0.775   2.057   0.390 -0.1919 -0.0189 -0.6430
 5891TIP3    H139308   0.811   2.016   0.312  0.0993 -1.1561  0.0784
 5891TIP3    H239309   0.788   1.993   0.460 -0.1510  1.1052  0.4172
 5892TIP3   OH239310   4.617   4.835   0.058  0.0770 -0.0077 -0.1058
 5892TIP3    H139311   4.580   4.844   0.146 -0.8343  0.7691 -0.5531
 5892TIP3    H239312   4.613   4.923   0.021  0.7778 -0.2594 -0.8003
 5893TIP3   OH239313   4.912   4.591   0.136  0.1701 -0.1701  0.3112
 5893TIP3    H139314   4.995   4.605   0.183 -0.6461  0.0832  1.7339
 5893TIP3    H239315   4.847   4.581   0.206 -1.0775  0.0979 -0.7847
 5894TIP3   OH239316   4.025   2.585   8.459 -0.2631 -0.2124  0.3509
 5894TIP3    H139317   4.025   2.612   8.551 -2.7802 -1.0777  0.6663
 5894TIP3    H239318   4.091   2.641   8.418 -0.1286  1.2265  2.3892
 5895TIP3   OH239319   5.962   1.454   1.659 -0.2652  0.5571  0.1516
 5895TIP3    H139320   5.992   1.421   1.574 -0.0593 -0.0162  0.4416
 5895TIP3    H239321   6.035   1.435   1.719 -0.5688  0.5971  0.5369
 5896TIP3   OH239322   3.989   2.425   8.752  0.2577  0.1432 -0.1262
 5896TIP3    H139323   3.954   2.393   8.836  1.5062  0.7712  0.6597
 5896TIP3    H239324   4.018   2.514   8.771  0.2520  0.4117 -1.3281
 5897TIP3   OH239325   0.129   6.332   8.768 -0.3154 -0.7304  0.2430
 5897TIP3    H139326   0.095   6.312   8.681 -1.2286 -2.3263  0.9324
 5897TIP3    H239327   0.221   6.356   8.753 -0.3470 -1.3556 -1.1102
 5898TIP3   OH239328   3.977   3.500   0.165 -0.3897 -0.8810 -0.1918
 5898TIP3    H139329   3.882   3.507   0.160 -0.6354 -1.8601  1.9482
 5898TIP3    H239330   4.004   3.471   0.077 -1.8209  1.1374 -1.3779
 5899TIP3   OH239331   3.599   2.672   2.076 -0.5094 -0.2509 -0.5202
 5899TIP3    H139332   3.623   2.641   2.164 -0.3561  0.4326 -0.3127
 5899TIP3    H239333   3.505   2.655   2.070 -0.7267  0.6033  0.1728
 5900TIP3   OH239334   3.979   2.043   6.969  0.2651 -0.0172  0.0020
 5900TIP3    H139335   3.978   2.101   6.893  1.5911 -0.7593 -0.6179
 5900TIP3    H239336   3.964   1.956   6.933 -1.1928 -0.1423  0.8610
 5901TIP3   OH239337   4.280   1.316   7.942 -0.1571  0.0378 -0.0758
 5901TIP3    H139338   4.282   1.403   7.982  0.1980 -0.1670  0.3573
 5901TIP3    H239339   4.190   1.285   7.955 -0.0908  0.0486  0.4007
 5902TIP3   OH239340   6.370   3.437   0.601 -0.3556  0.1340 -0.2550
 5902TIP3    H139341   6.461   3.425   0.629 -0.6299  1.1823  1.2305
 5902TIP3    H239342   6.318   3.394   0.669 -0.9802 -0.6394 -1.2047
 5903TIP3   OH239343   3.162   1.573   7.456 -0.9117  0.1515 -0.4838
 5903TIP3    H139344   3.091   1.615   7.408 -0.0240  2.3762  0.0042
 5903TIP3    H239345   3.162   1.616   7.542  0.5645 -0.2867 -0.2310
 5904TIP3   OH239346   1.190   1.487   0.630  0.0740  0.4994  0.2593
 5904TIP3    H139347   1.187   1.480   0.726  0.6234 -0.4307  0.2183
 5904TIP3    H239348   1.224   1.575   0.614 -0.7487  0.9496  0.9040
 5905TIP3   OH239349   5.520   3.452   0.221 -0.1767 -0.2247  0.1763
 5905TIP3    H139350   5.503   3.391   0.149 -1.6777  0.6902 -0.2933
 5905TIP3    H239351   5.443   3.445   0.277  1.4607 -1.7928  2.4127
 5906TIP3   OH239352   1.019   4.761   1.976  0.3450  0.5366  0.1935
 5906TIP3    H139353   1.039   4.774   2.069 -1.8436  0.7874  0.6856
 5906TIP3    H239354   0.941   4.706   1.976  1.0118 -0.4754 -1.5560
 5907TIP3   OH239355   2.685   5.687   7.931  0.0695 -0.4584 -0.0489
 5907TIP3    H139356   2.769   5.660   7.894  0.3053  0.6683 -0.3820
 5907TIP3    H239357   2.650   5.749   7.867 -0.5447 -0.1488  0.5783
 5908TIP3   OH239358   5.989   2.532   7.725  0.3445  0.4286 -0.9072
 5908TIP3    H139359   5.929   2.503   7.794  1.9453 -0.3645  0.2025
 5908TIP3    H239360   5.989   2.628   7.733 -0.6842  0.4339 -0.8559
 5909TIP3   OH239361   1.434   6.337   1.302  0.0454 -0.6129  0.2748
 5909TIP3    H139362   1.455   6.423   1.265 -2.2059 -0.2436 -0.2554
 5909TIP3    H239363   1.383   6.356   1.380  0.9910 -1.4741  1.1237
 5910TIP3   OH239364   5.685   0.405   7.934 -0.3084 -0.0297 -0.0136
 5910TIP3    H139365   5.625   0.340   7.898 -0.0918  0.4363 -1.2548
 5910TIP3    H239366   5.772   0.374   7.911 -0.0365 -0.5917  1.5983
 5911TIP3   OH239367   4.865   0.187   8.554 -0.2017 -0.5250 -0.1413
 5911TIP3    H139368   4.950   0.142   8.551 -0.2204 -0.5171 -1.9138
 5911TIP3    H239369   4.850   0.203   8.647  1.1270 -1.6806  0.3141
 5912TIP3   OH239370   5.352   6.561   8.276  0.5617 -0.1198  0.0344
 5912TIP3    H139371   5.394   6.606   8.203  2.5653 -0.8718  0.6629
 5912TIP3    H239372   5.274   6.520   8.237  0.1074  1.6887 -1.0725
 5913TIP3   OH239373   3.351   3.900   8.070  0.2551  0.0448  0.1648
 5913TIP3    H139374   3.421   3.850   8.027  1.6734  1.5632  0.6011
 5913TIP3    H239375   3.301   3.939   7.999 -0.9081 -1.9538 -0.1862
 5914TIP3   OH239376   3.303   5.529   2.126  0.2045  0.1606  0.3659
 5914TIP3    H139377   3.229   5.588   2.144  0.4768  0.6422 -0.0421
 5914TIP3    H239378   3.357   5.534   2.204  0.0422  0.1697  0.4796
 5915TIP3   OH239379   3.148   3.148   6.472 -0.1302  0.5593  0.2540
 5915TIP3    H139380   3.213   3.080   6.453  0.0701  0.7223  0.3492
 5915TIP3    H239381   3.125   3.183   6.386 -0.6401 -0.0008  0.1622
 5916TIP3   OH239382   3.686   6.380   8.893  0.8617 -0.1400  0.6873
 5916TIP3    H139383   3.659   6.313   8.831 -3.5014 -0.0228  2.1003
 5916TIP3    H239384   3.683   6.336   8.978 -3.4544  1.7786  1.8319
 5917TIP3   OH239385   4.685   6.083   1.112  0.5584  0.3515 -0.4833
 5917TIP3    H139386   4.746   6.157   1.113 -0.3655  1.1309  0.8545
 5917TIP3    H239387   4.622   6.105   1.043  0.5502  0.5734 -0.4031
 5918TIP3   OH239388   1.861   5.998   8.381 -0.2437  0.4699  0.2161
 5918TIP3    H139389   1.929   5.946   8.424 -0.0660 -0.3315 -1.0022
 5918TIP3    H239390   1.786   5.990   8.439  0.1191 -0.2326  0.6139
 5919TIP3   OH239391   0.055   6.320   1.337 -0.1148 -0.5870 -0.3620
 5919TIP3    H139392   0.039   6.313   1.431  1.6805  0.9818  0.1169
 5919TIP3    H239393   0.103   6.403   1.327  2.2358 -2.0523 -2.2860
 5920TIP3   OH239394   5.571   6.552   0.074 -0.4316  0.2394  0.3759
 5920TIP3    H139395   5.640   6.562   0.008 -0.4813  0.9803  0.4299
 5920TIP3    H239396   5.554   6.458   0.076  1.7163 -0.2072  1.5047
 5921TIP3   OH239397   5.499   5.011   8.929 -0.3245 -0.3716  0.6017
 5921TIP3    H139398   5.548   5.091   8.948 -1.9857  0.9922 -0.5396
 5921TIP3    H239399   5.562   4.954   8.885  0.8852  0.3099  1.3883
 5922TIP3   OH239400   4.788   5.292   8.638 -0.5206 -0.2904  0.3674
 5922TIP3    H139401   4.803   5.384   8.617  0.7138 -0.4236  0.5949
 5922TIP3    H239402   4.876   5.252   8.637 -1.0014 -1.3951  0.5779
 5923TIP3   OH239403   3.383   5.611   0.302  0.0839  0.5205  0.2868
 5923TIP3    H139404   3.433   5.577   0.228  0.0164  1.9702 -0.4623
 5923TIP3    H239405   3.449   5.631   0.369  0.3465  0.8920 -0.0779
 5924TIP3   OH239406   0.422   0.579   7.155 -0.3505  0.6159 -0.0606
 5924TIP3    H139407   0.351   0.558   7.095  0.1229 -0.6708 -0.2064
 5924TIP3    H239408   0.476   0.500   7.157  0.5010  1.1932  0.8541
 5925TIP3   OH239409   6.200   3.656   6.758  0.6683  0.1808  0.7403
 5925TIP3    H139410   6.188   3.727   6.821  1.0304  0.7842  0.1430
 5925TIP3    H239411   6.112   3.637   6.726  0.7301  1.5427 -0.3468
 5926TIP3   OH239412   1.438   1.865   1.534  0.1111  0.5269  0.0007
 5926TIP3    H139413   1.460   1.814   1.456  2.1721  0.9583  0.2283
 5926TIP3    H239414   1.368   1.816   1.576 -1.6405  0.7141 -2.5082
 5927TIP3   OH239415   5.986   3.097   7.939 -0.0815 -0.1100 -0.3430
 5927TIP3    H139416   5.903   3.107   7.892 -0.1634  0.3668 -0.1063
 5927TIP3    H239417   6.007   3.186   7.970  0.6373 -0.1825 -0.6007
 5928TIP3   OH239418   3.237   4.072   1.095 -0.0181  0.1601  1.0037
 5928TIP3    H139419   3.266   4.159   1.066  0.7647 -0.5560 -0.5251
 5928TIP3    H239420   3.314   4.033   1.135 -0.4772  0.3012  2.0393
 5929TIP3   OH239421   3.567   1.403   7.165 -0.5642 -0.5215 -0.0346
 5929TIP3    H139422   3.568   1.378   7.257  1.3117 -2.1506 -0.4185
 5929TIP3    H239423   3.547   1.321   7.119  3.6733 -1.1078 -1.2683
 5930TIP3   OH239424   5.868   0.038   8.593  0.5262 -0.3734 -0.4855
 5930TIP3    H139425   5.862  -0.054   8.620  2.6079 -0.3900  0.0962
 5930TIP3    H239426   5.934   0.038   8.523  1.1680  0.7652  0.0845
 5931TIP3   OH239427   6.240   5.052   1.176 -0.0403 -0.0388  0.1234
 5931TIP3    H139428   6.318   5.043   1.230 -0.8026  0.7558  1.4063
 5931TIP3    H239429   6.225   4.964   1.141  0.3663 -0.6389  1.4003
 5932TIP3   OH239430   6.287   5.443   8.506 -0.2116  0.9276 -0.0442
 5932TIP3    H139431   6.251   5.360   8.538  1.6180  0.1221  0.0000
 5932TIP3    H239432   6.277   5.503   8.580  0.7938  0.0370  0.8399
 5933TIP3   OH239433   2.455   4.003   7.460 -0.6761  0.6544 -0.3993
 5933TIP3    H139434   2.513   3.949   7.514  1.0911  1.6442 -1.2273
 5933TIP3    H239435   2.435   4.079   7.515  0.8692  1.5106 -0.9627
 5934TIP3   OH239436   4.296   5.228   8.088 -0.2834  0.1929 -0.1002
 5934TIP3    H139437   4.215   5.249   8.041 -1.6882  0.2557  2.1789
 5934TIP3    H239438   4.266   5.181   8.166  1.9099  0.0483  0.7106
 5935TIP3   OH239439   3.505   0.901   0.095  0.0146  0.3315  0.7991
 5935TIP3    H139440   3.496   0.820   0.146  0.5144 -0.2515 -0.0184
 5935TIP3    H239441   3.427   0.952   0.117  0.0489 -0.0606  1.8685
 5936TIP3   OH239442   1.857   1.495   0.654  0.2703  0.6597 -0.1143
 5936TIP3    H139443   1.880   1.496   0.747  0.3925  0.5440 -0.1426
 5936TIP3    H239444   1.894   1.413   0.621  0.7451  0.9803 -0.3934
 5937TIP3   OH239445   0.663   6.059   8.064  0.3739  0.1138 -0.2766
 5937TIP3    H139446   0.631   6.148   8.049  0.2813 -0.0318 -0.9472
 5937TIP3    H239447   0.721   6.068   8.141 -1.6362  0.2869  1.2997
 5938TIP3   OH239448   5.086   6.539   8.545 -0.2888 -0.1658  0.7448
 5938TIP3    H139449   5.170   6.493   8.552  0.3861  0.9350  0.2016
 5938TIP3    H239450   5.057   6.550   8.635  0.9602  0.8539  1.0447
 5939TIP3   OH239451   0.198   1.100   7.281 -0.0759  0.6339 -0.2479
 5939TIP3    H139452   0.216   1.028   7.342 -1.3100  0.3509 -0.1778
 5939TIP3    H239453   0.136   1.156   7.327  1.7308  2.4181  0.1486
 5940TIP3   OH239454   5.214   5.335   2.146  0.3653 -0.1556  0.3255
 5940TIP3    H139455   5.159   5.262   2.115  0.5215  0.0320 -0.4158
 5940TIP3    H239456   5.174   5.362   2.228 -0.4890 -0.2103 -0.0612
 5941TIP3   OH239457   4.585   0.086   9.013 -0.0219 -0.1394  0.6284
 5941TIP3    H139458   4.643   0.028   9.063 -1.1553 -2.1091 -0.2177
 5941TIP3    H239459   4.511   0.101   9.072 -1.0392 -1.9082 -0.1270
 5942TIP3   OH239460   4.164   3.671   8.741  0.1873  0.1727  0.2728
 5942TIP3    H139461   4.128   3.588   8.709  1.8233  0.0416 -1.3767
 5942TIP3    H239462   4.241   3.646   8.791  0.9784  0.7110 -0.6574
 5943TIP3   OH239463   2.390   0.430   7.413 -0.4251  0.5188  0.0838
 5943TIP3    H139464   2.447   0.469   7.347 -0.1181 -0.6706 -0.3735
 5943TIP3    H239465   2.450   0.382   7.470 -0.9489 -0.6956 -0.3635
 5944TIP3   OH239466   4.452   5.825   8.027 -0.1046  0.0787  0.0214
 5944TIP3    H139467   4.463   5.811   8.121  0.5614  2.2461  0.3275
 5944TIP3    H239468   4.359   5.846   8.018  0.0920  1.1776  0.4168
 5945TIP3   OH239469   0.063   2.979   1.391 -0.3617 -0.6941  0.5305
 5945TIP3    H139470   0.068   3.038   1.466  1.5479 -0.0771 -0.0266
 5945TIP3    H239471   0.003   3.024   1.331  0.5181  0.3680  0.4099
 5946TIP3   OH239472   5.539   2.511   6.796  0.1724  0.0884  0.4488
 5946TIP3    H139473   5.594   2.467   6.731  1.5666  0.4735  1.3261
 5946TIP3    H239474   5.460   2.535   6.748 -0.3147 -2.6175 -0.2704
 5947TIP3   OH239475   3.046   3.579   6.893 -0.2706  0.4038 -0.0177
 5947TIP3    H139476   2.971   3.589   6.835 -0.2184 -0.9292 -0.3348
 5947TIP3    H239477   3.030   3.641   6.964 -1.0722  0.9845 -0.6947
 5948TIP3   OH239478   6.323   0.994   0.739 -0.0445 -0.5549 -0.3652
 5948TIP3    H139479   6.322   0.996   0.835 -3.5365  0.8374 -0.2750
 5948TIP3    H239480   6.345   1.084   0.713 -2.4443  0.0222 -0.6715
 5949TIP3   OH239481   0.001   0.810   6.480 -0.1482  0.3182 -0.0935
 5949TIP3    H139482   0.032   0.853   6.559  3.0691 -1.5651 -0.1684
 5949TIP3    H239483   0.053   0.848   6.409  2.4640 -2.9601 -0.2188
 5950TIP3   OH239484   0.259   0.095   0.300  0.0219  0.0579  0.1776
 5950TIP3    H139485   0.279   0.183   0.331 -0.1984  0.2524 -0.2209
 5950TIP3    H239486   0.211   0.054   0.372  1.9889 -0.4853  1.2351
 5951TIP3   OH239487   1.667   1.995   0.493 -0.6025  0.2622 -0.1753
 5951TIP3    H139488   1.606   2.064   0.516 -1.1502 -0.0815 -0.5731
 5951TIP3    H239489   1.687   1.951   0.576 -1.0611  0.2456 -0.0720
 5952TIP3   OH239490   6.331   3.722   7.813 -0.4194  0.1024 -0.2005
 5952TIP3    H139491   6.342   3.727   7.718  1.8258 -0.2577 -0.0116
 5952TIP3    H239492   6.268   3.792   7.834  0.3678  1.3439 -1.7636
 5953TIP3   OH239493   1.167   0.035   8.312  0.1125  0.0885 -0.0392
 5953TIP3    H139494   1.170   0.017   8.218  0.4786 -0.5357  0.0822
 5953TIP3    H239495   1.112   0.112   8.321  2.4134  1.9714 -1.0514
 5954TIP3   OH239496   1.851   1.112   8.420  0.1400  0.2031  0.9622
 5954TIP3    H139497   1.766   1.111   8.464 -0.3992 -2.4423  0.0395
 5954TIP3    H239498   1.829   1.122   8.327  0.6290 -2.3957  0.5072
 5955TIP3   OH239499   1.175   1.945   0.640 -0.2360  0.0281  0.3985
 5955TIP3    H139500   1.120   1.979   0.570 -1.9995 -2.9983  0.1558
 5955TIP3    H239501   1.246   2.009   0.648 -0.4781  1.0330 -3.4517
 5956TIP3   OH239502   2.965   4.522   8.315 -0.0733  0.0436 -0.0393
 5956TIP3    H139503   2.916   4.440   8.326 -0.1171  0.1724  0.7725
 5956TIP3    H239504   2.907   4.589   8.349  0.4229  0.2773  0.3549
 5957TIP3   OH239505   0.883   4.009   6.772 -0.6001  0.5508 -0.8020
 5957TIP3    H139506   0.807   4.066   6.785 -0.7767  0.2765 -0.6173
 5957TIP3    H239507   0.851   3.922   6.795  0.2487  0.6867  0.9957
 5958TIP3   OH239508   1.714   1.256   0.992 -0.5259  0.2670 -0.3537
 5958TIP3    H139509   1.667   1.204   0.927  0.4779 -0.8454 -0.2185
 5958TIP3    H239510   1.760   1.322   0.941 -0.6487  0.1094 -0.6705
 5959TIP3   OH239511   1.356   0.820   1.404  0.2231  0.6552 -0.7564
 5959TIP3    H139512   1.313   0.854   1.482 -3.8118  1.8504 -3.2115
 5959TIP3    H239513   1.419   0.887   1.379  0.9223  0.6563  0.8872
 5960TIP3   OH239514   0.225   6.157   0.549 -0.4793 -0.6325 -0.0269
 5960TIP3    H139515   0.233   6.186   0.458  0.9312  1.9171  0.7864
 5960TIP3    H239516   0.136   6.183   0.575 -0.4269 -0.1471 -0.3189
 5961TIP3   OH239517   6.288   2.204   1.667  0.2298 -0.2787 -0.0016
 5961TIP3    H139518   6.353   2.215   1.598  0.4979 -1.3047  0.0672
 5961TIP3    H239519   6.333   2.153   1.734 -0.9392 -1.9837 -0.4343
 5962TIP3   OH239520   3.480   0.628   7.834 -0.3592  0.0170  0.0708
 5962TIP3    H139521   3.439   0.556   7.785  0.3154  0.1743 -0.7505
 5962TIP3    H239522   3.496   0.696   7.769 -0.6395  0.7707  0.7705
 5963TIP3   OH239523   6.002   4.982   0.337  0.4011 -0.2878  0.8738
 5963TIP3    H139524   6.067   4.997   0.406  1.5740 -2.0606  0.2281
 5963TIP3    H239525   6.053   4.978   0.256 -0.8756  1.0560 -0.0589
 5964TIP3   OH239526   5.907   4.907   7.312 -0.2426 -0.2320 -0.0604
 5964TIP3    H139527   5.942   4.922   7.400 -0.3437 -1.0541  0.1272
 5964TIP3    H239528   5.942   4.979   7.259 -0.0814  0.1948  0.6232
 5965TIP3   OH239529   0.237   4.816   8.707  0.2553 -0.2407  0.1750
 5965TIP3    H139530   0.208   4.818   8.616  0.7594  1.9133 -0.0036
 5965TIP3    H239531   0.192   4.741   8.745  0.9026 -1.8820 -2.1028
 5966TIP3   OH239532   3.344   5.193   7.766  0.2754 -0.0175 -0.2793
 5966TIP3    H139533   3.389   5.203   7.682 -1.9032  2.9732 -1.2592
 5966TIP3    H239534   3.294   5.113   7.758  1.1930 -0.5126 -1.2440
 5967TIP3   OH239535   2.066   2.958   1.032 -0.2280 -0.1784 -0.1749
 5967TIP3    H139536   2.031   2.950   1.120 -1.8265 -0.0732 -0.7671
 5967TIP3    H239537   2.061   3.052   1.013 -1.8126 -0.4313 -1.1064
 5968TIP3   OH239538   1.778   4.761   7.536 -0.0983  0.2919 -0.1991
 5968TIP3    H139539   1.807   4.830   7.597  0.8026 -0.2475  0.0011
 5968TIP3    H239540   1.682   4.768   7.536 -0.0330  1.4518 -0.0810
 5969TIP3   OH239541   0.113   6.242   7.711 -0.0831  0.2328  0.2394
 5969TIP3    H139542   0.072   6.159   7.736  2.1115 -0.5811  1.3402
 5969TIP3    H239543   0.052   6.280   7.647 -3.5997  0.1019  3.1369
 5970TIP3   OH239544   5.435   6.740   8.033 -0.1998  0.2168 -0.1376
 5970TIP3    H139545   5.365   6.694   7.986 -0.6689 -0.4576  1.1657
 5970TIP3    H239546   5.512   6.728   7.978 -0.6211 -0.9757 -0.5162
 5971TIP3   OH239547   6.156   0.979   2.291  0.5294  0.1631  0.1699
 5971TIP3    H139548   6.095   0.995   2.219  0.5862  0.6803  0.2310
 5971TIP3    H239549   6.233   1.031   2.268  0.4525  0.5280  0.7278
 5972TIP3   OH239550   2.279   2.588   8.064 -0.1923 -0.1115 -0.0550
 5972TIP3    H139551   2.339   2.542   8.123 -1.7832  0.7989  2.4200
 5972TIP3    H239552   2.294   2.681   8.083 -1.3885  0.1606 -0.3849
 5973TIP3   OH239553   1.865   4.866   7.240  0.3667  0.0507  0.5037
 5973TIP3    H139554   1.800   4.818   7.189  0.2218 -0.7227  1.3812
 5973TIP3    H239555   1.923   4.798   7.275  0.9724  0.6372  0.6487
 5974TIP3   OH239556   2.290   0.076   1.397 -0.4933 -0.2055 -0.7551
 5974TIP3    H139557   2.371   0.035   1.430 -0.2531  1.4246  0.8123
 5974TIP3    H239558   2.235   0.002   1.373 -0.4563 -1.6429  2.8735
 5975TIP3   OH239559   3.494   1.753   0.835  0.1497  0.0567 -0.0896
 5975TIP3    H139560   3.472   1.692   0.764  2.4558 -0.5402 -0.3828
 5975TIP3    H239561   3.589   1.752   0.838  0.1383  0.7714  2.4556
 5976TIP3   OH239562   4.494   1.003   2.241 -0.0962 -0.8404 -0.4277
 5976TIP3    H139563   4.472   1.089   2.277  1.2739 -0.8676  0.5545
 5976TIP3    H239564   4.466   0.941   2.308  1.8721 -0.9361  0.3530
 5977TIP3   OH239565   3.317   3.291   1.314 -0.5330  0.2640 -0.0413
 5977TIP3    H139566   3.233   3.297   1.360 -0.3285  3.2408  0.1406
 5977TIP3    H239567   3.311   3.356   1.245  2.0414  1.4771  0.7480
 5978TIP3   OH239568   6.707   2.252   1.522  0.3271  0.2024 -0.3157
 5978TIP3    H139569   6.685   2.333   1.569 -2.0845 -0.9276  0.6699
 5978TIP3    H239570   6.646   2.250   1.448  0.6178 -0.5464 -0.5435
 5979TIP3   OH239571   2.195   1.323   1.391 -0.2074 -0.9282 -0.3124
 5979TIP3    H139572   2.195   1.270   1.311  2.5220 -2.5818  0.6663
 5979TIP3    H239573   2.249   1.399   1.370  0.0809 -1.1039 -0.2156
 5980TIP3   OH239574   2.328   2.527   1.924  0.5855  0.5599 -0.0429
 5980TIP3    H139575   2.343   2.574   1.841  0.5066  1.0261  0.2035
 5980TIP3    H239576   2.377   2.576   1.989  1.5105 -0.4145  0.0205
 5981TIP3   OH239577   4.587   0.978   7.567  0.1464  0.0471 -0.3316
 5981TIP3    H139578   4.510   1.008   7.518 -0.1754  0.3626  0.3643
 5981TIP3    H239579   4.576   0.883   7.571 -0.9466  0.1882  0.9402
 5982TIP3   OH239580   3.594   2.884   6.712  0.0691 -0.6739  0.0163
 5982TIP3    H139581   3.545   2.926   6.783  0.5022 -1.5484  0.8669
 5982TIP3    H239582   3.634   2.956   6.664 -1.1274 -0.0120 -0.0071
 5983TIP3   OH239583   3.459   0.200   8.584 -0.2138  0.1288 -0.4056
 5983TIP3    H139584   3.523   0.143   8.542  0.2281  0.1016  0.2877
 5983TIP3    H239585   3.432   0.152   8.662 -0.3462  0.5678 -0.1793
 5984TIP3   OH239586   4.724   2.260   2.142  0.2706  0.2010 -0.9051
 5984TIP3    H139587   4.629   2.251   2.143  0.3605 -1.1854  0.9213
 5984TIP3    H239588   4.756   2.179   2.183  2.1512  1.2968 -0.0726
 5985TIP3   OH239589   1.828   5.732   0.549  0.2185  0.1329 -0.0206
 5985TIP3    H139590   1.811   5.642   0.577  0.1257  0.4560  1.0245
 5985TIP3    H239591   1.806   5.733   0.456 -0.0867 -0.8422  0.0257
 5986TIP3   OH239592   1.638   3.836   1.115 -0.8757 -0.0336 -0.4257
 5986TIP3    H139593   1.631   3.775   1.189  0.0145  2.6084  2.0075
 5986TIP3    H239594   1.547   3.860   1.095 -1.0827  0.1750  0.6973
 5987TIP3   OH239595   6.080   1.145   0.977  0.4665  0.1020  0.9842
 5987TIP3    H139596   6.021   1.191   0.916 -3.3035 -2.6771  2.1784
 5987TIP3    H239597   6.090   1.205   1.050 -0.8676  0.6790  0.7172
 5988TIP3   OH239598   5.705   3.672   1.443  0.8969  0.1854 -0.0030
 5988TIP3    H139599   5.785   3.637   1.481  0.6050 -3.3124 -2.1281
 5988TIP3    H239600   5.718   3.666   1.348 -0.8586  2.1950 -0.4591
 5989TIP3   OH239601   5.714   3.861   7.824 -0.1171 -0.0027  0.6626
 5989TIP3    H139602   5.782   3.881   7.888  0.5634  2.9466 -0.7922
 5989TIP3    H239603   5.679   3.946   7.799 -4.1492 -1.3497  1.0244
 5990TIP3   OH239604   6.492   4.516   1.562 -0.1956  0.0049 -0.2820
 5990TIP3    H139605   6.509   4.551   1.649 -1.2129 -1.2553  0.4445
 5990TIP3    H239606   6.401   4.540   1.543 -0.9269 -2.1488  0.2395
 5991TIP3   OH239607   6.467   0.187   1.347 -0.5145 -0.3430  0.2257
 5991TIP3    H139608   6.471   0.230   1.432  0.1871 -1.3516  0.7250
 5991TIP3    H239609   6.558   0.174   1.322 -0.6694 -2.3700  0.5507
 5992TIP3   OH239610   3.675   0.442   7.389 -0.3840 -0.4259 -0.1187
 5992TIP3    H139611   3.713   0.354   7.386 -0.9679 -0.6887  0.0691
 5992TIP3    H239612   3.733   0.495   7.334  1.0309 -0.5084  1.2289
 5993TIP3   OH239613   0.557   1.418   8.646 -0.0650  0.4785 -0.0273
 5993TIP3    H139614   0.615   1.401   8.571 -1.3977 -1.8518 -0.6448
 5993TIP3    H239615   0.597   1.492   8.691  1.1568  1.5544 -2.6732
 5994TIP3   OH239616   1.984   1.693   7.471 -0.2954 -0.7004  0.7108
 5994TIP3    H139617   2.009   1.615   7.520 -0.7738 -1.2887  0.0220
 5994TIP3    H239618   1.918   1.663   7.409 -1.2724  0.4538  1.1571
 5995TIP3   OH239619   5.870   5.785   1.523 -0.0696 -0.2998  0.3685
 5995TIP3    H139620   5.793   5.784   1.579  0.3147 -2.2517  0.9567
 5995TIP3    H239621   5.906   5.696   1.531  0.7347 -0.2492 -1.9651
 5996TIP3   OH239622   4.583   3.264   6.417  0.2113 -0.0201 -0.0022
 5996TIP3    H139623   4.602   3.321   6.491 -1.4119  1.4047 -0.6178
 5996TIP3    H239624   4.501   3.220   6.441  0.0204 -0.0428 -0.6914
 5997TIP3   OH239625   0.391   4.009   0.390  0.4071  0.3934 -0.3611
 5997TIP3    H139626   0.440   3.954   0.330  1.2660  0.8196 -0.0604
 5997TIP3    H239627   0.339   3.948   0.442  1.0652 -0.1006 -0.2777
 5998TIP3   OH239628   6.529   2.668   0.322  0.2055 -0.7304  0.0780
 5998TIP3    H139629   6.490   2.583   0.341  0.4152 -0.7971  0.2117
 5998TIP3    H239630   6.493   2.693   0.237  0.5794 -1.2106 -0.2274
 5999TIP3   OH239631   4.581   2.303   6.907 -0.6896  0.6552  0.0015
 5999TIP3    H139632   4.675   2.301   6.893 -0.8035 -1.5403 -0.7165
 5999TIP3    H239633   4.550   2.373   6.848  0.3704  0.7728 -0.4421
 6000TIP3   OH239634   0.545   3.281   8.699 -0.2746 -0.3433 -0.0573
 6000TIP3    H139635   0.627   3.329   8.696  0.3568 -1.3527  0.3888
 6000TIP3    H239636   0.539   3.238   8.613 -2.0908  2.4490 -1.4575
 6001TIP3   OH239637   3.866   4.025   1.154  0.9859 -1.0993  0.0010
 6001TIP3    H139638   3.909   3.966   1.093 -0.3081 -0.9529 -1.0899
 6001TIP3    H239639   3.928   4.097   1.167  1.3533 -1.2361 -0.9733
 6002TIP3   OH239640   3.811   0.004   7.967 -0.1596  0.0719  0.1065
 6002TIP3    H139641   3.877  -0.065   7.982 -0.3865 -0.0588  0.5127
 6002TIP3    H239642   3.861   0.076   7.929 -0.3319 -1.2347 -2.8079
 6003TIP3   OH239643   4.313   4.218   7.139 -0.0463  0.0581  0.0365
 6003TIP3    H139644   4.295   4.198   7.230  3.2955 -0.6443  0.6713
 6003TIP3    H239645   4.375   4.291   7.142  1.6029 -1.1926 -1.5352
 6004TIP3   OH239646   0.352   6.515   2.341 -0.4203 -0.2383  0.5495
 6004TIP3    H139647   0.358   6.444   2.404  1.0429 -1.4245 -0.8436
 6004TIP3    H239648   0.274   6.495   2.290  0.0506 -0.9664  0.0837
 6005TIP3   OH239649   0.233   4.443   0.835 -0.5598  0.0620 -0.4491
 6005TIP3    H139650   0.271   4.389   0.766 -1.6540 -0.5429 -0.5969
 6005TIP3    H239651   0.220   4.383   0.908 -0.3853  0.4676 -0.0788
 6006TIP3   OH239652   4.691   5.075   1.466  0.4205  0.6201 -0.2464
 6006TIP3    H139653   4.724   5.151   1.514  1.1696  0.4201 -0.4317
 6006TIP3    H239654   4.670   5.010   1.534  2.6652 -0.1337 -0.2115
 6007TIP3   OH239655   1.318   2.757   8.408  0.1592 -0.0413  0.2833
 6007TIP3    H139656   1.371   2.677   8.407  0.8614  0.3925  1.5016
 6007TIP3    H239657   1.374   2.822   8.449 -1.3175  0.4380  1.6095
 6008TIP3   OH239658   2.429   2.289   1.670 -0.1382 -0.5310  0.4462
 6008TIP3    H139659   2.455   2.343   1.745 -1.6453 -0.2041  0.7591
 6008TIP3    H239660   2.465   2.203   1.690 -0.4020 -0.4176  1.5027
 6009TIP3   OH239661   3.900   1.698   7.628  0.1714  0.2226 -0.0129
 6009TIP3    H139662   3.983   1.674   7.671 -1.4986 -0.8842  2.9288
 6009TIP3    H239663   3.891   1.635   7.557  2.3058  1.0465 -1.1051
 6010TIP3   OH239664   5.688   4.822   8.893  0.3620  0.0117 -0.0794
 6010TIP3    H139665   5.771   4.795   8.931 -0.0111 -0.6784  0.2649
 6010TIP3    H239666   5.623   4.797   8.959 -0.2636 -0.8615 -0.9981
 6011TIP3   OH239667   6.246   3.796   0.987  0.0233 -0.5467 -0.5654
 6011TIP3    H139668   6.226   3.869   0.929  1.1585  0.2882  0.0605
 6011TIP3    H239669   6.202   3.721   0.946 -3.4212  0.8775  0.1166
 6012TIP3   OH239670   1.767   0.970   0.487 -0.2432 -0.4431 -0.4357
 6012TIP3    H139671   1.795   0.881   0.508 -0.5890 -0.5139 -0.2733
 6012TIP3    H239672   1.752   0.968   0.392 -0.3379 -0.5825 -0.4183
 6013TIP3   OH239673   1.882   6.690   0.238 -0.1065 -0.0136 -0.5669
 6013TIP3    H139674   1.969   6.652   0.229  0.1980  0.4222  0.4575
 6013TIP3    H239675   1.890   6.778   0.202  0.5342  0.9155  1.7136
 6014TIP3   OH239676   0.226   1.481   1.142 -0.4768  0.2180  0.1441
 6014TIP3    H139677   0.231   1.569   1.104 -0.4239  0.4312  0.6400
 6014TIP3    H239678   0.209   1.424   1.067  2.3637  0.2853 -0.6792
 6015TIP3   OH239679   5.316   4.881   8.075  0.0281  0.1801 -0.6328
 6015TIP3    H139680   5.386   4.816   8.069  0.9985  1.0416  0.7436
 6015TIP3    H239681   5.354   4.959   8.035 -1.1614 -0.0849 -2.3627
 6016TIP3   OH239682   5.363   6.529   2.129 -0.0865 -0.2818  0.3799
 6016TIP3    H139683   5.334   6.615   2.158  0.4400  0.5577 -1.4571
 6016TIP3    H239684   5.456   6.525   2.151  0.0277 -0.1279 -0.0567
 6017TIP3   OH239685   4.650   6.398   7.397 -0.2396  0.1870 -0.0169
 6017TIP3    H139686   4.609   6.402   7.483  2.0220 -2.0238  1.2968
 6017TIP3    H239687   4.735   6.442   7.409 -0.2004  0.5490 -1.3682
 6018TIP3   OH239688   2.231   2.698   6.319  0.2919  0.6354  0.5688
 6018TIP3    H139689   2.168   2.627   6.332  0.9011  0.2356  1.4490
 6018TIP3    H239690   2.297   2.661   6.261 -0.4381  1.1726 -0.6536
 6019TIP3   OH239691   2.669   5.615   0.298 -0.6761 -0.0310 -0.0074
 6019TIP3    H139692   2.661   5.613   0.203 -0.3632  0.8830 -0.0574
 6019TIP3    H239693   2.667   5.523   0.324 -0.0125 -0.3286 -0.9617
 6020TIP3   OH239694   5.988   1.740   1.158 -0.1843 -0.6303  0.1758
 6020TIP3    H139695   5.915   1.710   1.104 -0.5090 -0.5289  0.5590
 6020TIP3    H239696   6.065   1.724   1.103 -0.6356  1.1009 -1.0471
 6021TIP3   OH239697   3.646   4.004   2.299 -0.2565  0.1928  0.0361
 6021TIP3    H139698   3.649   4.099   2.306  0.1447  0.2319 -0.5897
 6021TIP3    H239699   3.716   3.973   2.356  0.1573  0.3093 -0.4078
 6022TIP3   OH239700   1.042   0.932   0.799  0.3128  0.5893 -0.3170
 6022TIP3    H139701   0.996   0.848   0.786  1.1372  0.1546 -0.4841
 6022TIP3    H239702   1.075   0.954   0.712  0.8740  0.6307 -0.0962
 6023TIP3   OH239703   3.599   5.067   0.143 -0.6013  0.5672 -0.1312
 6023TIP3    H139704   3.606   5.027   0.229 -0.2028  1.7560  0.4060
 6023TIP3    H239705   3.655   5.013   0.087 -1.2015 -0.4665  0.2422
 6024TIP3   OH239706   2.796   6.176   7.986  0.5457 -0.0805 -0.6667
 6024TIP3    H139707   2.823   6.126   8.063 -0.5324 -2.6746 -1.8380
 6024TIP3    H239708   2.804   6.114   7.913 -2.1686  0.9874 -2.0323
 6025TIP3   OH239709   4.107   2.423   8.207  0.0093  0.7116 -0.1198
 6025TIP3    H139710   4.055   2.400   8.130 -1.2556  0.9435  0.6459
 6025TIP3    H239711   4.099   2.518   8.215  0.0300  0.6752  0.3740
 6026TIP3   OH239712   1.379   4.217   8.644 -0.1770  0.1382 -0.3295
 6026TIP3    H139713   1.465   4.191   8.612 -0.2102 -0.6441  0.1792
 6026TIP3    H239714   1.394   4.296   8.694  0.2973 -0.1582  0.0004
 6027TIP3   OH239715   1.602   0.097   6.571 -0.7162  0.3155 -0.4363
 6027TIP3    H139716   1.656   0.037   6.622 -0.8714 -0.2759 -0.9552
 6027TIP3    H239717   1.602   0.061   6.483  0.3626  1.8628 -1.1165
 6028TIP3   OH239718   5.722   1.182   8.837 -0.1675  0.0532 -0.3798
 6028TIP3    H139719   5.806   1.157   8.876  0.2114  1.6243 -0.0841
 6028TIP3    H239720   5.694   1.106   8.787  0.6382 -1.0756  0.8415
 6029TIP3   OH239721   6.037   5.249   8.504  0.0784  0.1337  0.1991
 6029TIP3    H139722   6.099   5.219   8.570  0.5303 -0.2180 -0.3754
 6029TIP3    H239723   5.980   5.310   8.550  0.5163  0.0448  0.8628
 6030TIP3   OH239724   3.897   2.886   0.590 -0.3931 -0.2675 -0.2611
 6030TIP3    H139725   3.974   2.938   0.567 -0.0963 -1.2314 -1.6174
 6030TIP3    H239726   3.878   2.836   0.511 -2.7323  0.2969 -0.1176
 6031TIP3   OH239727   2.729   4.107   0.841 -0.0163  0.1132  0.1156
 6031TIP3    H139728   2.636   4.127   0.855  0.6092  2.4950  1.2012
 6031TIP3    H239729   2.755   4.059   0.919 -0.2470 -0.3911 -0.1055
 6032TIP3   OH239730   2.655   5.364   7.475  0.3175  0.6348 -0.5155
 6032TIP3    H139731   2.722   5.420   7.436  1.2203  0.3181  0.5508
 6032TIP3    H239732   2.625   5.413   7.552  0.2845  0.1802 -0.2344
 6033TIP3   OH239733   4.133   1.796   8.979 -0.0692  1.0008  0.5214
 6033TIP3    H139734   4.167   1.773   8.892 -0.3618 -1.2018  0.9540
 6033TIP3    H239735   4.051   1.842   8.961 -0.5336 -0.1313 -0.3794
 6034TIP3   OH239736   0.512   0.439   0.322 -0.0401  0.1958  0.1939
 6034TIP3    H139737   0.604   0.452   0.301  0.0396 -1.7293 -0.8175
 6034TIP3    H239738   0.510   0.363   0.380 -1.0933 -0.9867 -1.3057
 6035TIP3   OH239739   5.825   2.873   2.541  0.3321  0.1149  0.4126
 6035TIP3    H139740   5.835   2.798   2.600  0.3788  0.0053  0.2651
 6035TIP3    H239741   5.915   2.898   2.519  0.3309  0.4517  0.7592
 6036TIP3   OH239742   2.879   0.602   7.623 -0.4649  0.1963  0.4742
 6036TIP3    H139743   2.883   0.525   7.567 -0.9086 -0.0646  0.7925
 6036TIP3    H239744   2.899   0.569   7.711 -1.6259  0.2494  0.7765
 6037TIP3   OH239745   6.459   3.928   7.374  0.0249 -0.2088  0.4095
 6037TIP3    H139746   6.537   3.890   7.333 -0.0407 -1.6027  1.4671
 6037TIP3    H239747   6.406   3.959   7.301  1.0076 -0.3779 -0.4047
 6038TIP3   OH239748   5.425   4.253   8.173  0.2926  1.2152 -0.3735
 6038TIP3    H139749   5.391   4.339   8.148  0.1420  1.4494  0.5717
 6038TIP3    H239750   5.505   4.273   8.223  0.1291  0.8213  0.0496
 6039TIP3   OH239751   4.143   6.042   0.122  0.1677  0.8234 -0.2499
 6039TIP3    H139752   4.199   5.975   0.083 -0.9912 -0.2818 -0.1151
 6039TIP3    H239753   4.082   6.066   0.052 -0.4262  0.5520  0.1549
 6040TIP3   OH239754   3.356   6.558   0.417 -0.1162  0.0888  0.5585
 6040TIP3    H139755   3.297   6.487   0.441 -0.6824  0.5412  0.5441
 6040TIP3    H239756   3.389   6.533   0.330 -2.0328  0.8578 -0.4700
 6041TIP3   OH239757   0.010   1.316   1.749  0.1574 -0.4417  0.2537
 6041TIP3    H139758   0.038   1.406   1.763  1.8926 -0.7248 -1.0867
 6041TIP3    H239759  -0.013   1.312   1.657 -0.0661 -1.3263  0.3406
 6042TIP3   OH239760   0.242   0.353   0.330  0.4252  0.0338  0.3235
 6042TIP3    H139761   0.173   0.406   0.289 -0.7026  0.7410  2.8971
 6042TIP3    H239762   0.318   0.411   0.332  0.2849  0.2381 -0.1261
 6043TIP3   OH239763   2.072   1.928   7.375 -0.4959  0.1691  0.2324
 6043TIP3    H139764   2.045   1.839   7.396 -0.6388 -0.0470 -0.8016
 6043TIP3    H239765   2.160   1.936   7.413 -1.1100  0.1456  1.7207
 6044TIP3   OH239766   1.919   1.163   6.522  1.0934  0.0074 -0.4096
 6044TIP3    H139767   1.842   1.120   6.559  1.5966 -0.1466  0.5049
 6044TIP3    H239768   1.906   1.159   6.427  0.2841 -0.5728 -0.2860
 6045TIP3   OH239769   3.751   3.575   6.836 -0.1868 -0.0010 -0.0524
 6045TIP3    H139770   3.802   3.616   6.907  0.7108  2.2221 -1.8562
 6045TIP3    H239771   3.679   3.531   6.882  0.7850  0.6597  2.2954
 6046TIP3   OH239772   0.899   6.489   8.186 -0.3079 -0.5521 -0.0820
 6046TIP3    H139773   0.992   6.469   8.193  0.0162  1.1766  1.6735
 6046TIP3    H239774   0.868   6.491   8.276 -1.8466 -0.2537 -0.5837
 6047TIP3   OH239775   2.301   3.211   0.188  0.0849 -0.2545  0.0291
 6047TIP3    H139776   2.370   3.145   0.194 -0.2000 -0.6034 -0.4446
 6047TIP3    H239777   2.343   3.286   0.147  0.3132 -0.2778  0.2185
 6048TIP3   OH239778   1.475   4.463   8.749  0.5620  0.0853 -0.3816
 6048TIP3    H139779   1.400   4.498   8.797 -0.3605 -1.9278 -0.2618
 6048TIP3    H239780   1.517   4.540   8.710 -1.7231  1.2382 -0.6965
 6049TIP3   OH239781   2.465   4.003   8.569 -0.3095 -0.2135 -0.0369
 6049TIP3    H139782   2.424   4.085   8.599 -3.2742 -1.1369 -1.1672
 6049TIP3    H239783   2.434   3.937   8.631 -0.4239 -0.9386 -0.8549
 6050TIP3   OH239784   2.197   6.057   9.061 -0.0707  0.1266  0.0509
 6050TIP3    H139785   2.155   6.066   8.975 -1.5874  0.5024  0.7901
 6050TIP3    H239786   2.165   6.132   9.112  1.1695  0.1715  0.8135
 6051TIP3   OH239787   4.660   2.289   8.868  0.4829  0.1629 -0.1350
 6051TIP3    H139788   4.593   2.332   8.816  1.9094  0.9809 -1.3973
 6051TIP3    H239789   4.614   2.257   8.946 -1.2665  1.0060 -0.7725
 6052TIP3   OH239790   4.404   3.944   7.079 -0.1887 -0.3344 -0.0215
 6052TIP3    H139791   4.464   3.941   7.004  0.6199 -1.6657  0.6235
 6052TIP3    H239792   4.359   4.028   7.071  1.7529  0.7274 -0.5645
 6053TIP3   OH239793   3.472   5.577   8.395 -0.8592 -0.0300 -0.0660
 6053TIP3    H139794   3.422   5.647   8.354  1.1476  0.8217 -1.1830
 6053TIP3    H239795   3.502   5.615   8.478 -0.5161  0.1226 -0.2587
 6054TIP3   OH239796   3.782   4.876   6.738 -0.7166 -0.1706 -0.3745
 6054TIP3    H139797   3.832   4.899   6.659  0.9564 -0.2343  0.6159
 6054TIP3    H239798   3.746   4.960   6.768  0.1600  0.1752 -0.2294
 6055TIP3   OH239799   0.106   1.301   0.319  0.0784  0.2733  0.0641
 6055TIP3    H139800   0.028   1.292   0.374  0.4013  0.3189  0.5392
 6055TIP3    H239801   0.130   1.394   0.327  0.4002  0.1774  0.2258
 6056TIP3   OH239802   6.340   0.187   9.129 -0.7176 -0.7949 -0.3224
 6056TIP3    H139803   6.335   0.101   9.086 -1.4704 -0.4564 -0.9548
 6056TIP3    H239804   6.366   0.247   9.059 -0.2947 -0.4865  0.0942
 6057TIP3   OH239805   0.160   3.288   1.779 -0.2574 -0.0761  0.1423
 6057TIP3    H139806   0.182   3.211   1.832  1.3373  0.7952  0.8333
 6057TIP3    H239807   0.241   3.340   1.778 -1.2297  1.4941 -0.4731
 6058TIP3   OH239808   6.597   4.210   1.132 -0.3191  0.4612  0.0743
 6058TIP3    H139809   6.630   4.135   1.180 -1.9786 -1.6885 -1.9237
 6058TIP3    H239810   6.509   4.225   1.167 -0.2240  1.1186  0.0537
 6059TIP3   OH239811   2.958   4.569   7.789  0.1441  0.0858 -0.2674
 6059TIP3    H139812   3.013   4.529   7.722 -0.1957 -0.7525 -0.0581
 6059TIP3    H239813   2.894   4.501   7.811 -0.3021  0.6683  0.2609
 6060TIP3   OH239814   6.605   0.164   7.543 -0.5558 -0.6083  0.3385
 6060TIP3    H139815   6.634   0.142   7.454 -0.0039  1.1193  0.0460
 6060TIP3    H239816   6.512   0.186   7.532 -0.4134 -0.0913  0.1087
 6061TIP3   OH239817   2.078   6.300   0.415  0.1742  0.5494  0.6594
 6061TIP3    H139818   2.067   6.228   0.476 -1.9764 -0.6986 -1.0420
 6061TIP3    H239819   2.033   6.271   0.335  2.8037  2.0639 -1.5541
 6062TIP3   OH239820   4.789   6.605   8.483 -0.3981 -0.0101  0.3788
 6062TIP3    H139821   4.798   6.680   8.424 -1.2165 -1.1138 -1.2071
 6062TIP3    H239822   4.869   6.607   8.536  0.1405  1.2812 -0.4213
 6063TIP3   OH239823   6.624   1.427   8.174 -0.4511  0.0740 -0.3488
 6063TIP3    H139824   6.714   1.460   8.173 -0.4692  0.1828 -2.2609
 6063TIP3    H239825   6.586   1.458   8.092 -1.2803 -2.5304 -1.0438
 6064TIP3   OH239826   0.049   2.666   0.001  0.1986 -0.2891  0.6640
 6064TIP3    H139827   0.098   2.726  -0.055  0.2269 -1.3412 -0.4892
 6064TIP3    H239828   0.074   2.689   0.090  1.3154  0.4420  0.1751
 6065TIP3   OH239829   3.660   2.697   1.166 -0.0575  0.1361 -0.6090
 6065TIP3    H139830   3.691   2.697   1.256  1.2797 -0.3449 -1.0469
 6065TIP3    H239831   3.625   2.786   1.153  1.7925  0.9589 -0.2908
 6066TIP3   OH239832   2.557   3.478   7.884 -0.9690 -0.0143 -0.1826
 6066TIP3    H139833   2.514   3.419   7.821 -1.6754 -0.7419  0.9517
 6066TIP3    H239834   2.508   3.466   7.965 -0.0174  0.8499  0.5384
 6067TIP3   OH239835   0.758   4.206   7.305  0.8916  0.2136  0.0707
 6067TIP3    H139836   0.816   4.207   7.228  1.6864  1.0072  0.6605
 6067TIP3    H239837   0.812   4.168   7.375  0.9844  1.6428  0.8122
 6068TIP3   OH239838   3.893   1.347   2.401  0.1770  0.0839  0.5413
 6068TIP3    H139839   3.834   1.386   2.336  1.7397  1.3590 -0.1772
 6068TIP3    H239840   3.945   1.421   2.433  3.2763 -1.2996 -0.8609
 6069TIP3   OH239841   0.482   3.611   1.647  0.2507 -0.5258 -0.4937
 6069TIP3    H139842   0.436   3.562   1.579  1.7232 -0.5823 -1.4992
 6069TIP3    H239843   0.546   3.664   1.599  1.5840 -0.8571  0.8644
 6070TIP3   OH239844   1.773   5.305   8.160  0.7383 -0.3968  0.1025
 6070TIP3    H139845   1.738   5.394   8.171 -0.8357 -1.2658  3.4372
 6070TIP3    H239846   1.841   5.298   8.227 -0.3753 -2.1993  1.1218
 6071TIP3   OH239847   4.678   6.580   7.018  0.6573 -0.2525 -0.0400
 6071TIP3    H139848   4.746   6.569   6.950  0.5567  0.3210 -0.2426
 6071TIP3    H239849   4.664   6.675   7.021 -0.4592 -0.3946 -0.3171
 6072TIP3   OH239850   0.246   2.339   2.098  0.6248  0.1406 -0.0043
 6072TIP3    H139851   0.336   2.312   2.080  0.7148 -0.7620  1.6183
 6072TIP3    H239852   0.215   2.276   2.163 -0.9845  0.8038 -0.0941
 6073TIP3   OH239853   2.612   4.577   6.491 -0.6560 -0.4748  0.2483
 6073TIP3    H139854   2.614   4.625   6.409 -0.4529 -2.0946 -0.7227
 6073TIP3    H239855   2.704   4.559   6.511 -0.8020 -2.1057 -0.4233
 6074TIP3   OH239856   3.472   0.774   1.668 -0.2032 -0.4909 -0.0956
 6074TIP3    H139857   3.516   0.819   1.741  3.2328 -1.7396 -1.2257
 6074TIP3    H239858   3.447   0.845   1.609 -1.5011  0.4036  1.4252
 6075TIP3   OH239859   1.634   6.719   9.087  0.2056 -0.5095 -0.1989
 6075TIP3    H139860   1.592   6.713   9.173 -0.6238  0.2947 -0.5382
 6075TIP3    H239861   1.720   6.758   9.106 -0.7697  1.6787  0.0635
 6076TIP3   OH239862   1.725   1.391   7.070 -0.3993 -0.2108  0.2737
 6076TIP3    H139863   1.751   1.380   6.979 -0.4204 -1.9699  0.4456
 6076TIP3    H239864   1.629   1.395   7.068 -0.3613  1.5771  0.0871
 6077TIP3   OH239865   3.292   6.556   1.452 -0.0799 -0.1992 -0.5493
 6077TIP3    H139866   3.216   6.499   1.460  0.2577 -0.5306  0.3873
 6077TIP3    H239867   3.367   6.499   1.470  0.2495  0.5533  0.5443
 6078TIP3   OH239868   4.428   6.703   7.784 -0.7117  0.1534 -0.4406
 6078TIP3    H139869   4.343   6.700   7.740  0.0984  3.5710 -2.6335
 6078TIP3    H239870   4.488   6.664   7.720 -0.4209 -1.3935  0.7176
 6079TIP3   OH239871   3.886   2.095   1.731 -0.3214  0.6363  0.1957
 6079TIP3    H139872   3.790   2.086   1.733 -0.2055 -0.6850  0.3771
 6079TIP3    H239873   3.908   2.128   1.818 -0.6557  1.5613 -0.0568
 6080TIP3   OH239874   5.918   1.147   1.429  0.0014  0.0406 -0.2343
 6080TIP3    H139875   5.978   1.080   1.462  0.1976 -0.0457 -0.7531
 6080TIP3    H239876   5.974   1.212   1.387 -0.2515  0.0515 -0.5662
 6081TIP3   OH239877   3.848   1.484   8.701 -0.1993  0.0704  0.1539
 6081TIP3    H139878   3.834   1.573   8.732 -1.7436 -0.0756 -0.0395
 6081TIP3    H239879   3.864   1.494   8.607 -1.0079  0.1145  0.0132
 6082TIP3   OH239880   3.482   6.714   0.601  0.4077 -0.4277  0.1276
 6082TIP3    H139881   3.434   6.796   0.588  1.0160  0.1388  1.3166
 6082TIP3    H239882   3.430   6.648   0.556 -1.4614  0.1830  1.2874
 6083TIP3   OH239883   4.756   2.373   8.110  0.1331 -0.7346  0.3764
 6083TIP3    H139884   4.696   2.361   8.037 -1.9146 -0.8389  1.9587
 6083TIP3    H239885   4.761   2.468   8.121 -1.2705 -0.7482  1.3638
 6084TIP3   OH239886   4.479   6.292   0.020 -0.0155  0.2540 -0.2057
 6084TIP3    H139887   4.431   6.244  -0.048 -0.4046 -0.2267  0.3973
 6084TIP3    H239888   4.542   6.346  -0.029 -0.8289  0.5210 -0.9890
 6085TIP3   OH239889   6.675   3.913   0.181  0.3569 -0.7808  0.1814
 6085TIP3    H139890   6.688   3.980   0.113 -1.6752 -1.0134 -0.5156
 6085TIP3    H239891   6.678   3.962   0.263  1.0266 -0.1930 -0.1789
 6086TIP3   OH239892   0.136   1.314   0.915 -0.5255 -1.0113  0.0805
 6086TIP3    H139893   0.046   1.282   0.920  0.2071 -3.2823  0.1502
 6086TIP3    H239894   0.150   1.333   0.823 -2.0759  2.8778  0.4462
 6087TIP3   OH239895   2.112   5.666   1.293  0.0654  0.4875 -0.5209
 6087TIP3    H139896   2.202   5.647   1.265  0.6026  3.1259 -0.7822
 6087TIP3    H239897   2.098   5.758   1.270 -3.2213 -0.1764 -1.7596
 6088TIP3   OH239898   1.630   0.372   1.201 -0.0886  0.0453  1.0301
 6088TIP3    H139899   1.571   0.447   1.206 -0.2128 -0.1314  2.4085
 6088TIP3    H239900   1.628   0.332   1.288 -1.7316 -2.8897 -0.2030
 6089TIP3   OH239901   2.234   2.380   0.612 -0.7312  0.1502 -0.4458
 6089TIP3    H139902   2.153   2.431   0.610 -1.8852 -1.4837  1.5661
 6089TIP3    H239903   2.302   2.444   0.632 -1.2716  1.7215 -3.0740
 6090TIP3   OH239904   3.818   1.316   0.143 -0.1752 -1.0640 -0.0477
 6090TIP3    H139905   3.726   1.289   0.152  0.3220 -2.3845  1.4781
 6090TIP3    H239906   3.849   1.270   0.066 -0.9895  0.0503 -1.0797
 6091TIP3   OH239907   2.160   3.502   0.746  0.0467  0.2235  0.3101
 6091TIP3    H139908   2.205   3.578   0.783  0.8425 -0.0147 -0.1480
 6091TIP3    H239909   2.089   3.484   0.808 -0.1263  1.3053  0.4444
 6092TIP3   OH239910   6.681   0.695   7.628 -0.1196 -0.2832  0.5101
 6092TIP3    H139911   6.642   0.687   7.715  0.5842  1.1027  0.9796
 6092TIP3    H239912   6.716   0.784   7.625 -0.5268 -0.1362 -1.3631
 6093TIP3   OH239913   6.330   0.195   8.785 -0.0704  0.2315  0.3508
 6093TIP3    H139914   6.403   0.182   8.724 -0.1109  1.8371 -0.0733
 6093TIP3    H239915   6.253   0.165   8.736 -0.1224  1.6445 -0.4691
 6094TIP3   OH239916   5.084   2.829   0.473  0.0933 -0.2377 -0.8494
 6094TIP3    H139917   5.013   2.779   0.513  0.9139 -2.2508 -1.7947
 6094TIP3    H239918   5.084   2.802   0.382  2.0124 -0.2071 -0.8888
 6095TIP3   OH239919   1.752   1.231   1.390  0.1482  0.2160  0.1726
 6095TIP3    H139920   1.750   1.150   1.440  0.1949  0.2776  0.2756
 6095TIP3    H239921   1.716   1.297   1.450  1.8332  0.6489  0.7835
 6096TIP3   OH239922   5.568   4.218   8.498 -0.2589  0.6674 -0.2969
 6096TIP3    H139923   5.490   4.249   8.545  0.8030  1.0907  1.2854
 6096TIP3    H239924   5.542   4.134   8.461 -1.5908  0.9992 -0.1682
 6097TIP3   OH239925   1.225   2.913   0.702 -0.3977  0.1079 -0.2185
 6097TIP3    H139926   1.202   2.938   0.791  0.8909  1.0790 -0.1250
 6097TIP3    H239927   1.259   2.824   0.709 -0.0160  0.2959  0.3008
 6098TIP3   OH239928   0.392   2.678   0.800 -0.1217 -0.7706 -0.4788
 6098TIP3    H139929   0.345   2.758   0.774  0.8425 -0.7955 -2.4640
 6098TIP3    H239930   0.477   2.685   0.757  1.0524 -1.6077  1.5407
 6099TIP3   OH239931   3.480   5.889   8.195 -0.0656  0.2756  0.4135
 6099TIP3    H139932   3.408   5.826   8.198  0.4541 -0.3125  0.9073
 6099TIP3    H239933   3.522   5.873   8.111  0.1502 -0.1455  0.5976
 6100TIP3   OH239934   3.607   5.388   1.174  0.3084 -0.3194 -0.1476
 6100TIP3    H139935   3.550   5.362   1.246 -0.9793  0.5827 -0.7909
 6100TIP3    H239936   3.567   5.347   1.096 -1.1158  2.4516 -1.0122
 6101TIP3   OH239937   3.266   0.156   7.217 -0.0168 -0.2542  0.3743
 6101TIP3    H139938   3.295   0.247   7.218 -1.2272  0.1599  1.6651
 6101TIP3    H239939   3.272   0.130   7.125 -0.4108  1.3960 -0.1539
 6102TIP3   OH239940   0.466   5.133   7.168 -0.6279  0.5898 -0.7225
 6102TIP3    H139941   0.480   5.159   7.076  1.5314 -0.5627 -0.7919
 6102TIP3    H239942   0.487   5.040   7.170  1.3292  0.9767  1.2452
 6103TIP3   OH239943   1.779   5.996   0.385 -0.1856  0.6711 -0.4646
 6103TIP3    H139944   1.832   6.057   0.334 -0.8223  0.5064 -1.3477
 6103TIP3    H239945   1.805   5.910   0.355  1.2067  0.4245  1.2704
 6104TIP3   OH239946   6.491   5.461   1.624  0.1396  0.4737 -0.0136
 6104TIP3    H139947   6.420   5.520   1.648 -0.0707 -0.0301  0.6537
 6104TIP3    H239948   6.455   5.405   1.556  0.2628  0.9509 -0.4746
 6105TIP3   OH239949   3.453   4.473   8.427 -0.3535  0.4862  0.4486
 6105TIP3    H139950   3.374   4.527   8.437 -1.2111 -0.8787  1.3718
 6105TIP3    H239951   3.463   4.429   8.511  0.8338 -0.1151  0.0173
 6106TIP3   OH239952   1.949   2.899   6.377  0.1948  0.1160  0.0957
 6106TIP3    H139953   1.969   2.817   6.423 -0.0195  0.0440  0.0610
 6106TIP3    H239954   1.936   2.872   6.286  0.7524  0.2775 -0.0327
 6107TIP3   OH239955   2.350   3.361   1.437  0.7178 -0.4241  0.1445
 6107TIP3    H139956   2.308   3.310   1.506  1.9113  0.1891  1.3759
 6107TIP3    H239957   2.314   3.449   1.448  1.1657 -0.2477  0.2199
 6108TIP3   OH239958   2.482   0.345   8.866  0.3147 -0.2301  0.1241
 6108TIP3    H139959   2.429   0.299   8.931  1.6844 -0.8738  0.8124
 6108TIP3    H239960   2.548   0.281   8.839 -0.5639 -0.1954 -2.3849
 6109TIP3   OH239961   4.136   1.635   1.123 -0.3123 -0.1636 -0.2754
 6109TIP3    H139962   4.170   1.684   1.198 -1.8057  2.1272 -0.9631
 6109TIP3    H239963   4.046   1.613   1.147 -0.3568 -0.6379 -0.8588
 6110TIP3   OH239964   5.011   5.109   8.931  0.4966 -0.3854  1.1363
 6110TIP3    H139965   5.082   5.089   8.869 -0.4766  0.1511 -0.1907
 6110TIP3    H239966   5.033   5.196   8.965  0.3375 -0.0845  0.4932
 6111TIP3   OH239967   2.619   1.475   1.166  0.8717  0.2131  0.3050
 6111TIP3    H139968   2.647   1.435   1.083 -0.8634 -0.4379 -0.0258
 6111TIP3    H239969   2.650   1.565   1.161  1.3861 -0.0003 -0.7602
 6112TIP3   OH239970   5.684   2.040   7.809 -0.2557 -0.5782  0.1461
 6112TIP3    H139971   5.648   2.109   7.753  1.4771  0.3820  0.1261
 6112TIP3    H239972   5.612   2.016   7.868 -1.6517 -0.5426 -1.4705
 6113TIP3   OH239973   2.388   6.026   1.108 -0.1292  0.2029 -0.6953
 6113TIP3    H139974   2.377   6.019   1.013  1.7973  0.2162 -0.9596
 6113TIP3    H239975   2.346   6.108   1.132 -2.1838 -0.6235 -1.2270
 6114TIP3   OH239976   5.842   5.960   8.721 -0.0754  0.0136 -0.6724
 6114TIP3    H139977   5.822   5.983   8.630 -0.2434  1.5245 -0.2732
 6114TIP3    H239978   5.877   6.040   8.759 -3.2663  0.5548  1.5573
 6115TIP3   OH239979   6.026   3.450   1.721  0.1936  0.2373  0.3112
 6115TIP3    H139980   6.052   3.542   1.716  0.8738  0.0958  0.9877
 6115TIP3    H239981   5.942   3.446   1.675  1.5553  0.6455 -2.3814
 6116TIP3   OH239982   3.542   6.493   1.038 -0.0466  0.1388 -0.3885
 6116TIP3    H139983   3.482   6.534   0.975 -2.2819 -2.0277  0.1457
 6116TIP3    H239984   3.524   6.399   1.029  3.9038 -0.7392 -0.7016
 6117TIP3   OH239985   5.917   1.701   1.499 -0.2197  0.5335  0.3878
 6117TIP3    H139986   5.926   1.626   1.558 -0.8434  1.2083  1.3860
 6117TIP3    H239987   5.844   1.678   1.442 -0.2370  0.2658  0.5186
 6118TIP3   OH239988   0.392   3.811   7.465 -0.2108  0.3422 -0.2984
 6118TIP3    H139989   0.431   3.750   7.527 -0.9081 -1.3757 -1.4860
 6118TIP3    H239990   0.299   3.815   7.490 -0.1343  1.0738 -0.1143
 6119TIP3   OH239991   4.999   1.563   0.260  0.1525  0.2454 -0.1369
 6119TIP3    H139992   5.078   1.534   0.304 -0.2128  1.8318  1.6807
 6119TIP3    H239993   5.027   1.637   0.206  0.3580 -0.8745 -1.6198
 6120TIP3   OH239994   0.385   2.294   7.898 -0.6430  0.2799  0.4402
 6120TIP3    H139995   0.383   2.309   7.803 -1.5485 -0.6975  0.2786
 6120TIP3    H239996   0.440   2.364   7.932  0.7384 -0.0636 -0.9456
 6121TIP3   OH239997   4.044   6.393   7.104  0.1067  0.3526 -0.0079
 6121TIP3    H139998   4.044   6.451   7.180 -0.6282 -0.4201  0.6072
 6121TIP3    H239999   4.123   6.417   7.056  0.7178  0.7107  1.1153
 6122TIP3   OH240000   3.508   3.298   6.733  0.2954  0.6879  0.6190
 6122TIP3    H140001   3.566   3.325   6.804 -0.6912  0.4429  1.5459
 6122TIP3    H240002   3.520   3.365   6.665  2.4563  0.0565  0.3115
 6123TIP3   OH240003   2.109   1.104   8.767  0.8846  0.3766 -0.0298
 6123TIP3    H140004   2.166   1.082   8.841  0.3392  1.4877  0.7533
 6123TIP3    H240005   2.059   1.179   8.797 -0.7289 -0.3310 -0.8535
 6124TIP3   OH240006   1.498   2.153   9.088  0.2499 -0.2971  0.6412
 6124TIP3    H140007   1.591   2.172   9.071  0.5675 -1.7165  0.6761
 6124TIP3    H240008   1.466   2.231   9.132  0.9120  1.0760 -1.1506
 6125TIP3   OH240009   3.619   0.855   6.921  0.5854  0.0693 -0.2755
 6125TIP3    H140010   3.534   0.866   6.964  1.0683  0.2226  0.6722
 6125TIP3    H240011   3.619   0.764   6.891  0.6675 -0.3826  1.0444
 6126TIP3   OH240012   4.946   0.624   1.522  0.1672  0.3260  0.4557
 6126TIP3    H140013   4.906   0.619   1.608 -1.1087  1.2147 -0.0582
 6126TIP3    H240014   4.928   0.539   1.482  1.0328 -0.2032  1.1567
 6127TIP3   OH240015   1.903   5.633   1.472 -0.5587 -0.0758  0.1524
 6127TIP3    H140016   1.980   5.672   1.431 -1.0860  0.5222 -0.2935
 6127TIP3    H240017   1.834   5.642   1.406 -1.0391 -0.4887  0.5960
 6128TIP3   OH240018   2.512   2.909   6.875 -0.4394  0.3966 -0.0978
 6128TIP3    H140019   2.572   2.864   6.815  1.0951  3.0520 -0.7463
 6128TIP3    H240020   2.442   2.942   6.819 -0.7913  0.0695  0.1431
 6129TIP3   OH240021   5.590   2.780   0.586  0.7077  0.1129 -0.0719
 6129TIP3    H140022   5.681   2.797   0.562  0.4763 -2.0065 -2.8918
 6129TIP3    H240023   5.540   2.800   0.507 -1.0061 -0.8061  0.7230
 6130TIP3   OH240024   1.825   1.422   6.824  0.4248 -0.5075  0.2910
 6130TIP3    H140025   1.893   1.360   6.798 -1.3813 -1.5939 -2.3434
 6130TIP3    H240026   1.872   1.495   6.864  3.1800 -1.0521 -1.6782
 6131TIP3   OH240027   4.467   3.973   1.767 -0.1292  0.2841 -0.4321
 6131TIP3    H140028   4.380   3.992   1.801  0.1200 -1.4201  1.3397
 6131TIP3    H240029   4.472   3.877   1.765  1.5286  0.3450 -0.9809
 6132TIP3   OH240030   1.302   5.010   0.422 -0.4206 -0.3378 -0.2619
 6132TIP3    H140031   1.281   4.926   0.464 -0.9880 -0.2951 -0.4637
 6132TIP3    H240032   1.296   5.074   0.493 -1.2151 -0.2897 -0.3640
 6133TIP3   OH240033   1.584   0.719   0.616  0.6856 -0.0727  0.0428
 6133TIP3    H140034   1.678   0.736   0.613  0.5184  0.8474 -0.4581
 6133TIP3    H240035   1.553   0.768   0.692  0.4715  0.4094 -0.3501
 6134TIP3   OH240036   2.910   1.294   7.660 -0.0080  0.3411 -0.6229
 6134TIP3    H140037   2.864   1.280   7.743  0.3533 -4.1637 -0.9133
 6134TIP3    H240038   2.966   1.370   7.677 -1.9450  1.3067  2.2636
 6135TIP3   OH240039   0.380   0.034   2.323 -0.1557 -0.3718 -0.0784
 6135TIP3    H140040   0.414   0.056   2.410  1.5649 -0.9421 -0.5725
 6135TIP3    H240041   0.384  -0.062   2.320 -0.3994 -0.3649 -0.7105
 6136TIP3   OH240042   5.722   6.081   1.319 -0.6181  0.0031  0.8642
 6136TIP3    H140043   5.659   6.010   1.325 -0.8020 -0.1096 -1.5730
 6136TIP3    H240044   5.791   6.048   1.262  0.1642  1.1933  1.0794
 6137TIP3   OH240045   5.973   0.567   1.550  0.7161  0.0689 -0.2080
 6137TIP3    H140046   5.948   0.520   1.630 -2.4874  1.0384 -0.4768
 6137TIP3    H240047   5.963   0.659   1.574  0.4677  0.3852 -1.4820
 6138TIP3   OH240048   2.343   4.292   1.100 -0.1565 -0.4386 -0.2457
 6138TIP3    H140049   2.392   4.278   1.181  0.0374  0.1862 -0.2547
 6138TIP3    H240050   2.252   4.275   1.124 -0.2312  0.7311  0.3579
 6139TIP3   OH240051   0.725   3.783   1.810 -0.5660 -0.1444  0.4168
 6139TIP3    H140052   0.759   3.712   1.865  0.8548  1.8461  2.2784
 6139TIP3    H240053   0.630   3.771   1.811 -0.3876 -1.7739  1.0135
 6140TIP3   OH240054   5.375   0.089   2.158  0.6711 -0.0592 -0.3465
 6140TIP3    H140055   5.440   0.158   2.142  1.5312 -0.9581 -0.8767
 6140TIP3    H240056   5.390   0.062   2.248  2.6316 -1.8047 -1.1086
 6141TIP3   OH240057   4.986   5.813   8.933 -0.6518 -0.1998  0.1772
 6141TIP3    H140058   5.022   5.840   9.018 -1.7321 -0.0666  0.6133
 6141TIP3    H240059   5.007   5.885   8.874  0.1894 -0.3321  0.3110
 6142TIP3   OH240060   1.477   5.931   1.008 -0.3155 -0.1576 -0.1218
 6142TIP3    H140061   1.417   5.857   1.016 -0.1968 -0.5559 -2.3353
 6142TIP3    H240062   1.444   5.996   1.070 -1.3003 -1.4809  0.7833
 6143TIP3   OH240063   6.571   6.628   7.330 -1.0326 -0.3341  0.5912
 6143TIP3    H140064   6.634   6.700   7.329  0.2258 -1.3945  0.8442
 6143TIP3    H240065   6.613   6.559   7.279 -1.2936 -1.6057  2.0319
 6144TIP3   OH240066   2.926   5.987   6.860 -0.1320 -0.1330  0.0900
 6144TIP3    H140067   2.915   6.034   6.942  1.8262 -0.2085  0.4494
 6144TIP3    H240068   3.016   5.954   6.863  0.0356 -0.0387 -2.1452
 6145TIP3   OH240069   0.713   1.100   8.244  0.3346 -0.8420 -0.4580
 6145TIP3    H140070   0.685   1.086   8.154 -1.1521  1.0946 -0.3606
 6145TIP3    H240071   0.632   1.110   8.293  1.1381 -1.0464  0.9610
 6146TIP3   OH240072   1.947   1.960   0.705  0.9812  1.0359 -0.3304
 6146TIP3    H140073   1.962   1.866   0.702 -0.8600  0.6770  0.1132
 6146TIP3    H240074   2.027   1.999   0.671  1.7270 -0.6911 -0.6411
 6147TIP3   OH240075   4.909   4.324   2.480 -0.4534 -0.0244  0.0424
 6147TIP3    H140076   4.816   4.334   2.462 -0.4812  1.8385  0.9379
 6147TIP3    H240077   4.914   4.253   2.545 -1.4253  0.8434  1.1016
 6148TIP3   OH240078   3.557   3.212   5.766 -0.2889  1.1607 -0.5036
 6148TIP3    H140079   3.484   3.218   5.828  1.0387 -0.6321  1.3598
 6148TIP3    H240080   3.562   3.119   5.745  1.8950  1.1233 -0.0093
 6149TIP3   OH240081   0.197   3.479   7.559 -0.1492  0.1111  0.3866
 6149TIP3    H140082   0.152   3.418   7.617  0.3176 -0.3399  0.2852
 6149TIP3    H240083   0.265   3.426   7.516  0.8506  0.8928  0.9548
 6150TIP3   OH240084   6.093   2.368   6.620  0.1286  0.1395 -0.4894
 6150TIP3    H140085   6.107   2.274   6.622 -0.6512 -0.0352 -1.8959
 6150TIP3    H240086   6.034   2.385   6.694  1.1135 -0.2971  0.4176
 6151TIP3   OH240087   1.224   5.986   8.711 -0.3184  0.0050  0.4032
 6151TIP3    H140088   1.187   6.064   8.669  2.3859  2.2541  1.8233
 6151TIP3    H240089   1.196   5.993   8.803  1.0103  0.0694  0.8226
 6152TIP3   OH240090   2.924   6.243   0.350 -0.1096 -0.2288  0.3057
 6152TIP3    H140091   3.008   6.287   0.363 -0.6665  0.7927  0.4842
 6152TIP3    H240092   2.862   6.312   0.329 -0.5622 -1.1659 -1.6903
 6153TIP3   OH240093   0.534   6.539   8.260  0.7922 -0.1572 -0.1949
 6153TIP3    H140094   0.539   6.628   8.226 -0.6016 -1.1989 -3.5868
 6153TIP3    H240095   0.443   6.530   8.289  0.5159 -0.8478 -1.2183
 6154TIP3   OH240096   4.441   6.655   8.862 -0.6943  0.4800  0.1694
 6154TIP3    H140097   4.364   6.680   8.913 -1.6831 -0.0616 -0.9978
 6154TIP3    H240098   4.516   6.689   8.912 -1.6389  0.3268  1.7271
 6155TIP3   OH240099   1.402   5.385   2.702 -0.6091 -0.4537 -0.2136
 6155TIP3    H140100   1.472   5.320   2.700 -2.2025 -2.3301  1.0345
 6155TIP3    H240101   1.410   5.431   2.618  1.5606 -1.1425 -0.4493
 6156TIP3   OH240102   0.747   1.212   7.353 -0.1019  0.1774  0.2719
 6156TIP3    H140103   0.689   1.269   7.302 -0.2316  0.7697  1.0793
 6156TIP3    H240104   0.761   1.136   7.296 -0.9870  0.4108 -0.2767
 6157TIP3   OH240105   5.857   3.261   6.984 -0.0187  0.1795  0.1857
 6157TIP3    H140106   5.815   3.309   6.913 -0.3192 -0.9933 -0.4482
 6157TIP3    H240107   5.907   3.328   7.031 -2.3492  1.5741  0.8168
 6158TIP3   OH240108   4.222   2.826   7.896  0.0971 -0.6420 -0.3994
 6158TIP3    H140109   4.173   2.757   7.851 -1.3375  0.1999 -0.1948
 6158TIP3    H240110   4.312   2.793   7.900  0.1681 -1.0449 -3.2554
 6159TIP3   OH240111   2.241   1.002   7.013  0.2156  0.2339  0.1584
 6159TIP3    H140112   2.201   1.085   7.038 -1.0612  0.0949 -1.2834
 6159TIP3    H240113   2.334   1.024   7.000 -0.0176  1.3312  0.2196
 6160TIP3   OH240114   4.191   2.999   1.016 -0.5106  0.3962  0.2494
 6160TIP3    H140115   4.186   3.000   1.112 -2.6802 -0.6306  0.1988
 6160TIP3    H240116   4.111   3.043   0.987  0.5527  1.5334 -1.1346
 6161TIP3   OH240117   2.107   6.340   7.552  0.0110 -0.2999 -0.0581
 6161TIP3    H140118   2.087   6.434   7.550 -1.2099 -0.5127 -3.0225
 6161TIP3    H240119   2.022   6.297   7.549  0.6032 -1.4858 -0.3710
 6162TIP3   OH240120   0.368   4.286   8.785 -0.3938  0.0497 -0.2833
 6162TIP3    H140121   0.292   4.228   8.792  0.8978 -1.7066 -0.2630
 6162TIP3    H240122   0.386   4.292   8.691 -1.4873  1.7954 -0.4303
 6163TIP3   OH240123   4.586   2.798   1.825 -0.0931  0.4452  0.0626
 6163TIP3    H140124   4.580   2.702   1.833  1.6516  0.1691 -1.3825
 6163TIP3    H240125   4.507   2.830   1.869 -0.4720 -1.6216  1.0289
 6164TIP3   OH240126   3.489   0.512   1.460  0.1382 -0.2371  0.0805
 6164TIP3    H140127   3.413   0.462   1.489  1.5922 -2.0863  0.9818
 6164TIP3    H240128   3.457   0.601   1.447 -2.0882 -0.8994  0.6758
 6165TIP3   OH240129   4.112   4.759   7.431  0.1233  0.6994 -0.6144
 6165TIP3    H140130   4.072   4.689   7.380 -0.0511  1.6205 -1.7959
 6165TIP3    H240131   4.204   4.760   7.404  0.1208  0.9420 -0.6163
 6166TIP3   OH240132   3.445   4.226   6.517 -0.4038 -0.1084  0.2970
 6166TIP3    H140133   3.446   4.315   6.482 -1.2011 -0.4466 -0.6268
 6166TIP3    H240134   3.359   4.191   6.493 -0.8116 -0.5430  2.1873
 6167TIP3   OH240135   3.706   3.949   1.810  0.0472 -0.5439  0.0032
 6167TIP3    H140136   3.692   4.005   1.886 -1.2352 -0.0706 -0.5545
 6167TIP3    H240137   3.651   3.872   1.826  0.7855 -1.0537  0.1498
 6168TIP3   OH240138   3.991   0.370   8.263  0.2381  0.0869  0.1437
 6168TIP3    H140139   4.062   0.344   8.321  2.3305  0.5706 -2.0371
 6168TIP3    H240140   3.934   0.293   8.259  0.9949 -0.5755  1.4235
 6169TIP3   OH240141   4.116   6.305   0.918 -0.6700 -0.2646  0.3593
 6169TIP3    H140142   4.073   6.255   0.987  0.1486  0.2590  1.2836
 6169TIP3    H240143   4.184   6.247   0.884 -0.4981 -0.2065  0.6043
 6170TIP3   OH240144   1.364   3.224   9.111 -0.7777 -0.1745 -0.0958
 6170TIP3    H140145   1.377   3.137   9.073  0.8596  0.8821 -2.1111
 6170TIP3    H240146   1.430   3.230   9.180  1.1218  0.4849 -1.8962
 6171TIP3   OH240147   2.300   4.988   0.381 -0.2686  0.4057  0.8312
 6171TIP3    H140148   2.277   4.910   0.330  0.4358  0.6026  0.1806
 6171TIP3    H240149   2.218   5.035   0.392 -0.1675  1.4880 -2.0889
 6172TIP3   OH240150   3.380   2.045   8.986  0.2343 -0.0864  0.6132
 6172TIP3    H140151   3.334   2.075   9.064 -1.3975  0.6322 -0.5584
 6172TIP3    H240152   3.311   2.007   8.931  0.7850  2.0410 -1.7081
 6173TIP3   OH240153   4.805   1.409   0.477 -0.7042 -0.4619  0.2454
 6173TIP3    H140154   4.888   1.447   0.448 -1.0280  0.0888  0.0085
 6173TIP3    H240155   4.744   1.429   0.406 -0.7858 -1.8541 -0.1106
 6174TIP3   OH240156   1.949   4.299   0.901 -0.9683  0.0114  0.6280
 6174TIP3    H140157   1.946   4.232   0.832  2.4251  1.0279 -0.7261
 6174TIP3    H240158   1.903   4.374   0.863 -0.5827 -0.0047  0.1050
 6175TIP3   OH240159   1.242   3.888   7.532 -0.2038 -0.0914 -0.0266
 6175TIP3    H140160   1.319   3.831   7.539 -1.6411 -1.9453  2.1840
 6175TIP3    H240161   1.171   3.829   7.506 -1.0529  1.4420 -1.3330
 6176TIP3   OH240162   4.410   4.360   2.414 -0.0733 -0.2470 -0.5408
 6176TIP3    H140163   4.432   4.451   2.434  1.7425 -0.7104 -0.1719
 6176TIP3    H240164   4.336   4.365   2.354 -1.0173  1.4081  0.6747
 6177TIP3   OH240165   1.344   5.778   1.747  0.1927 -0.2985  0.8207
 6177TIP3    H140166   1.319   5.806   1.659 -1.8603 -0.8664  1.1628
 6177TIP3    H240167   1.363   5.684   1.737 -0.3732 -0.4393  1.0232
 6178TIP3   OH240168   6.208   0.210   8.227 -1.0835 -0.1949 -0.2691
 6178TIP3    H140169   6.279   0.233   8.288  0.1699  1.1006 -2.0996
 6178TIP3    H240170   6.239   0.131   8.184 -1.3392 -0.3411 -0.1826
 6179TIP3   OH240171   6.108   1.219   0.649  0.0531  0.2510 -0.5375
 6179TIP3    H140172   6.048   1.264   0.589 -0.8718  0.8282  0.7587
 6179TIP3    H240173   6.051   1.189   0.721  0.9860 -1.1807 -0.3550
 6180TIP3   OH240174   0.941   3.013   1.380  0.3205 -0.0816  0.0934
 6180TIP3    H140175   0.883   2.938   1.384 -1.6824  1.4196  0.7272
 6180TIP3    H240176   0.938   3.050   1.468  0.2352  1.4708 -0.5348
 6181TIP3   OH240177   3.152   5.783   0.812 -0.0286 -0.0992  0.1618
 6181TIP3    H140178   3.104   5.856   0.849 -0.7525 -0.6826  0.3889
 6181TIP3    H240179   3.151   5.799   0.717  0.1373  0.3712  0.2380
 6182TIP3   OH240180   6.562   3.305   2.381  0.1074  0.4196  0.1265
 6182TIP3    H140181   6.592   3.285   2.470  2.7287  0.1583 -0.7498
 6182TIP3    H240182   6.583   3.397   2.369  0.0662  0.3704 -0.3315
 6183TIP3   OH240183   5.161   5.438   8.412  0.6296  0.1791  0.2080
 6183TIP3    H140184   5.207   5.521   8.403  1.1205 -0.2217 -1.3949
 6183TIP3    H240185   5.187   5.404   8.497  2.6201  0.3921 -0.2803
 6184TIP3   OH240186   0.240   0.203   0.043 -0.1226  0.1224 -0.7108
 6184TIP3    H140187   0.153   0.241   0.030  0.8909  2.6660 -0.6329
 6184TIP3    H240188   0.242   0.177   0.135 -1.1381 -1.0284 -0.9828
 6185TIP3   OH240189   5.259   3.306   8.951  0.2173 -0.0408  0.2020
 6185TIP3    H140190   5.242   3.338   8.862  0.4199 -1.2717 -0.2881
 6185TIP3    H240191   5.213   3.223   8.957 -1.5410  0.9594  1.9673
 6186TIP3   OH240192   1.220   4.402   7.296 -0.4249 -0.3783 -0.0108
 6186TIP3    H140193   1.276   4.409   7.219 -0.1204  2.8443  0.3635
 6186TIP3    H240194   1.132   4.418   7.264 -0.2339  1.5366  0.3045
 6187TIP3   OH240195   1.637   1.944   1.734  0.6966  0.2099  0.2806
 6187TIP3    H140196   1.596   1.951   1.648  1.7947  0.6176 -0.2310
 6187TIP3    H240197   1.615   2.027   1.778 -0.3573 -0.2391  0.6381
 6188TIP3   OH240198   2.567   4.985   8.441  0.3564  0.1303  0.5455
 6188TIP3    H140199   2.593   4.975   8.533  1.6754  0.0834  0.1958
 6188TIP3    H240200   2.571   5.079   8.425  3.4297 -0.0491 -0.3051
 6189TIP3   OH240201   2.803   4.247   6.379  0.1747 -0.4881 -0.0079
 6189TIP3    H140202   2.810   4.327   6.432  1.3651 -1.1330  0.8556
 6189TIP3    H240203   2.711   4.224   6.384 -0.0203  0.3248  0.5137
 6190TIP3   OH240204   5.809   1.157   8.428  0.0772 -0.7848  0.0345
 6190TIP3    H140205   5.883   1.177   8.485  0.0723  0.8989 -0.4702
 6190TIP3    H240206   5.846   1.109   8.354  0.0422 -3.2358  1.5025
 6191TIP3   OH240207   3.921   2.318   8.520  0.5963 -0.8205  0.0377
 6191TIP3    H140208   3.937   2.363   8.602 -2.6870 -1.0668  0.9547
 6191TIP3    H240209   3.953   2.378   8.452 -0.4269  1.3094  1.3523
 6192TIP3   OH240210   4.202   3.052   1.780  0.3539 -0.1365  0.1655
 6192TIP3    H140211   4.194   3.141   1.815 -1.2801 -0.3689  0.4718
 6192TIP3    H240212   4.188   3.062   1.686  1.4801  0.0673 -0.0012
 6193TIP3   OH240213   2.445   3.302   8.457  0.2607  0.0407 -0.2977
 6193TIP3    H140214   2.532   3.314   8.495  0.3310  0.5865 -0.6204
 6193TIP3    H240215   2.462   3.266   8.370  0.1090 -1.0195  0.0980
 6194TIP3   OH240216   5.042   2.276   1.573  0.0175 -0.1159 -0.2398
 6194TIP3    H140217   4.973   2.320   1.622 -0.1120 -0.6661  0.0923
 6194TIP3    H240218   5.093   2.230   1.641 -1.2008 -2.3418 -0.7137
 6195TIP3   OH240219   5.003   5.335   1.712 -0.3745  0.1640  0.6755
 6195TIP3    H140220   5.022   5.241   1.707 -0.5877  0.1439  0.1600
 6195TIP3    H240221   5.063   5.375   1.649 -1.2436  0.2199 -0.1308
 6196TIP3   OH240222   5.699   6.021   0.498 -0.3584 -0.8166  0.1154
 6196TIP3    H140223   5.648   6.098   0.524 -1.3730 -0.9052 -1.4181
 6196TIP3    H240224   5.638   5.969   0.446  0.8345 -1.7709 -0.3808
 6197TIP3   OH240225   6.438   6.149   8.156 -0.2819 -0.0202  0.0328
 6197TIP3    H140226   6.475   6.164   8.243  0.5927 -0.0439 -0.3282
 6197TIP3    H240227   6.505   6.101   8.108  0.3810  2.2711 -1.4945
 6198TIP3   OH240228   5.581   0.736   0.486  0.3426 -0.3614 -0.5148
 6198TIP3    H140229   5.521   0.664   0.506  1.9469 -2.0893 -1.6382
 6198TIP3    H240230   5.534   0.788   0.420 -1.0114 -0.0800  0.6181
 6199TIP3   OH240231   2.733   1.649   7.139 -0.0905  0.2417 -0.8677
 6199TIP3    H140232   2.660   1.684   7.089 -1.6851 -1.0027  0.4850
 6199TIP3    H240233   2.756   1.568   7.094 -0.2132  0.1315 -0.7343
 6200TIP3   OH240234   4.959   2.761   8.470 -0.2210 -0.2365 -0.4890
 6200TIP3    H140235   5.032   2.775   8.531 -1.0565 -2.4137  1.1456
 6200TIP3    H240236   4.994   2.788   8.385  1.0931  2.6602  0.8295
 6201TIP3   OH240237   4.359   5.202   1.567  0.0435 -0.2944 -0.1976
 6201TIP3    H140238   4.280   5.243   1.602 -1.6579 -3.7713  0.4829
 6201TIP3    H240239   4.430   5.237   1.622 -1.3980  0.8316  1.0419
 6202TIP3   OH240240   4.612   2.502   7.140  0.1509  0.1891  0.2797
 6202TIP3    H140241   4.560   2.495   7.060 -0.4060  2.5369  0.3352
 6202TIP3    H240242   4.593   2.422   7.189 -0.9386 -0.4493 -1.1205
 6203TIP3   OH240243   4.395   6.026   3.119  0.0206 -0.5849  0.4237
 6203TIP3    H140244   4.437   5.940   3.110  1.0253 -0.2100  1.4032
 6203TIP3    H240245   4.457   6.078   3.169 -0.6864  0.6569  0.0379
 6204TIP3   OH240246   4.861   3.669   8.102 -0.2372  0.6959 -0.5147
 6204TIP3    H140247   4.804   3.670   8.180  1.5667  1.7703  0.8583
 6204TIP3    H240248   4.875   3.762   8.082  1.0368  0.4489 -0.8051
 6205TIP3   OH240249   3.900   1.183   9.061  0.0111 -0.3585  0.7289
 6205TIP3    H140250   3.893   1.225   8.975  1.2525 -1.1527  0.2222
 6205TIP3    H240251   3.841   1.108   9.056  0.9275 -1.0587  0.1479
 6206TIP3   OH240252   3.573   3.158   1.738 -0.3753  0.4377 -0.0562
 6206TIP3    H140253   3.666   3.142   1.721 -0.2299 -2.5388  2.6938
 6206TIP3    H240254   3.567   3.166   1.833 -2.9846 -0.1993 -0.0993
 6207TIP3   OH240255   5.231   2.527   1.453  0.4990  0.0546 -1.0551
 6207TIP3    H140256   5.278   2.510   1.535 -1.9557  1.1403  0.6827
 6207TIP3    H240257   5.289   2.586   1.405  0.1044  3.2980  2.0572
 6208TIP3   OH240258   0.341   0.114   7.292 -0.0616  0.0652 -0.1671
 6208TIP3    H140259   0.430   0.133   7.262  0.4407 -0.2977  1.0553
 6208TIP3    H240260   0.299   0.201   7.296  0.9616  0.5294  1.4399
 6209TIP3   OH240261   2.896   0.212   0.917 -0.5602  0.1640 -0.1011
 6209TIP3    H140262   2.950   0.254   0.984 -1.0726 -1.0213  1.0970
 6209TIP3    H240263   2.806   0.237   0.939 -0.8881 -1.5609  0.6950
 6210TIP3   OH240264   0.968   5.411   8.049  0.5404  0.1999 -0.3987
 6210TIP3    H140265   0.977   5.437   8.140  0.2157 -0.7502 -0.0859
 6210TIP3    H240266   0.905   5.473   8.013  2.8276  2.4587 -0.7909
 6211TIP3   OH240267   1.127   0.748   9.066 -0.0508  0.3646  0.0423
 6211TIP3    H140268   1.113   0.653   9.071  0.7277  0.2377 -0.1079
 6211TIP3    H240269   1.039   0.784   9.063 -0.3702 -0.4404 -1.3616
 6212TIP3   OH240270   2.821   0.983   7.280  0.6041  0.0142 -0.6647
 6212TIP3    H140271   2.819   1.058   7.220 -0.0328  0.8425  0.3617
 6212TIP3    H240272   2.732   0.978   7.315  0.5031 -1.5386 -1.0795
 6213TIP3   OH240273   4.966   4.440   2.115 -0.5149  0.2959  0.1972
 6213TIP3    H140274   4.917   4.440   2.033  2.0758 -3.7317 -1.6521
 6213TIP3    H240275   4.899   4.429   2.183 -2.5212  0.6552 -1.6348
 6214TIP3   OH240276   3.970   1.474   6.526  0.2488  0.4949 -0.3728
 6214TIP3    H140277   3.891   1.463   6.579  0.7890  0.8876  0.5326
 6214TIP3    H240278   3.947   1.543   6.464  0.2663  1.5209  0.7111
 6215TIP3   OH240279   3.484   3.758   1.753  0.5096 -0.1563  0.4042
 6215TIP3    H140280   3.430   3.683   1.731 -1.0718  0.7688  0.9481
 6215TIP3    H240281   3.439   3.799   1.827  1.0285  1.6095 -0.2114
 6216TIP3   OH240282   6.738   6.147   0.881 -0.1140  0.2158 -0.3950
 6216TIP3    H140283   6.787   6.128   0.961  0.5867 -0.8243 -1.0423
 6216TIP3    H240284   6.647   6.127   0.904  0.3826 -2.6568 -0.5594
 6217TIP3   OH240285   6.499   2.074   0.002  0.4468  0.1247  0.0981
 6217TIP3    H140286   6.492   2.051   0.094  2.5381  1.5301  0.6894
 6217TIP3    H240287   6.417   2.045  -0.037 -0.5063 -0.4657  2.4047
 6218TIP3   OH240288   2.541   4.972   7.669 -0.0532  0.6825 -0.1883
 6218TIP3    H140289   2.554   5.049   7.724 -2.3147  1.4755 -0.6563
 6218TIP3    H240290   2.616   4.972   7.609  0.0461  2.4984 -0.1201
 6219TIP3   OH240291   4.438   5.074   0.066  0.2754  0.1617  0.4006
 6219TIP3    H140292   4.429   5.022   0.146  1.1502 -0.0691  0.3572
 6219TIP3    H240293   4.495   5.146   0.091  0.4413  0.1638  0.0138
 6220TIP3   OH240294   3.341   6.236   1.296 -0.1413 -0.1717 -0.4865
 6220TIP3    H140295   3.297   6.214   1.377  0.8774  2.1079  0.7816
 6220TIP3    H240296   3.270   6.250   1.233 -1.0620  0.0083  0.5656
 6221TIP3   OH240297   2.390   5.594   7.832  0.1739 -0.4627  0.0781
 6221TIP3    H140298   2.372   5.680   7.794 -0.3739 -0.4758  0.2967
 6221TIP3    H240299   2.351   5.532   7.771  1.9535 -0.6568 -0.9106
 6222TIP3   OH240300   1.829   3.780   0.935  0.7703 -0.0748 -0.3835
 6222TIP3    H140301   1.794   3.760   0.848  1.3782 -1.9875 -0.2188
 6222TIP3    H240302   1.759   3.829   0.978  0.5511  1.1486 -2.0004
 6223TIP3   OH240303   2.352   0.512   2.426 -0.3595 -0.3509  0.3948
 6223TIP3    H140304   2.302   0.594   2.436 -1.6861 -1.3755  3.2938
 6223TIP3    H240305   2.388   0.496   2.513  1.3765 -1.9819 -0.5608
 6224TIP3   OH240306   3.253   3.208   6.725 -0.2318  0.0614 -0.3226
 6224TIP3    H140307   3.229   3.222   6.634 -0.8810  0.2741 -0.1238
 6224TIP3    H240308   3.348   3.225   6.728  0.4269 -2.7487 -1.5311
 6225TIP3   OH240309   0.070   1.032   1.788 -0.1255  0.0517 -0.4683
 6225TIP3    H140310   0.055   0.995   1.875 -3.9845 -1.2370 -1.4688
 6225TIP3    H240311   0.055   1.126   1.799  2.0795  0.3349  0.6563
 6226TIP3   OH240312   5.907   2.386   8.036 -0.5870  0.4664  0.3434
 6226TIP3    H140313   5.998   2.414   8.048 -0.8741  1.3290  0.5741
 6226TIP3    H240314   5.914   2.302   7.989  0.3004  1.0193 -0.5738
 6227TIP3   OH240315   5.168   6.267   7.189 -0.4907  0.3744  0.1681
 6227TIP3    H140316   5.104   6.262   7.118 -0.0111  0.0870 -0.2583
 6227TIP3    H240317   5.242   6.213   7.158  0.3625  1.4829  0.2108
 6228TIP3   OH240318   5.348   0.016   8.785 -0.8909 -0.0930 -0.6337
 6228TIP3    H140319   5.290   0.060   8.723  0.6831  1.2038 -1.2540
 6228TIP3    H240320   5.300   0.016   8.867 -2.8097 -1.3672 -1.6677
 6229TIP3   OH240321   0.639   2.038   7.721  0.4745 -0.7503  1.4681
 6229TIP3    H140322   0.716   1.994   7.759  1.1494  1.2511  2.5561
 6229TIP3    H240323   0.566   1.981   7.743  1.3410 -1.4822  2.5765
 6230TIP3   OH240324   4.460   3.080   0.495  0.1023 -0.5748  0.2716
 6230TIP3    H140325   4.534   3.113   0.444  0.2822  0.2105  1.0338
 6230TIP3    H240326   4.409   3.157   0.518  0.6808 -0.7498  2.3295
 6231TIP3   OH240327   2.727   1.641   9.125  0.7572 -0.0623  0.8951
 6231TIP3    H140328   2.665   1.611   9.192 -1.8096  1.1210 -0.7992
 6231TIP3    H240329   2.784   1.702   9.171 -0.5927  0.3219  2.1570
 6232TIP3   OH240330   4.640   0.687   7.543  0.3834  0.0345 -0.4270
 6232TIP3    H140331   4.691   0.624   7.491  0.2585  0.2120 -0.7685
 6232TIP3    H240332   4.666   0.671   7.633  1.0178  0.0950 -0.5956
 6233TIP3   OH240333   0.978   0.922   1.059 -0.3369 -0.5921 -0.0998
 6233TIP3    H140334   1.005   0.926   0.968  0.0035  0.1577  0.0229
 6233TIP3    H240335   0.937   0.836   1.069 -1.3449 -0.2703 -1.2152
 6234TIP3   OH240336   5.743   2.727   1.909  0.0344  0.2757  0.8726
 6234TIP3    H140337   5.725   2.718   2.003  0.2684  1.2893  1.0202
 6234TIP3    H240338   5.785   2.644   1.885 -1.2402 -0.5531  1.3629
 6235TIP3   OH240339   0.921   6.457   8.719  0.7564 -0.2052 -0.8379
 6235TIP3    H140340   0.972   6.535   8.739 -0.2142 -0.0004  1.1046
 6235TIP3    H240341   0.833   6.478   8.751  0.0355 -1.4336 -1.9263
 6236TIP3   OH240342   0.577   0.968   8.998  0.2420  0.3194  0.2485
 6236TIP3    H140343   0.552   1.051   8.958  1.5597  0.1554 -1.0205
 6236TIP3    H240344   0.611   0.992   9.084 -0.2297  0.9792  0.2589
 6237TIP3   OH240345   2.173   2.113   0.599 -0.0820 -0.1004  0.2852
 6237TIP3    H140346   2.180   2.112   0.503  0.5024  0.1374  0.3248
 6237TIP3    H240347   2.171   2.206   0.621 -0.9039 -0.1515  0.4599
 6238TIP3   OH240348   0.685   6.015   1.170  0.4385 -0.0479  0.0170
 6238TIP3    H140349   0.747   6.054   1.110 -0.4107 -0.3887 -1.1241
 6238TIP3    H240350   0.707   6.052   1.256  0.8239  1.4781 -0.7172
 6239TIP3   OH240351   0.471   4.916   7.709 -0.7873 -0.0785  0.3272
 6239TIP3    H140352   0.522   4.929   7.788 -1.6554 -0.3233  0.9431
 6239TIP3    H240353   0.435   5.002   7.689  0.3413  0.2299 -0.4613
 6240TIP3   OH240354   6.174   1.687   7.145  0.6352 -0.6326  0.1148
 6240TIP3    H140355   6.115   1.651   7.210  0.2776 -0.2121  0.0261
 6240TIP3    H240356   6.260   1.684   7.186  0.1949  1.2019  1.2846
 6241TIP3   OH240357   2.465   4.588   7.362 -0.0419  0.3849  0.9939
 6241TIP3    H140358   2.421   4.660   7.407  0.1755  0.2089  1.4981
 6241TIP3    H240359   2.495   4.531   7.433 -0.8643 -0.5837  0.5859
 6242TIP3   OH240360   5.869   6.041   0.194 -0.5651  0.0061  0.1061
 6242TIP3    H140361   5.851   6.114   0.134  0.0079  0.2424  0.2181
 6242TIP3    H240362   5.786   6.025   0.238 -0.6701  0.6566  0.1471
 6243TIP3   OH240363   5.114   3.226   8.180 -0.2876  0.4714  0.4425
 6243TIP3    H140364   5.044   3.189   8.128 -1.0893  1.7763  0.5409
 6243TIP3    H240365   5.192   3.220   8.124 -0.4987 -0.8073  0.2630
 6244TIP3   OH240366   0.066   0.447   7.591 -0.5047  0.0947  0.1279
 6244TIP3    H140367   0.037   0.410   7.508 -0.0004 -1.7711  0.7337
 6244TIP3    H240368  -0.010   0.437   7.649 -0.6789  0.9076  0.0506
 6245TIP3   OH240369   5.318   2.859   8.030 -0.2568 -0.1876 -0.3331
 6245TIP3    H140370   5.287   2.861   7.939  0.3523 -0.1096 -0.5467
 6245TIP3    H240371   5.394   2.917   8.030 -0.8704  0.6388  0.4720
 6246TIP3   OH240372   2.511   0.945   0.145  0.2102 -0.2342 -0.1241
 6246TIP3    H140373   2.497   1.025   0.095 -0.4303 -0.2956 -0.0609
 6246TIP3    H240374   2.529   0.878   0.079  1.6921  0.1425 -0.1166
 6247TIP3   OH240375   5.035   2.714   9.050 -0.1916 -0.2821  0.2668
 6247TIP3    H140376   5.124   2.746   9.067  0.3383 -1.2620 -0.5711
 6247TIP3    H240377   4.980   2.766   9.108  1.0670 -0.6170  1.8300
 6248TIP3   OH240378   1.877   0.290   0.976 -0.0521 -0.2135 -0.0496
 6248TIP3    H140379   1.880   0.383   0.998  0.9222 -0.5471  1.3789
 6248TIP3    H240380   1.791   0.260   1.008  0.6369 -0.3060  1.8459
 6249TIP3   OH240381   1.656   1.722   0.381  0.1135 -0.0248 -0.0361
 6249TIP3    H140382   1.648   1.807   0.339  2.4984 -0.0997 -0.8304
 6249TIP3    H240383   1.725   1.733   0.446 -1.0678 -0.8347  1.4278
 6250TIP3   OH240384   0.596   3.963   2.184  0.6447  0.2563 -0.1088
 6250TIP3    H140385   0.683   3.995   2.157  0.7922 -0.5314 -0.5901
 6250TIP3    H240386   0.608   3.932   2.273  0.6872  0.8106  0.0807
 6251TIP3   OH240387   5.020   3.190   7.551 -0.0748 -0.2838 -0.4067
 6251TIP3    H140388   5.094   3.237   7.513  0.1993  0.0478  0.5029
 6251TIP3    H240389   5.024   3.211   7.645 -1.6928  0.2778 -0.4221
 6252TIP3   OH240390   2.851   0.641   8.878 -0.2664  0.0628 -0.5850
 6252TIP3    H140391   2.860   0.569   8.815 -0.1556 -0.2327 -0.2343
 6252TIP3    H240392   2.757   0.659   8.881 -0.2142  0.5462 -1.3475
 6253TIP3   OH240393   2.365   6.096   1.395 -0.1140 -0.0814 -0.0752
 6253TIP3    H140394   2.358   6.038   1.320 -0.2988 -0.6706  0.3953
 6253TIP3    H240395   2.352   6.184   1.358 -1.1501 -0.4346 -0.5760
 6254TIP3   OH240396   2.777   6.685   7.627  0.2595  0.3130 -0.0264
 6254TIP3    H140397   2.791   6.659   7.718  2.0456 -1.9020 -0.8414
 6254TIP3    H240398   2.683   6.673   7.613 -0.2919  1.9668  1.8289
 6255TIP3   OH240399   6.047   0.897   0.626  0.0499  0.3206 -0.4861
 6255TIP3    H140400   6.120   0.957   0.641  0.4315  0.1636 -1.6766
 6255TIP3    H240401   6.020   0.871   0.714  1.6918  0.0560 -0.0294
 6256TIP3   OH240402   6.406   6.131   7.291 -0.2580  0.4881  0.3019
 6256TIP3    H140403   6.338   6.115   7.356 -0.5090  1.5739  0.3269
 6256TIP3    H240404   6.474   6.067   7.311 -0.0829  1.1476  1.9981
 6257TIP3   OH240405   2.151   6.029   0.656 -0.3983  0.2277 -0.0829
 6257TIP3    H140406   2.179   5.969   0.586  1.0379  1.5807 -0.7231
 6257TIP3    H240407   2.064   5.997   0.680 -1.5912  0.4741 -3.4395
 6258TIP3   OH240408   2.519   0.575   0.650  0.6157  0.2746  0.3270
 6258TIP3    H140409   2.518   0.480   0.645  1.0036  0.3045 -0.8629
 6258TIP3    H240410   2.539   0.603   0.560 -0.0859  1.4878  0.5252
 6259TIP3   OH240411   0.017   1.976   9.114  0.3126  0.3073 -0.5619
 6259TIP3    H140412   0.049   2.020   9.193 -1.8799 -2.7025  2.2623
 6259TIP3    H240413  -0.070   2.014   9.100 -0.7502 -1.5280  0.6889
 6260TIP3   OH240414   1.993   2.465   7.034 -0.9741 -0.0517  0.1386
 6260TIP3    H140415   1.985   2.378   6.996 -3.6457  0.0650  0.2924
 6260TIP3    H240416   1.982   2.525   6.960  0.3834  0.1974  0.1114
 6261TIP3   OH240417   4.640   0.072   6.440  0.0997  0.8674 -0.5508
 6261TIP3    H140418   4.590   0.097   6.517 -1.0580  1.8399 -1.5687
 6261TIP3    H240419   4.582   0.092   6.366  1.2602  0.2088 -1.6920
 6262TIP3   OH240420   5.233   4.095   8.311 -0.0653  0.4639 -0.4153
 6262TIP3    H140421   5.273   4.008   8.322  0.5259  0.6690 -0.8520
 6262TIP3    H240422   5.297   4.143   8.258  0.8948  2.0420  2.0191
 6263TIP3   OH240423   4.567   2.367   7.852  0.0462 -0.2884  0.0729
 6263TIP3    H140424   4.518   2.429   7.799  0.1532 -1.6148 -1.6676
 6263TIP3    H240425   4.503   2.299   7.875  0.7642 -1.5429 -1.4229
 6264TIP3   OH240426   1.703   4.617   0.418  0.7788 -0.4168 -0.2632
 6264TIP3    H140427   1.701   4.527   0.386  0.9114 -0.1948 -0.9157
 6264TIP3    H240428   1.630   4.622   0.481  0.9404 -1.0469 -0.0214
 6265TIP3   OH240429   3.129   5.978   7.543 -0.1093 -0.1477  0.0440
 6265TIP3    H140430   3.069   6.039   7.500 -0.6814 -1.0786 -0.5087
 6265TIP3    H240431   3.192   5.954   7.475  1.0900  1.0382  0.6947
 6266TIP3   OH240432   3.445   4.658   8.921  0.2631 -0.2983 -0.5136
 6266TIP3    H140433   3.512   4.603   8.963  0.5568  1.2723  1.2461
 6266TIP3    H240434   3.386   4.596   8.878  0.7274 -1.9722  1.1146
 6267TIP3   OH240435   5.291   1.109   8.501  1.2160  0.3636 -0.3137
 6267TIP3    H140436   5.384   1.106   8.480  1.3453 -0.4300  0.3599
 6267TIP3    H240437   5.287   1.096   8.596  0.4407  0.8257 -0.2734
 6268TIP3   OH240438   1.040   5.866   0.050  0.3821 -0.3761  0.5757
 6268TIP3    H140439   1.077   5.945   0.088 -1.1986 -0.1586  1.7273
 6268TIP3    H240440   1.085   5.794   0.095 -0.0979 -0.1166  1.4884
 6269TIP3   OH240441   6.146   5.727   0.475  0.2030 -0.4652  0.3668
 6269TIP3    H140442   6.207   5.770   0.533  1.1528  0.9403 -1.5696
 6269TIP3    H240443   6.196   5.655   0.436 -0.0003 -0.5387  0.2360
 6270TIP3   OH240444   0.936   2.083   1.210  0.5159 -0.3102 -0.5470
 6270TIP3    H140445   0.850   2.125   1.210  0.6056 -0.1229 -0.3947
 6270TIP3    H240446   0.919   1.994   1.178  0.3067 -0.1942 -0.7679
 6271TIP3   OH240447   4.307   3.362   7.184  0.2960 -0.0686  0.3550
 6271TIP3    H140448   4.223   3.378   7.227 -0.2090 -0.0378 -0.6110
 6271TIP3    H240449   4.371   3.408   7.238 -0.5414  1.4387  0.1225
 6272TIP3   OH240450   5.687   2.002   7.011  0.0850  0.4132 -0.1543
 6272TIP3    H140451   5.777   2.031   6.998  0.1141  0.1514 -0.5674
 6272TIP3    H240452   5.683   1.916   6.969 -0.5666  0.7716 -0.8679
 6273TIP3   OH240453   3.964   5.530   8.468 -0.2516 -0.0990  0.0249
 6273TIP3    H140454   3.880   5.527   8.513 -0.0691  0.9673  0.4824
 6273TIP3    H240455   3.945   5.501   8.380 -1.8916  3.3532 -0.9588
 6274TIP3   OH240456   4.101   5.021   7.298 -0.0122 -0.0236  0.4615
 6274TIP3    H140457   4.009   5.024   7.272 -0.2086  1.5523  1.2530
 6274TIP3    H240458   4.102   4.970   7.379  0.3026 -2.9322 -1.2446
 6275TIP3   OH240459   3.356   5.559   1.247 -0.2567 -0.5170  0.0031
 6275TIP3    H140460   3.433   5.533   1.197  1.0727  0.2772  1.5616
 6275TIP3    H240461   3.293   5.588   1.180  1.4413  0.4889 -1.2414
 6276TIP3   OH240462   3.928   1.574   9.007 -0.1161 -0.0965 -0.0629
 6276TIP3    H140463   3.931   1.575   9.102 -0.3025 -0.5337 -0.0502
 6276TIP3    H240464   3.850   1.522   8.985  0.9918 -1.6964 -0.4534
 6277TIP3   OH240465   2.655   0.278   8.499  0.7177  0.1034 -0.2767
 6277TIP3    H140466   2.710   0.348   8.462 -0.6952  1.5222  0.1914
 6277TIP3    H240467   2.567   0.314   8.498  0.1890 -0.9940  1.6478
 6278TIP3   OH240468   3.243   1.624   1.243  0.4835  0.3750 -0.1023
 6278TIP3    H140469   3.236   1.624   1.339  1.0437  1.2391 -0.0562
 6278TIP3    H240470   3.314   1.685   1.224  0.0494  0.5853 -1.0930
 6279TIP3   OH240471   5.842   2.101   6.149  0.2365  0.0065 -0.3723
 6279TIP3    H140472   5.837   2.129   6.058 -0.1998 -0.0046 -0.3509
 6279TIP3    H240473   5.752   2.106   6.181  0.3772 -0.0583  0.0367
 6280TIP3   OH240474   5.830   1.468   1.048  0.4316  0.0597  0.3423
 6280TIP3    H140475   5.824   1.463   0.953  1.0172  1.6696  0.1860
 6280TIP3    H240476   5.739   1.474   1.078  0.2794  0.7505 -0.2210
 6281TIP3   OH240477   2.812   0.374   1.720  0.1192  1.0531  0.2842
 6281TIP3    H140478   2.723   0.405   1.738 -0.6166 -0.2273 -0.9249
 6281TIP3    H240479   2.825   0.303   1.783 -2.4056 -3.3357 -3.4617
 6282TIP3   OH240480   2.012   0.985   0.226 -0.4923 -0.1608  0.5364
 6282TIP3    H140481   1.993   0.892   0.237 -0.6801 -0.4028 -1.4803
 6282TIP3    H240482   2.104   0.994   0.253 -0.2245 -1.1065 -0.0221
 6283TIP3   OH240483   5.656   1.745   6.855 -0.0045  0.4748  0.1261
 6283TIP3    H140484   5.583   1.686   6.834 -0.0534  0.3248  0.6995
 6283TIP3    H240485   5.733   1.703   6.815 -0.3862  1.1673 -1.3754
 6284TIP3   OH240486   2.764   0.187   1.324 -0.8300  0.2845  1.1308
 6284TIP3    H140487   2.750   0.144   1.239 -1.7094  2.2915  0.1974
 6284TIP3    H240488   2.692   0.155   1.379  0.2145 -1.6802  1.4681
 6285TIP3   OH240489   3.883   1.752   0.529  0.9006  0.3815  0.1615
 6285TIP3    H140490   3.935   1.824   0.493  2.5948  0.9605  3.3877
 6285TIP3    H240491   3.945   1.679   0.537 -0.1240 -0.6106 -0.5746
 6286TIP3   OH240492   3.099   5.805   7.916  0.2733 -0.1248 -0.3892
 6286TIP3    H140493   3.052   5.866   7.972  0.3806 -0.1485 -0.2742
 6286TIP3    H240494   3.042   5.795   7.839 -0.6942 -1.4084  0.4550
 6287TIP3   OH240495   1.304   3.850   0.002  0.2677  0.4659 -0.1830
 6287TIP3    H140496   1.308   3.771   0.055 -1.2246  1.2975  1.2544
 6287TIP3    H240497   1.216   3.849  -0.037  0.5855  0.9289 -0.9604
 6288TIP3   OH240498   5.093   3.285   7.021  0.0172  0.0242  0.1493
 6288TIP3    H140499   5.064   3.338   7.095  0.1383 -0.1386  0.3148
 6288TIP3    H240500   5.121   3.349   6.956 -0.3060  0.1722  0.1555
 6289TIP3   OH240501   2.059   1.358   1.636 -0.0384  0.1554  0.0179
 6289TIP3    H140502   2.062   1.337   1.543  0.9101  1.2846 -0.2269
 6289TIP3    H240503   1.980   1.411   1.647 -0.3196 -0.2440 -0.0871
 6290TIP3   OH240504   5.119   3.683   8.694  0.1818  0.0463  0.6268
 6290TIP3    H140505   5.187   3.633   8.649 -0.4943  0.3535 -0.7906
 6290TIP3    H240506   5.043   3.625   8.693 -0.2443  0.6102  0.1030
 6291TIP3   OH240507   0.824   3.425   8.979 -0.3296  0.1340 -0.4987
 6291TIP3    H140508   0.755   3.463   9.032  0.1538  2.1900 -1.2662
 6291TIP3    H240509   0.874   3.370   9.039 -0.6706  1.2442  0.8334
 6292TIP3   OH240510   2.297   0.141   2.045  0.1176 -0.5636 -0.0977
 6292TIP3    H140511   2.309   0.072   2.111 -0.8638 -2.0235 -1.3735
 6292TIP3    H240512   2.227   0.195   2.080  3.2158  2.1434  2.6820
 6293TIP3   OH240513   3.353   5.198   0.204 -0.1457 -0.1177 -0.0831
 6293TIP3    H140514   3.366   5.198   0.299 -0.6545  0.9512 -0.0037
 6293TIP3    H240515   3.438   5.175   0.168  0.2261  0.1577  0.6073
 6294TIP3   OH240516   1.490   3.924   2.422 -0.5361  0.7327  0.0525
 6294TIP3    H140517   1.574   3.883   2.404 -0.2501  0.5249  1.7242
 6294TIP3    H240518   1.505   4.017   2.404 -0.1510  0.6056 -0.3088
 6295TIP3   OH240519   0.823   4.069   7.545  0.1417 -0.7473 -0.2851
 6295TIP3    H140520   0.735   4.046   7.574  0.4695 -1.4589  0.1671
 6295TIP3    H240521   0.879   4.052   7.621  0.5718  0.4472 -0.2975
 6296TIP3   OH240522   2.867   1.383   6.972 -0.3276  0.1714 -0.0164
 6296TIP3    H140523   2.777   1.397   6.944  0.2794  0.8419 -1.8076
 6296TIP3    H240524   2.916   1.453   6.929  1.2066 -0.8463 -0.0085
 6297TIP3   OH240525   3.961   6.716   0.175 -0.1242 -0.3062 -0.2780
 6297TIP3    H140526   3.971   6.705   0.270 -0.7250  0.1569 -0.1542
 6297TIP3    H240527   4.042   6.681   0.138  0.1587 -0.3979  0.4102
 6298TIP3   OH240528   1.168   1.225   8.003 -1.0834  0.1393  0.2001
 6298TIP3    H140529   1.074   1.230   8.017 -1.4853 -1.3794 -1.5024
 6298TIP3    H240530   1.185   1.131   7.990  0.7547  0.3186  1.0080
 6299TIP3   OH240531   6.381   4.152   8.529  0.2764 -0.6889  0.4142
 6299TIP3    H140532   6.321   4.196   8.589  3.2026  2.8666  1.0852
 6299TIP3    H240533   6.367   4.196   8.445  1.0705 -0.6515  0.2940
 6300TIP3   OH240534   4.701   1.488   9.079  0.1910  0.3838 -0.1255
 6300TIP3    H140535   4.755   1.508   9.003  0.5838  2.3615  0.6077
 6300TIP3    H240536   4.615   1.470   9.043  0.4882  0.8026 -1.0925
 6301TIP3   OH240537   6.259   6.246   1.000 -0.2434  0.0111 -0.0674
 6301TIP3    H140538   6.244   6.252   1.095 -0.7734  0.9486 -0.2026
 6301TIP3    H240539   6.200   6.311   0.962  1.6599  1.3506 -0.8822
 6302TIP3   OH240540   5.882   2.301   2.096 -0.6254  0.2457  0.5632
 6302TIP3    H140541   5.809   2.284   2.156  0.4229  0.3471  1.9113
 6302TIP3    H240542   5.853   2.264   2.012 -2.4460  0.8035  0.9031
 6303TIP3   OH240543   5.503   2.528   8.577 -0.7232 -0.3390  0.4172
 6303TIP3    H140544   5.442   2.597   8.605  0.7477  0.2564  2.3731
 6303TIP3    H240545   5.446   2.461   8.539 -2.3030  1.4524 -0.5736
 6304TIP3   OH240546   0.684   6.233   2.313 -0.2930  0.0768 -0.4279
 6304TIP3    H140547   0.691   6.248   2.407 -1.4271  1.1486 -0.4960
 6304TIP3    H240548   0.770   6.197   2.288 -0.8263 -2.8993  1.4670
 6305TIP3   OH240549   5.030   0.684   6.510  0.1721  0.6556  0.2577
 6305TIP3    H140550   5.047   0.598   6.473 -0.6666  0.1403  1.0144
 6305TIP3    H240551   4.958   0.669   6.572  1.2098  1.5642  1.7444
 6306TIP3   OH240552   6.111   3.284   7.465  0.1442 -0.3443  0.1967
 6306TIP3    H140553   6.091   3.377   7.471 -0.8373 -0.5936  1.0883
 6306TIP3    H240554   6.205   3.278   7.478  0.3208  0.5730 -0.5459
 6307TIP3   OH240555   0.408   5.941   0.354 -0.2496  0.0309 -0.5020
 6307TIP3    H140556   0.437   6.023   0.393  0.9371 -0.3718 -0.4659
 6307TIP3    H240557   0.364   5.894   0.425 -1.4909  0.8824 -0.6921
 6308TIP3   OH240558   0.256   4.833   6.661  0.5011  0.4454 -0.2856
 6308TIP3    H140559   0.165   4.854   6.642  0.6485  0.2777 -1.2298
 6308TIP3    H240560   0.294   4.915   6.693  0.3631  0.8765 -1.2123
 6309TIP3   OH240561   4.876   1.043   1.914 -0.0235  0.3344 -0.4817
 6309TIP3    H140562   4.844   1.065   2.001 -2.0334 -0.1311 -1.0578
 6309TIP3    H240563   4.802   1.000   1.871  1.0571  0.1713 -2.2785
 6310TIP3   OH240564   0.792   2.622   2.224  0.0668 -0.1091 -0.4378
 6310TIP3    H140565   0.710   2.574   2.217  0.0986 -0.6981  2.1980
 6310TIP3    H240566   0.777   2.702   2.174 -3.0362  0.8958  1.7841
 6311TIP3   OH240567   1.386   0.496   8.681 -0.0828  0.3190  0.0088
 6311TIP3    H140568   1.413   0.405   8.689 -1.0951  0.1024  1.2375
 6311TIP3    H240569   1.469   0.545   8.681  0.4772 -0.5920 -0.8237
 6312TIP3   OH240570   2.507   1.789   9.075 -0.1456 -0.5227  0.1969
 6312TIP3    H140571   2.501   1.878   9.110  0.0766 -0.8962  1.2361
 6312TIP3    H240572   2.600   1.777   9.056 -0.2696 -0.3136 -0.5681
 6313TIP3   OH240573   3.229   0.629   7.956 -0.5736  0.9469 -0.1990
 6313TIP3    H140574   3.322   0.652   7.955  0.0527 -1.3343 -1.7798
 6313TIP3    H240575   3.193   0.671   7.879  0.0556 -1.2123 -1.7547
 6314TIP3   OH240576   2.059   5.502   0.652  0.2051 -0.8156  0.7557
 6314TIP3    H140577   1.969   5.472   0.643  0.4748 -1.4199 -0.0587
 6314TIP3    H240578   2.064   5.538   0.741 -1.3636  1.0725  0.1468
 6315TIP3   OH240579   4.453   0.355   2.339 -0.1604 -0.1716  0.1245
 6315TIP3    H140580   4.378   0.409   2.362  1.0827  1.6212  0.1143
 6315TIP3    H240581   4.497   0.403   2.269  2.1152 -0.1503  1.4858
 6316TIP3   OH240582   1.831   6.511   1.024 -0.2703  0.2960 -0.4353
 6316TIP3    H140583   1.739   6.515   1.049 -0.6187  0.4028 -1.6416
 6316TIP3    H240584   1.865   6.433   1.068 -1.2138 -0.3434 -0.8092
 6317TIP3   OH240585   3.353   0.723   2.511  0.5834  0.3056 -0.0395
 6317TIP3    H140586   3.369   0.759   2.423 -0.2683 -1.1307 -0.8294
 6317TIP3    H240587   3.416   0.768   2.567  1.3228  1.0931 -1.4374
 6318TIP3   OH240588   3.363   0.219   0.532 -0.1563 -0.4662 -0.2938
 6318TIP3    H140589   3.382   0.235   0.440 -1.8780 -0.9327 -0.7696
 6318TIP3    H240590   3.268   0.218   0.537 -0.1341  0.8317  1.7366
 6319TIP3   OH240591   0.134   5.800   0.047  0.0962 -0.0793 -1.0094
 6319TIP3    H140592   0.182   5.872   0.088  2.2316 -1.2841 -1.2514
 6319TIP3    H240593   0.083   5.761   0.118  0.8157  0.1888 -0.3286
 6320TIP3   OH240594   6.649   1.145   0.912  0.3571 -0.0501  0.2027
 6320TIP3    H140595   6.562   1.183   0.902  0.7915  1.0767  0.5474
 6320TIP3    H240596   6.652   1.117   1.003 -0.2906 -1.8074 -0.2813
 6321TIP3   OH240597   4.954   2.547   1.468  0.2532  0.1634  0.0413
 6321TIP3    H140598   4.928   2.548   1.560 -1.8627 -0.9776 -0.5009
 6321TIP3    H240599   5.050   2.542   1.471  0.5144  3.2391  2.1369
 6322TIP3   OH240600   3.181   4.574   0.472  0.0201 -0.1754 -0.0299
 6322TIP3    H140601   3.155   4.600   0.384 -0.0653  0.5952  0.2167
 6322TIP3    H240602   3.098   4.558   0.518  0.0644 -0.5659 -0.0791
 6323TIP3   OH240603   6.030   6.546   7.829 -0.3207  0.0723 -0.1508
 6323TIP3    H140604   6.003   6.460   7.796  0.1608  0.1774 -0.8501
 6323TIP3    H240605   5.978   6.609   7.778 -1.1794  0.1868  0.8442
 6324TIP3   OH240606   1.832   1.524   1.655  0.3147  0.4542 -0.3710
 6324TIP3    H140607   1.753   1.522   1.709  1.0920 -1.3652  0.7851
 6324TIP3    H240608   1.805   1.569   1.575 -2.3505 -1.4844 -0.6823
 6325TIP3   OH240609   1.222   4.068   7.135  0.5873 -0.5806  0.2129
 6325TIP3    H140610   1.189   4.053   7.047 -0.6042  0.2676  0.5016
 6325TIP3    H240611   1.144   4.081   7.189  1.3197 -0.3367  1.2559
 6326TIP3   OH240612   3.202   6.177   6.719 -0.1005  0.3808  0.0219
 6326TIP3    H140613   3.232   6.114   6.785 -1.4303 -0.3805 -0.0547
 6326TIP3    H240614   3.259   6.161   6.644 -1.2183 -1.7165 -0.4738
 6327TIP3   OH240615   1.090   2.397   0.291 -0.0896  0.1526  0.2555
 6327TIP3    H140616   1.055   2.382   0.204  0.0496 -0.3456  0.2816
 6327TIP3    H240617   1.085   2.311   0.334  0.3036  0.2810  0.5655
 6328TIP3   OH240618   2.018   3.485   1.515  0.3278  0.1909  0.3263
 6328TIP3    H140619   2.032   3.424   1.588  0.2393 -0.4642 -0.1922
 6328TIP3    H240620   2.005   3.570   1.557  0.0606 -0.2141  1.0837
 6329TIP3   OH240621   5.619   4.063   2.564  0.0959  0.1668 -0.0154
 6329TIP3    H140622   5.606   4.152   2.532  1.5937  1.3486  2.3758
 6329TIP3    H240623   5.532   4.034   2.592 -0.2862  1.1782 -0.1187
 6330TIP3   OH240624   2.022   5.908   6.284 -0.3763  0.5750 -0.2890
 6330TIP3    H140625   2.115   5.909   6.308  0.1891  2.7644 -2.2592
 6330TIP3    H240626   1.998   5.816   6.286  1.7048 -0.0082  0.7165
 6331TIP3   OH240627   0.436   6.272   0.124  0.1536 -0.0503 -0.0671
 6331TIP3    H140628   0.365   6.335   0.136  0.4174  0.5138 -1.2807
 6331TIP3    H240629   0.392   6.188   0.111 -0.3391  0.3764 -1.3019
 6332TIP3   OH240630   4.345   0.089   0.013  0.5086  0.1743 -0.0522
 6332TIP3    H140631   4.350   0.128   0.101 -0.3486  2.7495 -1.0788
 6332TIP3    H240632   4.266   0.035   0.016  0.2542  0.5615  0.6366
 6333TIP3   OH240633   2.982   3.384   8.459 -0.3148  0.3905  0.3674
 6333TIP3    H140634   3.026   3.444   8.519  0.5222  2.7759 -2.3765
 6333TIP3    H240635   3.053   3.334   8.419 -0.5941  0.4872 -0.2674
 6334TIP3   OH240636   5.773   0.474   1.749 -0.2855  0.3668 -0.1105
 6334TIP3    H140637   5.789   0.551   1.804 -1.9672 -0.1562  1.2019
 6334TIP3    H240638   5.717   0.507   1.678  0.4878  0.6907 -0.5880
 6335TIP3   OH240639   3.824   1.612   1.244  0.4873 -0.5147  0.1871
 6335TIP3    H140640   3.860   1.609   1.332 -0.3288  0.7727  0.5931
 6335TIP3    H240641   3.836   1.703   1.216 -2.8045  0.1776  0.5591
 6336TIP3   OH240642   3.026   1.341   0.396  0.3369 -0.0549 -0.2828
 6336TIP3    H140643   3.088   1.401   0.438 -1.0684  1.1760  0.1216
 6336TIP3    H240644   3.023   1.371   0.305  0.5812 -0.3528 -0.3942
 6337TIP3   OH240645   4.519   0.464   1.835  0.2471  0.0748 -0.1007
 6337TIP3    H140646   4.601   0.461   1.785 -0.1941  2.4900 -1.1151
 6337TIP3    H240647   4.473   0.383   1.811  1.9792 -0.9638 -0.0872
 6338TIP3   OH240648   1.914   6.160   7.218 -0.2150 -0.3136 -0.2240
 6338TIP3    H140649   1.881   6.111   7.143 -0.2827 -0.0357 -0.3728
 6338TIP3    H240650   1.993   6.204   7.185  0.3290 -0.9931  0.1312
 6339TIP3   OH240651   2.305   0.027   0.122  0.0594 -0.7007  0.1332
 6339TIP3    H140652   2.378   0.044   0.063  0.1713 -2.3712 -0.2574
 6339TIP3    H240653   2.341  -0.030   0.189 -1.1199 -2.5179 -0.7046
 6340TIP3   OH240654   5.177   4.156   0.724 -0.1602  0.2139  0.1156
 6340TIP3    H140655   5.166   4.232   0.782  0.2305 -0.0071  0.4912
 6340TIP3    H240656   5.267   4.128   0.740 -0.4769 -0.6633  0.3911
 6341TIP3   OH240657   1.985   1.087   1.527 -0.4064 -0.4195  0.1831
 6341TIP3    H140658   2.040   1.013   1.554 -0.6076 -0.1243  1.4959
 6341TIP3    H240659   2.017   1.161   1.578 -1.4086 -0.0321  0.2831
 6342TIP3   OH240660   0.478   3.551   9.003 -0.4296  0.4137 -0.0250
 6342TIP3    H140661   0.513   3.499   9.075  1.8841 -0.7621 -1.8409
 6342TIP3    H240662   0.437   3.487   8.945 -1.2851  1.1884 -0.2985
 6343TIP3   OH240663   6.657   1.700   7.416  0.0026 -0.3745  0.5610
 6343TIP3    H140664   6.662   1.626   7.356 -0.9374 -0.3013  0.3667
 6343TIP3    H240665   6.706   1.672   7.493 -1.3369 -1.7002  0.9888
 6344TIP3   OH240666   6.459   5.767   1.324  0.4901 -0.2253  0.5268
 6344TIP3    H140667   6.546   5.805   1.336 -0.1084  1.0941  0.7942
 6344TIP3    H240668   6.404   5.840   1.297 -1.2160 -0.3471  3.3400
 6345TIP3   OH240669   6.169   6.596   1.984 -0.2627 -0.1042  0.0087
 6345TIP3    H140670   6.189   6.666   2.046  0.1526  0.4308 -0.7129
 6345TIP3    H240671   6.116   6.639   1.916 -1.8786 -0.9730  0.6631
 6346TIP3   OH240672   5.418   3.781   8.579 -0.7282  0.1922 -0.4205
 6346TIP3    H140673   5.461   3.695   8.576  1.0884  1.0690 -2.4198
 6346TIP3    H240674   5.434   3.813   8.668  1.1702 -0.3503 -0.5232
 6347TIP3   OH240675   5.078   6.003   0.682 -0.0748  0.1724 -0.2942
 6347TIP3    H140676   5.139   5.958   0.739 -1.7873  0.0928  1.5960
 6347TIP3    H240677   5.128   6.074   0.643  1.7582 -1.2207 -0.5984
 6348TIP3   OH240678   3.320   0.241   6.956 -0.1342 -0.4815  0.1607
 6348TIP3    H140679   3.363   0.227   6.872 -0.9585  0.3064 -0.4126
 6348TIP3    H240680   3.345   0.330   6.981 -3.4895  1.1243 -1.5243
 6349TIP3   OH240681   4.822   5.173   7.880 -0.2572  0.4760 -0.0739
 6349TIP3    H140682   4.762   5.219   7.939 -0.1950  0.1752  0.2270
 6349TIP3    H240683   4.800   5.081   7.892  2.8466 -0.0668  3.0351
 6350TIP3   OH240684   0.202   5.988   0.978 -0.1902 -0.2700  0.2452
 6350TIP3    H140685   0.167   5.910   1.021 -0.1968 -0.8635 -0.7971
 6350TIP3    H240686   0.277   6.014   1.032 -1.6562  0.5097  2.0269
 6351TIP3   OH240687   6.151   3.524   7.644  0.8637 -0.3773 -0.1702
 6351TIP3    H140688   6.114   3.601   7.602  0.7772 -1.6107 -2.5699
 6351TIP3    H240689   6.242   3.548   7.662  0.8949  0.2533 -1.0856
 6352TIP3   OH240690   6.581   4.697   0.569  0.0001  0.3916  0.1615
 6352TIP3    H140691   6.566   4.743   0.652  3.3979  2.8837 -0.3892
 6352TIP3    H240692   6.677   4.692   0.561 -0.1750 -2.7643 -2.1239
 6353TIP3   OH240693   2.189   0.919   6.539  0.1713  0.5780 -0.3360
 6353TIP3    H140694   2.144   0.901   6.622  0.7477  2.1148  0.3490
 6353TIP3    H240695   2.281   0.929   6.564  0.3922  0.7668 -1.2120
 6354TIP3   OH240696   6.500   3.180   8.518 -0.1398 -0.2969  0.0274
 6354TIP3    H140697   6.510   3.275   8.521 -1.5564 -0.1419  0.3933
 6354TIP3    H240698   6.583   3.146   8.551  0.3396  0.8065 -0.0035
 6355TIP3   OH240699   2.814   5.844   1.563 -0.7504 -0.3953 -0.5110
 6355TIP3    H140700   2.826   5.820   1.471 -0.4465 -0.3700 -0.4780
 6355TIP3    H240701   2.887   5.803   1.608 -1.2008 -0.8655 -0.1971
 6356TIP3   OH240702   5.858   6.042   1.623  0.1798  0.0120  0.2456
 6356TIP3    H140703   5.770   6.076   1.603  0.7341  0.7377 -1.0927
 6356TIP3    H240704   5.861   5.957   1.579  0.8390  0.9033 -1.5184
 6357TIP3   OH240705   4.730   2.129   1.419  0.3720  0.3639  0.3752
 6357TIP3    H140706   4.686   2.162   1.341  1.2236  1.0019  0.1529
 6357TIP3    H240707   4.817   2.170   1.418  0.5374  0.0860  1.4526
 6358TIP3   OH240708   2.268   4.652   1.660  0.3620 -0.5407 -0.0798
 6358TIP3    H140709   2.324   4.673   1.585  0.1908 -2.2205 -0.7206
 6358TIP3    H240710   2.182   4.687   1.636  0.2595 -1.2482 -0.7757
 6359TIP3   OH240711   3.772   2.906   0.115 -0.1232  0.1407 -0.2615
 6359TIP3    H140712   3.741   2.960   0.042  0.4091  0.1805 -0.4643
 6359TIP3    H240713   3.719   2.827   0.110 -0.5751  0.4405 -0.2575
 6360TIP3   OH240714   4.315   0.508   0.729 -0.0977 -0.1595 -0.3926
 6360TIP3    H140715   4.222   0.524   0.741 -0.0310  0.8334 -1.0492
 6360TIP3    H240716   4.348   0.487   0.817 -0.8504 -0.0171 -0.0745
 6361TIP3   OH240717   6.520   6.432   7.947  0.2185 -0.3693 -0.0599
 6361TIP3    H140718   6.599   6.486   7.944 -0.9577  1.3921 -1.0239
 6361TIP3    H240719   6.549   6.348   7.983  2.3424  0.5170  0.4119
 6362TIP3   OH240720   2.519   5.632   1.742  0.5925  0.1313  0.4209
 6362TIP3    H140721   2.436   5.614   1.787  0.4737 -2.3709 -0.6517
 6362TIP3    H240722   2.553   5.711   1.785 -1.0237 -0.3258  2.7243
 6363TIP3   OH240723   1.827   5.033   1.474  0.4623  0.0225 -0.2348
 6363TIP3    H140724   1.783   5.017   1.390  2.1868  1.4825 -1.4757
 6363TIP3    H240725   1.920   5.023   1.455  0.8370 -1.3112  1.9431
 6364TIP3   OH240726   4.627   3.248   1.634 -0.0782  0.2105  0.0229
 6364TIP3    H140727   4.675   3.172   1.601  1.3156 -0.1039  2.5173
 6364TIP3    H240728   4.681   3.323   1.610 -0.2242  0.2138 -0.3125
 6365TIP3   OH240729   1.767   1.011   0.865  0.3016 -0.0414 -0.4569
 6365TIP3    H140730   1.808   0.975   0.943  1.6543  3.4239  0.6427
 6365TIP3    H240731   1.830   0.994   0.795 -0.1692 -1.7188 -0.5147
 6366TIP3   OH240732   4.784   1.361   2.080  0.3793 -0.3241  0.1858
 6366TIP3    H140733   4.738   1.382   2.161  0.5516  0.6077  0.0580
 6366TIP3    H240734   4.794   1.266   2.081  1.6640 -0.2055  1.9519
 6367TIP3   OH240735   5.273   3.908   7.246  0.9686  0.1791  0.4844
 6367TIP3    H140736   5.323   3.986   7.222  1.0335 -0.1155 -0.3690
 6367TIP3    H240737   5.259   3.862   7.163 -1.7276  0.8235  0.4829
 6368TIP3   OH240738   5.941   0.892   0.897  0.1980 -0.5687  0.2709
 6368TIP3    H140739   5.918   0.857   0.983 -0.3129 -1.0701 -0.0660
 6368TIP3    H240740   6.004   0.962   0.916 -0.7664  0.0899  1.1309
 6369TIP3   OH240741   1.237   4.981   7.064 -0.5096 -0.2469 -0.2025
 6369TIP3    H140742   1.180   5.002   6.990 -0.6033  0.8577  0.1546
 6369TIP3    H240743   1.192   5.017   7.140 -0.6745 -1.8591  0.4890
 6370TIP3   OH240744   2.884   1.254   7.400  0.3469  0.2232  0.1590
 6370TIP3    H140745   2.828   1.324   7.366  0.9740  1.7916  2.1230
 6370TIP3    H240746   2.874   1.260   7.495 -1.3356 -3.9332  0.4362
 6371TIP3   OH240747   4.046   2.710   0.768  0.6060 -0.4204 -0.5444
 6371TIP3    H140748   4.001   2.764   0.703 -0.9355 -0.9753  0.0144
 6371TIP3    H240749   3.982   2.699   0.838  2.2771  0.3473  1.1966
 6372TIP3   OH240750   0.045   4.051   6.468 -0.2283 -0.5897 -0.6627
 6372TIP3    H140751   0.116   4.017   6.523  0.8073  1.1954 -0.8249
 6372TIP3    H240752  -0.027   4.067   6.528 -0.4861 -2.2573 -0.4643
 6373TIP3   OH240753   4.077   3.403   2.104  0.2802  0.0418 -0.6608
 6373TIP3    H140754   4.007   3.362   2.154  0.8770  0.0413  0.1894
 6373TIP3    H240755   4.143   3.333   2.093  0.7065  0.3957 -0.3635
 6374TIP3   OH240756   1.782   4.706   1.493 -0.1727  0.1547 -0.1244
 6374TIP3    H140757   1.763   4.780   1.434  2.0297 -0.2494 -1.4411
 6374TIP3    H240758   1.838   4.743   1.561  2.8260 -0.5993 -2.0044
 6375TIP3   OH240759   3.794   0.917   1.513 -1.0886  0.5760  0.4312
 6375TIP3    H140760   3.753   0.871   1.440 -0.6454 -1.2520  1.2757
 6375TIP3    H240761   3.761   1.007   1.506 -1.3055  0.3778 -1.8001
 6376TIP3   OH240762   0.760   6.334   0.056 -0.0161  0.0019 -0.5480
 6376TIP3    H140763   0.706   6.334  -0.023  0.4495 -0.0200 -0.8735
 6376TIP3    H240764   0.789   6.425   0.065  0.0404 -0.0233 -0.4790
 6377TIP3   OH240765   6.249   3.378   8.274 -0.2280  0.2272 -0.2854
 6377TIP3    H140766   6.201   3.402   8.353 -0.7523  0.8701 -0.7837
 6377TIP3    H240767   6.288   3.459   8.244  0.8262 -0.2059 -0.1369
 6378TIP3   OH240768   6.283   4.342   2.054  0.0513  0.1640  0.2133
 6378TIP3    H140769   6.374   4.316   2.040 -0.1066  0.3821 -1.3644
 6378TIP3    H240770   6.232   4.280   2.002 -0.5357  1.4500 -0.7948
 6379TIP3   OH240771   4.393   4.573   2.061  0.4041 -0.1569  0.0275
 6379TIP3    H140772   4.445   4.603   2.136  3.3150 -2.3666 -0.9010
 6379TIP3    H240773   4.458   4.554   1.993 -1.8235 -1.3455 -1.9215
 6380TIP3   OH240774   5.221   1.227   7.205 -0.7140 -0.1689 -0.3160
 6380TIP3    H140775   5.142   1.259   7.248 -0.1306  1.0495 -0.0893
 6380TIP3    H240776   5.246   1.298   7.146  1.5732  0.5922  1.4216
 6381TIP3   OH240777   0.192   1.241   7.754 -0.0640 -0.5722 -0.7372
 6381TIP3    H140778   0.207   1.169   7.816  0.2909 -0.5832 -0.8306
 6381TIP3    H240779   0.104   1.273   7.774  0.0616 -0.5497 -0.1971
 6382TIP3   OH240780   6.286   2.206   7.276 -0.5050 -0.1861 -0.4767
 6382TIP3    H140781   6.195   2.233   7.259 -0.4886 -0.2175 -0.6083
 6382TIP3    H240782   6.282   2.111   7.286 -1.0114  0.0399  2.6047
 6383TIP3   OH240783   0.519   0.507   8.762 -0.3961  0.2061 -0.1321
 6383TIP3    H140784   0.448   0.471   8.709 -0.4022 -0.4742  0.3283
 6383TIP3    H240785   0.475   0.561   8.827 -0.4326  0.4991 -0.3986
 6384TIP3   OH240786   0.648   1.893   7.442  0.4578 -0.2806 -0.0679
 6384TIP3    H140787   0.596   1.957   7.490  2.2121 -0.3357  2.0328
 6384TIP3    H240788   0.620   1.809   7.477  1.5004 -0.3404  0.6807
 6385TIP3   OH240789   3.752   5.665   0.652 -0.2281 -0.1391  0.1476
 6385TIP3    H140790   3.662   5.689   0.673 -0.6337 -1.5087  0.0783
 6385TIP3    H240791   3.751   5.649   0.557 -0.4282 -2.1185  0.4416
 6386TIP3   OH240792   3.185   0.181   8.880  0.1138  0.3446 -0.6462
 6386TIP3    H140793   3.192   0.098   8.928 -0.1257  1.0554  0.6506
 6386TIP3    H240794   3.119   0.231   8.927  1.1464  1.7774 -0.6462
 6387TIP3   OH240795   3.592   2.112   0.177  0.0928  0.0204 -0.0772
 6387TIP3    H140796   3.509   2.064   0.178 -0.7856  1.4739  0.1983
 6387TIP3    H240797   3.566   2.204   0.177  1.7306  0.5242  1.2351
 6388TIP3   OH240798   0.030   2.775   0.237 -0.2331 -0.1862 -0.1399
 6388TIP3    H140799   0.000   2.861   0.269 -0.3505 -0.9339  1.9170
 6388TIP3    H240800  -0.032   2.713   0.275  0.2302 -1.2448 -1.0763
 6389TIP3   OH240801   5.568   5.958   8.835  0.0832  0.0658  0.1646
 6389TIP3    H140802   5.550   5.881   8.781  0.1953 -0.6434  1.1052
 6389TIP3    H240803   5.624   6.013   8.780  1.2358 -1.2120 -0.0204
 6390TIP3   OH240804   5.264   1.634   7.988 -0.6384  0.5931 -0.4778
 6390TIP3    H140805   5.357   1.646   7.967 -0.4814  0.6840  0.2251
 6390TIP3    H240806   5.239   1.553   7.943  0.3874 -0.6945  1.1020
 6391TIP3   OH240807   4.087   1.123   7.197  0.0227  0.2249 -0.3261
 6391TIP3    H140808   4.176   1.115   7.164  0.4071  1.6149  0.2737
 6391TIP3    H240809   4.074   1.045   7.251  1.9155  1.2760  1.8000
 6392TIP3   OH240810   1.979   4.651   0.999  0.0522  0.4599 -0.0691
 6392TIP3    H140811   1.937   4.600   1.068  0.9611 -0.6945 -0.3385
 6392TIP3    H240812   1.912   4.658   0.930 -0.1957 -0.0837  0.1131
 6393TIP3   OH240813   4.665   1.726   1.258 -0.3614 -0.3738  0.1104
 6393TIP3    H140814   4.736   1.773   1.215 -1.4476 -0.0809 -1.4454
 6393TIP3    H240815   4.588   1.781   1.245 -0.8017 -0.3801  2.2924
 6394TIP3   OH240816   2.441   1.317   0.725 -1.0212 -0.3488  0.0250
 6394TIP3    H140817   2.514   1.254   0.724 -1.3670 -0.7697  0.5365
 6394TIP3    H240818   2.479   1.395   0.766 -1.2260 -1.0733  1.6914
 6395TIP3   OH240819   1.937   2.030   6.683  0.5569 -0.6912 -0.4516
 6395TIP3    H140820   1.925   1.942   6.721  0.3249 -1.6062 -2.5261
 6395TIP3    H240821   2.027   2.031   6.652  0.9474  0.2907  0.6087
 6396TIP3   OH240822   3.536   3.775   6.602  0.2314 -0.2338 -0.2453
 6396TIP3    H140823   3.480   3.749   6.529  0.4581  0.7311 -0.7819
 6396TIP3    H240824   3.545   3.870   6.593  0.3866 -0.1116  0.9512
 6397TIP3   OH240825   5.849   4.761   7.907  0.2359  0.3924  0.2005
 6397TIP3    H140826   5.905   4.838   7.902 -0.1848  0.7263  0.5880
 6397TIP3    H240827   5.777   4.779   7.846  0.4776  0.0181 -0.2037
 6398TIP3   OH240828   3.316   3.681   5.994 -0.3673 -0.5100 -0.0527
 6398TIP3    H140829   3.268   3.732   6.060 -0.9723  1.3977 -1.8496
 6398TIP3    H240830   3.406   3.679   6.026 -0.9046 -0.8509  1.5080
 6399TIP3   OH240831   5.547   3.679   7.937 -0.1449 -0.3081 -0.2617
 6399TIP3    H140832   5.463   3.676   7.891 -0.9540  1.9581  0.9274
 6399TIP3    H240833   5.602   3.735   7.882 -0.4350  0.6932  0.4462
 6400TIP3   OH240834   5.667   6.021   2.030 -0.1290  0.7460 -0.2257
 6400TIP3    H140835   5.654   6.005   2.124 -0.2452  2.8505  0.1658
 6400TIP3    H240836   5.606   5.962   1.987 -0.4156  0.0869  1.0503
 6401TIP3   OH240837   2.075   5.724   8.711  0.2521 -0.1485  0.4247
 6401TIP3    H140838   2.091   5.635   8.744  1.4593 -0.6908 -1.4260
 6401TIP3    H240839   2.000   5.755   8.761  0.4498 -1.8067  1.8667
 6402TIP3   OH240840   2.589   6.033   8.282  0.1526  0.2100  0.2412
 6402TIP3    H140841   2.554   6.115   8.248  1.2950 -0.1726 -2.0627
 6402TIP3    H240842   2.540   5.964   8.238  0.2649 -0.3591  0.9655
 6403TIP3   OH240843   5.884   3.135   0.224  0.2708  0.6121  0.3834
 6403TIP3    H140844   5.970   3.096   0.240 -0.3410 -0.9517  0.0475
 6403TIP3    H240845   5.827   3.095   0.290 -0.2029  1.6813  0.6481
 6404TIP3   OH240846   4.421   6.510   0.207  0.2548  0.0102  0.2583
 6404TIP3    H140847   4.449   6.479   0.120  1.1149  0.1752  0.4710
 6404TIP3    H240848   4.437   6.436   0.265 -1.5414 -0.5687  0.0788
 6405TIP3   OH240849   1.222   0.389   7.627 -0.3699 -0.3060  0.2680
 6405TIP3    H140850   1.308   0.430   7.620 -0.2344 -0.6407 -0.0363
 6405TIP3    H240851   1.206   0.350   7.541 -0.7145 -0.4654  0.4007
 6406TIP3   OH240852   4.029   2.279   7.893  0.5600  0.2431  0.4279
 6406TIP3    H140853   3.966   2.279   7.820 -0.0827 -0.7492  0.9625
 6406TIP3    H240854   4.106   2.235   7.857 -0.9747 -3.6031  1.2526
 6407TIP3   OH240855   5.357   4.600   6.949 -0.1013 -0.5658  0.4873
 6407TIP3    H140856   5.383   4.508   6.942 -0.8780 -0.7354 -0.4312
 6407TIP3    H240857   5.430   4.643   6.993  1.3061 -1.1806 -1.1850
 6408TIP3   OH240858   4.123   2.597   1.835  0.1114 -0.5833  0.1717
 6408TIP3    H140859   4.099   2.583   1.743  0.2572  0.3701 -0.0301
 6408TIP3    H240860   4.075   2.530   1.883  0.4263 -1.4298 -0.6457
 6409TIP3   OH240861   5.448   1.753   1.666  0.4448 -0.0009  0.7292
 6409TIP3    H140862   5.532   1.788   1.696  0.5470 -0.4881  1.0223
 6409TIP3    H240863   5.397   1.830   1.642  0.7469  0.3348  1.1586
 6410TIP3   OH240864   2.980   0.213   0.451  0.2648 -0.0934 -0.4526
 6410TIP3    H140865   3.017   0.209   0.539 -0.5960 -0.6856 -0.1089
 6410TIP3    H240866   3.052   0.184   0.394  0.3031 -1.4113  0.2171
 6411TIP3   OH240867   4.326   2.804   8.845  0.4239  0.1516  0.2308
 6411TIP3    H140868   4.396   2.823   8.908 -0.4080 -0.0740  1.2396
 6411TIP3    H240869   4.373   2.787   8.763  1.5311  0.4208  0.7847
 6412TIP3   OH240870   0.869   4.036   0.674 -0.2602  0.0652 -0.2649
 6412TIP3    H140871   0.791   4.088   0.655  0.6685  2.1871  1.3335
 6412TIP3    H240872   0.837   3.966   0.732 -1.1490  0.1805 -0.5995
 6413TIP3   OH240873   4.989   6.396   9.007 -0.5103 -0.5173  0.3810
 6413TIP3    H140874   5.059   6.331   8.993 -0.4153 -1.0685  2.8902
 6413TIP3    H240875   5.004   6.427   9.096 -2.5601  0.5361  0.3972
 6414TIP3   OH240876   5.016   6.615   1.343  0.1825 -0.4490  0.0308
 6414TIP3    H140877   5.053   6.529   1.326 -0.2158 -0.4498 -0.8679
 6414TIP3    H240878   4.922   6.601   1.350  0.0677 -0.0235 -0.5845
 6415TIP3   OH240879   0.548   2.501   7.985 -0.0316  0.1726 -0.7804
 6415TIP3    H140880   0.502   2.578   7.950 -0.0381  0.2582 -0.5847
 6415TIP3    H240881   0.634   2.503   7.943  0.2240  0.6832 -0.2468
 6416TIP3   OH240882   1.467   6.615   8.300 -0.6517  0.5151 -0.0891
 6416TIP3    H140883   1.516   6.682   8.252 -0.6573  0.0280 -0.7859
 6416TIP3    H240884   1.416   6.570   8.232 -4.0469  2.5975  0.8177
 6417TIP3   OH240885   3.361   2.546   7.579 -0.2504 -0.2671  0.2478
 6417TIP3    H140886   3.436   2.603   7.596  0.3351 -1.1757  0.7975
 6417TIP3    H240887   3.317   2.586   7.504 -0.2002  1.2313  0.9706
 6418TIP3   OH240888   0.765   2.272   0.177  0.1049  0.5998  0.0117
 6418TIP3    H140889   0.829   2.207   0.206  0.7309  1.4998  0.7173
 6418TIP3    H240890   0.794   2.297   0.090  1.0724  1.3998  0.5355
 6419TIP3   OH240891   1.652   2.479   7.474 -0.6126 -0.1888 -0.5751
 6419TIP3    H140892   1.735   2.453   7.436 -0.5785  2.0983 -2.3247
 6419TIP3    H240893   1.619   2.548   7.415 -3.2076 -0.2377  0.6530
 6420TIP3   OH240894   2.860   3.584   7.749 -0.4385 -0.0434 -0.0084
 6420TIP3    H140895   2.860   3.680   7.754 -1.6475  0.0798 -1.6038
 6420TIP3    H240896   2.767   3.561   7.747 -0.1903 -1.0481 -2.3284
 6421TIP3   OH240897   6.331   2.664   7.328  0.2535  0.0699  0.1870
 6421TIP3    H140898   6.381   2.602   7.380 -0.2246  1.3871  2.3211
 6421TIP3    H240899   6.245   2.668   7.370 -0.8956 -0.3433 -1.9623
 6422TIP3   OH240900   3.815   6.606   0.495 -0.9776 -0.3831 -0.7020
 6422TIP3    H140901   3.760   6.684   0.505 -1.3865 -0.2014 -3.4320
 6422TIP3    H240902   3.904   6.641   0.492 -1.0597 -0.1643 -0.6235
 6423TIP3   OH240903   4.358   3.497   1.324 -0.0839  0.0113  0.2073
 6423TIP3    H140904   4.275   3.504   1.278 -0.5081 -0.3095  0.9019
 6423TIP3    H240905   4.334   3.501   1.417  0.6713 -0.1408  0.4167
 6424TIP3   OH240906   0.839   4.350   0.508 -0.4714  0.4262  0.3321
 6424TIP3    H140907   0.902   4.394   0.452  0.3644  1.3066  1.9145
 6424TIP3    H240908   0.886   4.331   0.589 -1.6560 -0.7567  0.7960
 6425TIP3   OH240909   3.593   3.745   1.092  0.4577 -0.4989 -0.1069
 6425TIP3    H140910   3.532   3.682   1.055 -0.3325 -0.9328  1.7999
 6425TIP3    H240911   3.664   3.691   1.127  0.7879 -0.1734 -0.2681
 6426TIP3   OH240912   2.688   1.444   1.516  0.1223  0.0862 -0.1083
 6426TIP3    H140913   2.731   1.446   1.602 -1.0976 -0.1476  0.5323
 6426TIP3    H240914   2.622   1.513   1.521  1.6340  1.7996 -1.7837
 6427TIP3   OH240915   3.823   6.574   9.059  0.1574 -0.4318  0.8862
 6427TIP3    H140916   3.766   6.530   8.997 -1.6780  2.7479  0.0825
 6427TIP3    H240917   3.897   6.605   9.006 -0.2776  0.3375  0.7126
 6428TIP3   OH240918   5.251   6.598   7.911  0.6019  0.5718 -0.4080
 6428TIP3    H140919   5.196   6.650   7.852  0.5143  1.8971  0.7940
 6428TIP3    H240920   5.249   6.510   7.874 -1.8056  0.7062 -0.7905
 6429TIP3   OH240921   1.304   5.376   8.233 -0.2331  0.2799  0.0476
 6429TIP3    H140922   1.210   5.387   8.240 -0.2946  0.4912 -0.9203
 6429TIP3    H240923   1.316   5.292   8.188  0.0305  0.4523 -0.2098
 6430TIP3   OH240924   4.872   5.063   8.251 -0.2177  0.0150  0.2775
 6430TIP3    H140925   4.894   5.156   8.247  1.0853 -0.3126 -2.0985
 6430TIP3    H240926   4.955   5.018   8.239 -0.8006 -1.5021  1.6189
 6431TIP3   OH240927   5.604   2.718   2.410 -0.3833  0.1783  0.0941
 6431TIP3    H140928   5.663   2.692   2.481 -1.6468 -0.5138  0.9264
 6431TIP3    H240929   5.524   2.746   2.454 -1.0405  0.1447 -1.0371
 6432TIP3   OH240930   0.260   1.067   0.545  0.1951  0.2301 -0.2896
 6432TIP3    H140931   0.184   1.066   0.603  0.2373 -0.5393 -0.2330
 6432TIP3    H240932   0.224   1.043   0.459  0.0552  1.8109 -0.6946
 6433TIP3   OH240933   2.273   5.656   6.574  0.1266  0.4867 -0.3712
 6433TIP3    H140934   2.229   5.643   6.658  0.4645  0.1714 -0.2428
 6433TIP3    H240935   2.251   5.579   6.523 -1.7458  1.5943 -1.3181
 6434TIP3   OH240936   5.650   2.225   9.004 -0.3056 -0.2306 -0.8773
 6434TIP3    H140937   5.672   2.154   8.944 -1.2029 -1.1522 -0.1431
 6434TIP3    H240938   5.616   2.182   9.082  0.2353  0.9647  0.0703
 6435TIP3   OH240939   6.737   6.114   1.173  0.0282  0.8376 -0.0368
 6435TIP3    H140940   6.795   6.064   1.230 -1.5793 -1.4952 -0.2944
 6435TIP3    H240941   6.745   6.204   1.203  2.8665  0.4469  0.6511
 6436TIP3   OH240942   4.597   0.340   8.006 -0.1827 -0.0427  0.1834
 6436TIP3    H140943   4.511   0.303   7.990  0.1810 -0.3056 -1.3460
 6436TIP3    H240944   4.629   0.365   7.919  1.2509  0.1085  0.7191
 6437TIP3   OH240945   4.528   6.340   0.580 -0.4425  0.5677  0.0384
 6437TIP3    H140946   4.463   6.389   0.630 -0.4622  0.1785  0.4020
 6437TIP3    H240947   4.477   6.279   0.527 -0.3579 -0.4213  1.0478
 6438TIP3   OH240948   6.000   6.685   6.893  0.1300  0.0484 -0.0656
 6438TIP3    H140949   6.070   6.703   6.829  0.5619 -2.8500 -0.5534
 6438TIP3    H240950   6.042   6.631   6.960 -1.4435 -1.1696  0.0012
 6439TIP3   OH240951   3.366   1.211   6.828 -0.1165  0.1451 -0.3381
 6439TIP3    H140952   3.325   1.287   6.870 -0.0722  0.8322 -1.5043
 6439TIP3    H240953   3.295   1.147   6.822  0.5038 -1.1504  3.3362
 6440TIP3   OH240954   2.600   6.352   8.611  0.6126  0.1738 -0.3753
 6440TIP3    H140955   2.507   6.345   8.632  1.1032 -0.0413  2.0375
 6440TIP3    H240956   2.637   6.267   8.637  1.7494  0.8780  0.3846
 6441TIP3   OH240957   1.099   2.300   1.322  0.3584 -0.0469  0.2943
 6441TIP3    H140958   1.054   2.248   1.255  1.1844  0.2067 -0.4779
 6441TIP3    H240959   1.041   2.375   1.337  0.1318 -0.1427 -0.0955
 6442TIP3   OH240960   4.386   0.236   0.259 -0.2240 -0.4254  0.1566
 6442TIP3    H140961   4.317   0.261   0.320  0.4209  0.4472  0.5499
 6442TIP3    H240962   4.443   0.177   0.309  0.5343  0.6169  0.5495
 6443TIP3   OH240963   5.088   1.674   1.208 -0.3817  0.0333 -0.1475
 6443TIP3    H140964   5.049   1.624   1.137  1.0170  0.9453 -1.6200
 6443TIP3    H240965   5.163   1.718   1.168 -0.3853  1.7070  1.5686
 6444TIP3   OH240966   6.051   1.514   7.778  0.1075 -0.1595  0.5288
 6444TIP3    H140967   5.982   1.471   7.728 -0.1353 -0.6660  1.2939
 6444TIP3    H240968   6.004   1.564   7.845  0.4289  0.5598  0.2272
 6445TIP3   OH240969   6.469   5.673   0.903  0.4050  0.2789  0.3128
 6445TIP3    H140970   6.457   5.631   0.988 -1.8943 -0.0539 -0.0946
 6445TIP3    H240971   6.463   5.601   0.840 -0.2107  0.7908 -0.2289
 6446TIP3   OH240972   6.132   1.147   7.636  0.6189  0.3745 -0.1436
 6446TIP3    H140973   6.054   1.145   7.580  1.0043  0.3887 -0.6898
 6446TIP3    H240974   6.169   1.234   7.623  1.0904  0.1422 -0.3986
 6447TIP3   OH240975   2.909   1.501   8.996  0.1002  0.3513 -0.4142
 6447TIP3    H140976   2.865   1.453   8.926 -1.3736 -0.1908  0.8111
 6447TIP3    H240977   2.839   1.553   9.036 -0.0845 -2.1622  2.9811
 6448TIP3   OH240978   1.745   5.642   8.562  0.2313  0.4094  0.0369
 6448TIP3    H140979   1.650   5.641   8.551  0.2120  1.0436  0.1281
 6448TIP3    H240980   1.760   5.702   8.635  0.7359  0.6435 -0.2594
 6449TIP3   OH240981   2.969   3.334   7.498 -0.4747  0.1219 -0.5042
 6449TIP3    H140982   2.920   3.253   7.516 -1.6479  0.9548  0.2531
 6449TIP3    H240983   2.909   3.403   7.525  0.9677  1.2168 -0.0190
 6450TIP3   OH240984   3.255   5.421   8.393 -0.7805 -0.0431 -0.3758
 6450TIP3    H140985   3.200   5.445   8.468 -1.3113 -1.5778 -0.2412
 6450TIP3    H240986   3.342   5.453   8.416 -1.0617  0.0361  0.6263
 6451TIP3   OH240987   3.163   2.184   0.072  0.1913  0.1713 -0.4359
 6451TIP3    H140988   3.171   2.245   0.145  0.1392 -0.2943 -0.0374
 6451TIP3    H240989   3.122   2.235   0.002 -0.9889  0.2762  0.2960
 6452TIP3   OH240990   5.424   1.551   1.234  0.0618  0.3208  0.1344
 6452TIP3    H140991   5.339   1.540   1.277  1.2091 -1.1749  2.2537
 6452TIP3    H240992   5.410   1.620   1.169 -2.8849 -0.2615 -0.0084
 6453TIP3   OH240993   2.628   5.621   8.806 -0.3370  0.4084  0.4572
 6453TIP3    H140994   2.613   5.710   8.838 -0.8478  0.0967  1.1308
 6453TIP3    H240995   2.606   5.566   8.881  1.8447 -0.2219  0.6993
 6454TIP3   OH240996   3.726   2.296   8.219 -0.2995  0.6047 -0.6794
 6454TIP3    H140997   3.697   2.382   8.250  1.3671  1.5958 -1.7090
 6454TIP3    H240998   3.653   2.264   8.166 -2.4990 -0.3876  2.6653
 6455TIP3   OH240999   4.527   1.892   8.690  0.1180 -0.5938 -1.0834
 6455TIP3    H141000   4.498   1.952   8.759  2.0511 -2.9790  2.0839
 6455TIP3    H241001   4.615   1.921   8.668 -0.6469  0.4372 -3.0714
 6456TIP3   OH241002   0.612   6.409   0.312  0.1315 -0.2034 -0.1633
 6456TIP3    H141003   0.645   6.333   0.359  0.5190 -0.3734 -0.6993
 6456TIP3    H241004   0.564   6.372   0.237  2.0393  0.0576 -1.6012
 6457TIP3   OH241005   0.846   2.432   1.262 -0.1550 -0.2404  0.7099
 6457TIP3    H141006   0.779   2.364   1.271 -0.4865  0.1175  0.9891
 6457TIP3    H241007   0.898   2.405   1.187 -0.1875 -0.8853  0.9195
 6458TIP3   OH241008   1.409   0.588   0.169 -0.3470 -0.1414 -0.0315
 6458TIP3    H141009   1.395   0.623   0.257 -0.7646  0.5737 -0.3773
 6458TIP3    H241010   1.321   0.568   0.137 -0.1790 -0.6275 -0.2020
 6459TIP3   OH241011   2.887   0.627   1.738 -0.3435  0.2599 -0.7004
 6459TIP3    H141012   2.872   0.535   1.718  1.4308  0.0680 -1.3743
 6459TIP3    H241013   2.937   0.627   1.820 -0.2439  0.6083 -0.7549
 6460TIP3   OH241014   2.489   0.274   0.670 -0.3386 -0.4400  0.3174
 6460TIP3    H141015   2.496   0.242   0.760 -3.6128 -1.9729  0.1933
 6460TIP3    H241016   2.528   0.205   0.617  1.5650  0.4500  0.4844
 6461TIP3   OH241017   5.830   2.851   2.214  0.2989  0.4897  0.0642
 6461TIP3    H141018   5.878   2.768   2.212  0.7002  0.6003  2.3988
 6461TIP3    H241019   5.868   2.902   2.142  1.8271 -0.4200  0.1842
 6462TIP3   OH241020   5.162   1.424   0.446 -0.0415  0.1107 -0.7448
 6462TIP3    H141021   5.233   1.367   0.476 -1.0686 -0.8245 -0.0184
 6462TIP3    H241022   5.205   1.506   0.424  1.2123 -0.3124  0.0294
 6463TIP3   OH241023   5.980   2.693   8.681 -0.1182  0.3473  0.1043
 6463TIP3    H141024   5.974   2.753   8.606  0.4757  0.9310  0.5107
 6463TIP3    H241025   5.915   2.625   8.663 -1.6134  1.6963  0.1512
 6464TIP3   OH241026   2.540   2.698   1.102  0.0594  0.1513 -0.1563
 6464TIP3    H141027   2.590   2.753   1.162 -0.2311  0.0799  0.1506
 6464TIP3    H241028   2.453   2.737   1.099 -0.0017  0.0070 -0.3383
 6465TIP3   OH241029   5.887   0.223   1.090 -0.0240  0.3449 -0.2182
 6465TIP3    H141030   5.855   0.206   1.179  1.8505  1.1281  0.6690
 6465TIP3    H241031   5.933   0.143   1.065  2.3816  1.2854  0.9469
 6466TIP3   OH241032   3.646   0.403   1.665  0.4915 -0.0528  0.6760
 6466TIP3    H141033   3.601   0.448   1.593  1.1260 -1.1887 -0.4626
 6466TIP3    H241034   3.618   0.312   1.659 -0.5459  0.0693  2.7704
 6467TIP3   OH241035   3.300   5.430   7.895  0.0999 -0.4905 -0.0623
 6467TIP3    H141036   3.248   5.422   7.975  2.5213  1.0473  1.8196
 6467TIP3    H241037   3.345   5.345   7.888 -0.7069 -0.9123 -0.2604
 6468TIP3   OH241038   3.918   0.257   1.985 -0.6755 -0.3255 -0.2909
 6468TIP3    H141039   3.960   0.172   1.976  0.0479  0.1999 -2.2578
 6468TIP3    H241040   3.879   0.255   2.073 -0.5956 -2.6220 -0.2531
 6469TIP3   OH241041   1.724   3.923   1.666  0.2838 -0.1283  0.5513
 6469TIP3    H141042   1.812   3.960   1.664  1.0844 -1.9319  0.5412
 6469TIP3    H241043   1.721   3.865   1.590 -0.7595 -0.4173  0.8055
 6470TIP3   OH241044   5.484   0.068   8.414  0.6263  0.2759  0.2324
 6470TIP3    H141045   5.527   0.124   8.349  0.4114  0.9632  0.6676
 6470TIP3    H241046   5.391   0.076   8.395  0.5817  0.2381  0.4305
 6471TIP3   OH241047   3.596   1.586   7.762 -0.2960 -0.0184  0.3509
 6471TIP3    H141048   3.663   1.623   7.820 -0.4688  0.5021  0.2295
 6471TIP3    H241049   3.578   1.656   7.699  0.1222 -0.6821 -0.5357
 6472TIP3   OH241050   2.059   6.601   7.816  0.0998  0.1966  0.0702
 6472TIP3    H141051   2.115   6.546   7.871 -0.0872 -0.8790 -0.7965
 6472TIP3    H241052   1.970   6.571   7.836 -0.0392  0.5486 -0.0217
 6473TIP3   OH241053   4.419   6.187   2.132 -0.8136  0.0698  0.1550
 6473TIP3    H141054   4.473   6.250   2.179 -1.5219  0.7718  0.0471
 6473TIP3    H241055   4.334   6.192   2.176 -1.2041  0.0249 -0.5905
 6474TIP3   OH241056   2.555   0.985   7.012  0.2270  0.1196  0.1061
 6474TIP3    H141057   2.610   1.017   7.084 -0.9290 -1.1122  1.6076
 6474TIP3    H241058   2.535   0.895   7.035 -0.0091 -0.3909 -1.9054
 6475TIP3   OH241059   3.868   1.044   8.661  0.1901 -0.4186 -0.0218
 6475TIP3    H141060   3.859   1.123   8.715  1.8335  0.6134 -1.1686
 6475TIP3    H241061   3.872   0.972   8.724 -2.7018  0.1732  1.0283
 6476TIP3   OH241062   1.595   0.706   8.030  0.3999  0.5833  0.3216
 6476TIP3    H141063   1.639   0.622   8.021 -0.1265  0.1972  1.1608
 6476TIP3    H241064   1.519   0.700   7.972  0.5031  0.5762  0.1879
 6477TIP3   OH241065   3.311   4.758   0.927  0.4381 -0.0306 -0.1033
 6477TIP3    H141066   3.279   4.725   1.011 -0.1474  1.3568  0.2468
 6477TIP3    H241067   3.283   4.692   0.864  0.1273 -0.6746  0.6757
 6478TIP3   OH241068   0.841   4.786   7.847 -0.4632  0.3323 -0.3981
 6478TIP3    H141069   0.833   4.731   7.925 -1.4076 -1.4876 -1.7029
 6478TIP3    H241070   0.812   4.730   7.775 -2.1916  2.7710 -1.7496
 6479TIP3   OH241071   6.077   4.823   1.931  0.1162 -0.0077 -0.8102
 6479TIP3    H141072   5.983   4.807   1.939 -0.2818  0.9572 -2.9481
 6479TIP3    H241073   6.087   4.918   1.938  0.6859  0.0755 -2.3535
 6480TIP3   OH241074   3.544   0.064   7.691 -0.1963 -0.0669 -0.8918
 6480TIP3    H141075   3.548  -0.031   7.677 -0.4948 -0.3090  0.5289
 6480TIP3    H241076   3.504   0.098   7.610 -0.9858 -1.2570 -1.0375
 6481TIP3   OH241077   3.355   1.107   8.220 -0.1335  0.1223  0.3976
 6481TIP3    H141078   3.358   1.144   8.308  2.0974  1.0379 -0.0167
 6481TIP3    H241079   3.339   1.182   8.162 -0.3178 -0.2859 -0.0940
 6482TIP3   OH241080   4.285   0.602   2.052 -0.1799 -0.8287  0.0758
 6482TIP3    H141081   4.242   0.517   2.041 -0.6590 -0.6540  0.6003
 6482TIP3    H241082   4.253   0.635   2.135 -0.7959  0.3306 -0.5923
 6483TIP3   OH241083   5.554   5.518   6.773  0.0037 -0.4603  0.2923
 6483TIP3    H141084   5.573   5.506   6.866  2.7398 -0.4152 -0.1746
 6483TIP3    H241085   5.608   5.592   6.747 -1.7452  0.4084 -1.0922
 6484TIP3   OH241086   4.050   2.750   1.360 -0.4869  0.6431 -0.8111
 6484TIP3    H141087   4.041   2.703   1.277 -0.2406 -1.0854  0.0913
 6484TIP3    H241088   4.047   2.682   1.427 -2.2666  2.1132  0.7371
 6485TIP3   OH241089   1.777   2.547   6.230 -0.5970 -0.4118  0.0690
 6485TIP3    H141090   1.696   2.575   6.272 -0.1877 -1.6551  1.8354
 6485TIP3    H241091   1.794   2.460   6.267  2.0271  0.2071  0.5314
 6486TIP3   OH241092   5.599   3.862   0.722  0.1969 -0.5883 -0.2022
 6486TIP3    H141093   5.536   3.807   0.675  0.5526 -1.9001  0.7812
 6486TIP3    H241094   5.676   3.806   0.734  0.9960  0.4913 -0.0823
 6487TIP3   OH241095   3.351   3.623   8.714  0.6180  0.4226 -0.7343
 6487TIP3    H141096   3.378   3.656   8.800  0.5560 -1.4492  0.0419
 6487TIP3    H241097   3.255   3.618   8.719  0.6900 -1.0131 -0.3667
 6488TIP3   OH241098   4.355   3.832   7.840 -0.2113  0.4426  0.0095
 6488TIP3    H141099   4.414   3.839   7.765 -0.2410  0.8581  0.0233
 6488TIP3    H241100   4.268   3.826   7.801 -0.0698 -1.9023 -0.0820
 6489TIP3   OH241101   4.132   3.548   2.350  0.6961 -0.2012 -0.5759
 6489TIP3    H141102   4.091   3.475   2.303  0.3687  0.8471 -2.0035
 6489TIP3    H241103   4.059   3.607   2.368  1.1004  0.2079 -0.2893
 6490TIP3   OH241104   3.419   6.682   1.233 -0.1447  0.2568 -0.5512
 6490TIP3    H141105   3.488   6.635   1.187 -0.3308  0.7491 -1.3470
 6490TIP3    H241106   3.367   6.614   1.274  0.4873 -0.1494 -0.4035
 6491TIP3   OH241107   0.629   2.233   1.237  0.0300  0.1821 -0.2395
 6491TIP3    H141108   0.592   2.242   1.149  1.2442  0.7126 -0.7135
 6491TIP3    H241109   0.581   2.160   1.276 -0.8615  0.2621 -1.1570
 6492TIP3   OH241110   6.620   5.307   1.806  0.1398 -0.5496  0.4411
 6492TIP3    H141111   6.670   5.259   1.741  0.5965 -0.0587  0.4237
 6492TIP3    H241112   6.583   5.381   1.758 -0.3783 -0.7609  0.5133
 6493TIP3   OH241113   2.777   5.417   1.259 -0.5722 -0.3081  0.2515
 6493TIP3    H141114   2.733   5.468   1.190  1.1964  0.6335 -0.2252
 6493TIP3    H241115   2.742   5.453   1.341 -1.8514 -0.6740 -0.0975
 6494TIP3   OH241116   5.510   4.041   0.229  0.2415 -0.3484  0.6416
 6494TIP3    H141117   5.529   4.129   0.262  0.6834  0.0235 -0.5717
 6494TIP3    H241118   5.596   4.006   0.203 -0.1206 -0.5062 -0.3845
 6495TIP3   OH241119   0.051   3.689   0.791 -0.8349  0.6457  0.0755
 6495TIP3    H141120  -0.016   3.711   0.856 -1.8721 -1.1885 -0.3065
 6495TIP3    H241121   0.134   3.696   0.838 -1.3422  2.1948  0.7717
 6496TIP3   OH241122   3.359   4.085   8.674 -0.0830 -0.5102 -0.0125
 6496TIP3    H141123   3.436   4.030   8.665  0.7718  0.4240  1.1662
 6496TIP3    H241124   3.391   4.174   8.660 -0.8366 -0.0689  0.9287
 6497TIP3   OH241125   5.556   4.203   8.983 -0.2605 -0.6954 -0.2085
 6497TIP3    H141126   5.463   4.185   8.968  0.2072 -2.0324 -1.8912
 6497TIP3    H241127   5.593   4.210   8.895  0.5600  4.0956  0.2445
 6498TIP3   OH241128   2.849   0.382   7.828 -0.1227  0.4129  0.3431
 6498TIP3    H141129   2.868   0.314   7.764 -0.6398  1.1033 -0.5793
 6498TIP3    H241130   2.761   0.412   7.805  0.9591  2.9794 -0.7715
 6499TIP3   OH241131   2.012   2.051   1.273  0.8943 -0.2849  0.0748
 6499TIP3    H141132   2.008   2.110   1.348  0.3315 -0.7769  0.4498
 6499TIP3    H241133   2.009   2.109   1.196 -1.9254  0.1589  0.3870
 6500TIP3   OH241134   3.448   1.848   7.784  0.0036  0.3472  0.4823
 6500TIP3    H141135   3.530   1.884   7.750 -0.2143  0.4890  0.0923
 6500TIP3    H241136   3.468   1.822   7.874 -0.1195  2.4951  1.1917
 6501TIP3   OH241137   6.374   0.842   7.336  0.1779 -0.8720 -0.6381
 6501TIP3    H141138   6.294   0.823   7.288  0.0378 -1.2158 -0.2799
 6501TIP3    H241139   6.347   0.901   7.406 -0.5669 -3.8645  1.8374
 6502TIP3   OH241140   1.579   0.919   8.382 -0.1494 -0.1967  0.1509
 6502TIP3    H141141   1.572   0.961   8.296  0.3459  1.0064  0.6660
 6502TIP3    H241142   1.672   0.897   8.389 -0.3771 -1.2527 -0.0418
 6503TIP3   OH241143   6.360   1.128   1.207  0.6391 -0.2217  0.4392
 6503TIP3    H141144   6.326   1.113   1.295  1.4796 -0.1184  0.7945
 6503TIP3    H241145   6.383   1.221   1.206  1.5680 -0.4468  0.4501
 6504TIP3   OH241146   2.832   2.226   8.003 -0.4699 -0.8217  0.2361
 6504TIP3    H141147   2.834   2.286   7.928  0.6033  0.5827  1.3343
 6504TIP3    H241148   2.891   2.266   8.068 -0.6855 -2.4405  1.5008
 6505TIP3   OH241149   2.497   4.354   7.846 -0.0440  0.2925 -0.0375
 6505TIP3    H141150   2.420   4.412   7.849  0.0502  0.4497 -0.6250
 6505TIP3    H241151   2.550   4.381   7.921  0.4342  1.5895 -0.8152
 6506TIP3   OH241152   1.991   0.607   7.200 -0.3741 -0.4009  0.4435
 6506TIP3    H141153   2.060   0.674   7.196 -1.1517  0.3717 -0.6621
 6506TIP3    H241154   2.038   0.524   7.198  0.5349  0.1080 -0.7510
 6507TIP3   OH241155   2.843   5.040   1.671 -0.1727 -0.1522 -0.5784
 6507TIP3    H141156   2.807   5.092   1.743 -0.1263 -0.4076 -0.3700
 6507TIP3    H241157   2.886   4.967   1.714 -0.1371 -0.3001 -0.8674
 6508TIP3   OH241158   5.781   5.088   7.756  0.1630 -1.0170 -0.3074
 6508TIP3    H141159   5.841   5.094   7.830 -0.1190 -1.3941 -0.0449
 6508TIP3    H241160   5.694   5.089   7.796  0.0266 -3.0208 -0.4935
 6509TIP3   OH241161   5.772   4.796   1.894 -0.0843 -0.3771 -0.0652
 6509TIP3    H141162   5.723   4.726   1.938 -2.5621  1.3024  0.0812
 6509TIP3    H241163   5.739   4.795   1.804  0.2810  0.2061 -0.2080
 6510TIP3   OH241164   0.627   5.975   2.229  0.6370 -0.1278 -0.6021
 6510TIP3    H141165   0.628   6.063   2.268 -2.5386 -0.8626  1.4584
 6510TIP3    H241166   0.690   5.925   2.282  0.2715  0.1969  0.1556
 6511TIP3   OH241167   6.542   0.436   6.858 -0.3717 -0.2750  0.3673
 6511TIP3    H141168   6.565   0.486   6.779  0.4136  0.4977  1.0552
 6511TIP3    H241169   6.448   0.422   6.851 -0.3399 -0.1049 -0.6384
 6512TIP3   OH241170   3.334   3.757   0.751 -0.6174 -0.4175  0.4958
 6512TIP3    H141171   3.353   3.678   0.701 -2.0896 -0.7470  0.4024
 6512TIP3    H241172   3.261   3.798   0.704 -0.8906  0.1753  1.4070
 6513TIP3   OH241173   2.226   0.581   9.071  0.1880  0.0781  0.7210
 6513TIP3    H141174   2.165   0.540   9.133  1.2058 -0.3232  1.4878
 6513TIP3    H241175   2.188   0.666   9.053 -1.9407 -1.1292 -0.8431
 6514TIP3   OH241176   5.815   6.268   0.027  0.2058  0.3190 -0.5991
 6514TIP3    H141177   5.847   6.353  -0.003 -0.9360  0.1782 -2.3789
 6514TIP3    H241178   5.720   6.273   0.019 -0.0556 -0.3946  1.3987
 6515TIP3   OH241179   2.491   6.607   1.986 -0.2853  0.0706 -0.0193
 6515TIP3    H141180   2.542   6.539   2.029 -1.0865 -1.1623 -0.9395
 6515TIP3    H241181   2.529   6.689   2.017 -0.0153 -0.7531  2.0347
 6516TIP3   OH241182   3.240   0.602   0.371 -0.4187  0.1104 -0.1737
 6516TIP3    H141183   3.151   0.631   0.388 -0.6311 -1.2433  1.2180
 6516TIP3    H241184   3.293   0.644   0.439 -0.0605  0.4680 -0.6577
 6517TIP3   OH241185   1.917   1.967   0.360  0.4831 -0.3726  0.6005
 6517TIP3    H141186   1.923   1.878   0.393  1.6980  0.0235  1.5338
 6517TIP3    H241187   1.833   1.999   0.392 -0.1562 -1.2839 -0.0882
 6518TIP3   OH241188   3.697   4.543   9.011  0.1793 -0.6898  0.1319
 6518TIP3    H141189   3.772   4.508   8.963 -0.4441 -1.3292 -0.3845
 6518TIP3    H241190   3.722   4.534   9.103  0.3115 -1.8814 -0.0090
 6519TIP3   OH241191   6.153   3.884   1.221  0.3637  0.3991  0.7292
 6519TIP3    H141192   6.066   3.923   1.212  1.0327  1.6154 -1.2723
 6519TIP3    H241193   6.174   3.851   1.133  1.7846 -0.1356  1.2345
 6520TIP3   OH241194   4.914   1.555   7.709 -0.2570 -0.1610 -0.5945
 6520TIP3    H141195   4.831   1.547   7.756  1.1108 -0.6088  1.9289
 6520TIP3    H241196   4.935   1.648   7.711 -0.9301  0.0322 -1.7400
 6521TIP3   OH241197   4.564   2.590   1.101  0.5291  0.4775 -0.1792
 6521TIP3    H141198   4.601   2.589   1.012  2.1745  0.5327  0.4723
 6521TIP3    H241199   4.592   2.507   1.139 -1.7626 -0.4021 -0.2999
 6522TIP3   OH241200   5.617   4.798   7.725  0.0217 -0.5099 -0.3312
 6522TIP3    H141201   5.591   4.836   7.641  0.0726  0.3932  0.0516
 6522TIP3    H241202   5.593   4.864   7.790  2.0238 -0.1938  0.1549
 6523TIP3   OH241203   2.601   2.876   7.629  0.3972  0.8225 -0.0340
 6523TIP3    H141204   2.654   2.799   7.651  1.2289  1.2903 -0.3593
 6523TIP3    H241205   2.579   2.865   7.536  2.0753  1.8585 -0.5930
 6524TIP3   OH241206   4.678   4.958   1.737 -0.0094  0.0390  0.2555
 6524TIP3    H141207   4.631   4.891   1.787  1.1852 -0.2050  1.1051
 6524TIP3    H241208   4.671   5.037   1.792 -2.4107  0.9974 -1.2764
 6525TIP3   OH241209   5.575   3.510   0.649  0.0136 -0.0228  0.8137
 6525TIP3    H141210   5.594   3.569   0.576  2.8170 -0.7949  0.8133
 6525TIP3    H241211   5.581   3.422   0.610 -0.2460 -0.4071  1.6221
 6526TIP3   OH241212   1.025   2.906   0.124  0.0274  0.5586 -0.4418
 6526TIP3    H141213   1.077   2.826   0.118  0.9347  1.1921 -1.6570
 6526TIP3    H241214   0.975   2.909   0.043 -0.8686  0.6582  0.1034
 6527TIP3   OH241215   4.209   0.298   7.661  0.1605 -0.0888  0.3141
 6527TIP3    H141216   4.214   0.307   7.566 -0.1431 -0.1247  0.2929
 6527TIP3    H241217   4.151   0.369   7.690 -0.1330 -0.3679  0.4191
 6528TIP3   OH241218   0.635   0.740   0.353  0.1875  0.0322 -0.6979
 6528TIP3    H141219   0.713   0.730   0.298 -0.5193  0.1755 -1.7467
 6528TIP3    H241220   0.584   0.662   0.338 -1.5472  1.4655 -2.7847
 6529TIP3   OH241221   0.154   2.237   8.331 -0.5225  0.2802 -0.1334
 6529TIP3    H141222   0.172   2.149   8.363  0.3610  0.7739  0.7763
 6529TIP3    H241223   0.087   2.271   8.390  1.5863  1.4374  1.7443
 6530TIP3   OH241224   3.494   5.431   0.774 -0.3719  0.0684 -0.2035
 6530TIP3    H141225   3.558   5.360   0.772 -0.8299 -0.3478 -0.2408
 6530TIP3    H241226   3.441   5.414   0.852  1.0674  1.7692  1.2414
 6531TIP3   OH241227   5.260   5.773   8.725 -0.4077 -0.3661  0.4568
 6531TIP3    H141228   5.307   5.734   8.651  1.0682  1.2353  0.5032
 6531TIP3    H241229   5.168   5.750   8.709 -0.2016  0.2906 -2.1338
 6532TIP3   OH241230   1.979   2.416   7.500 -1.1289  0.3070  0.2811
 6532TIP3    H141231   1.956   2.458   7.417 -2.0673  1.4861  1.1017
 6532TIP3    H241232   2.013   2.331   7.475 -3.3887 -0.2406 -1.2177
 6533TIP3   OH241233   2.308   3.677   8.551 -0.2574 -0.1840  0.3490
 6533TIP3    H141234   2.339   3.728   8.626  1.9932 -0.0850 -0.5482
 6533TIP3    H241235   2.213   3.689   8.551 -0.5900 -1.4809  4.0962
 6534TIP3   OH241236   2.477   2.378   7.781  0.0164 -0.2700  0.2816
 6534TIP3    H141237   2.396   2.429   7.779  0.0472 -0.2241 -1.1615
 6534TIP3    H241238   2.499   2.371   7.874 -0.5278  1.4700  0.5744
 6535TIP3   OH241239   6.180   1.226   7.982 -0.4341 -0.4518  1.0978
 6535TIP3    H141240   6.085   1.213   7.980 -0.3640 -0.9359  0.0231
 6535TIP3    H241241   6.205   1.241   7.890  0.5698 -0.7177  1.3074
 6536TIP3   OH241242   6.189   4.539   1.727 -0.1050 -0.0923 -0.4804
 6536TIP3    H141243   6.202   4.460   1.674 -1.7492 -0.1504 -0.8518
 6536TIP3    H241244   6.103   4.572   1.701 -0.1070  0.9783  0.7612
 6537TIP3   OH241245   6.561   2.475   0.995 -0.0287  0.1867 -0.1332
 6537TIP3    H141246   6.492   2.491   0.930 -0.3226 -0.5822 -0.0170
 6537TIP3    H241247   6.609   2.400   0.960 -0.0826 -0.1213  0.4548
 6538TIP3   OH241248   5.227   1.926   7.898  0.0661 -0.2013 -0.2793
 6538TIP3    H141249   5.240   1.853   7.838 -0.3017 -0.0862 -0.5076
 6538TIP3    H241250   5.131   1.936   7.902  0.1230  0.5107 -0.5549
 6539TIP3   OH241251   0.470   5.853   7.698 -0.1234 -0.4656 -0.3584
 6539TIP3    H141252   0.519   5.822   7.774 -2.0116 -0.2904  1.0054
 6539TIP3    H241253   0.400   5.789   7.686 -0.6043  0.1855 -1.1471
 6540TIP3   OH241254   4.324   4.390   1.799  0.2162 -0.2555 -0.2048
 6540TIP3    H141255   4.327   4.434   1.714 -0.9876  0.8220  0.2889
 6540TIP3    H241256   4.416   4.376   1.821  0.5584 -1.7996 -2.2745
 6541TIP3   OH241257   3.497   3.502   8.482 -0.4136  0.2019  0.1164
 6541TIP3    H141258   3.516   3.562   8.554 -0.2621  0.1553  0.1154
 6541TIP3    H241259   3.436   3.551   8.426  1.7715  1.4553 -1.3220
 6542TIP3   OH241260   3.771   0.244   8.128  0.1042  0.5514  0.0085
 6542TIP3    H141261   3.735   0.291   8.053 -2.6468  0.1070  0.9508
 6542TIP3    H241262   3.758   0.151   8.107  0.9555  0.3578  0.2863
 6543TIP3   OH241263   2.385   2.536   0.807  0.5671 -0.5443  0.3004
 6543TIP3    H141264   2.458   2.588   0.773  1.5590 -1.8414  0.3720
 6543TIP3    H241265   2.346   2.590   0.875  1.0380  0.4415 -0.1890
 6544TIP3   OH241266   5.525   1.648   7.701 -0.8433 -0.2995 -0.3338
 6544TIP3    H141267   5.596   1.707   7.674 -2.0127  1.0611 -0.5923
 6544TIP3    H241268   5.529   1.648   7.797  0.0985 -1.0095 -0.3658
 6545TIP3   OH241269   1.637   5.070   8.230 -0.5259  0.1191 -0.4601
 6545TIP3    H141270   1.651   5.164   8.234 -0.0220  0.2760 -3.7048
 6545TIP3    H241271   1.725   5.032   8.227 -0.7283 -0.4721  0.5131
 6546TIP3   OH241272   1.342   3.716   0.722  0.1888  0.2103 -0.0959
 6546TIP3    H141273   1.312   3.627   0.703 -1.2730  0.6852 -0.1197
 6546TIP3    H241274   1.358   3.716   0.817  0.6938 -0.2037 -0.1733
 6547TIP3   OH241275   4.350   6.073   1.100 -0.2577  0.0022  0.5405
 6547TIP3    H141276   4.411   6.005   1.074  0.4845  0.5465  0.8331
 6547TIP3    H241277   4.289   6.080   1.027  0.1750 -0.3683  0.1416
 6548TIP3   OH241278   6.052   4.170   1.906 -0.2743  0.0229  0.3682
 6548TIP3    H141279   6.001   4.113   1.848 -0.1336 -1.2179  1.4187
 6548TIP3    H241280   6.074   4.114   1.981  0.8147  1.1532  0.9248
 6549TIP3   OH241281   2.442   2.946   1.195  0.1194 -0.4679  0.2748
 6549TIP3    H141282   2.416   2.937   1.103  0.5156 -2.1357  0.2977
 6549TIP3    H241283   2.452   3.041   1.207 -0.6355 -0.1616 -1.1937
 6550TIP3   OH241284   0.077   5.807   2.439  0.7426 -0.0483 -0.0938
 6550TIP3    H141285  -0.006   5.820   2.485 -0.1129 -3.2540 -0.4505
 6550TIP3    H241286   0.131   5.758   2.501  1.9137  0.9149 -0.3339
 6551TIP3   OH241287   2.750   3.028   1.021  0.2837 -0.2254  0.0950
 6551TIP3    H141288   2.662   3.060   1.039  0.6227  0.1996  1.0698
 6551TIP3    H241289   2.753   2.942   1.062 -0.6086 -1.5709 -2.4732
 6552TIP3   OH241290   5.368   3.656   0.068  0.4855 -0.7417  0.3446
 6552TIP3    H141291   5.406   3.580   0.112  0.7841 -1.7245 -1.5346
 6552TIP3    H241292   5.431   3.677  -0.001 -0.9526 -0.5283 -0.9286
 6553TIP3   OH241293   3.603   4.819   7.233  0.1121 -0.0792 -0.0053
 6553TIP3    H141294   3.580   4.903   7.192 -0.9311 -0.4575 -0.2250
 6553TIP3    H241295   3.557   4.821   7.318 -2.2894 -1.5634 -1.1518
 6554TIP3   OH241296   0.295   0.494   8.588 -0.6023 -0.3141 -0.1311
 6554TIP3    H141297   0.204   0.514   8.611 -0.1659  0.5724  0.9101
 6554TIP3    H241298   0.331   0.577   8.557 -0.1464 -0.6689 -0.5687
 6555TIP3   OH241299   4.285   2.155   1.131 -0.0927 -0.6245 -0.3216
 6555TIP3    H141300   4.330   2.224   1.084 -0.6598 -0.7848 -1.1280
 6555TIP3    H241301   4.307   2.075   1.083 -0.7338 -0.7839 -0.3555
 6556TIP3   OH241302   4.546   1.180   8.902 -0.2534 -0.2074 -0.2320
 6556TIP3    H141303   4.463   1.159   8.943  0.1052 -2.6550 -0.5917
 6556TIP3    H241304   4.525   1.246   8.836 -1.7121 -0.0539  0.3537
 6557TIP3   OH241305   2.728   1.214   0.119 -0.3589 -0.0690  0.2164
 6557TIP3    H141306   2.751   1.154   0.190 -2.1354  0.3949  1.2209
 6557TIP3    H241307   2.707   1.296   0.162  1.5771  1.2113 -1.1041
 6558TIP3   OH241308   0.594   4.669   0.352  0.5224 -0.0066 -0.3896
 6558TIP3    H141309   0.589   4.623   0.268  2.6750 -1.1086  0.0204
 6558TIP3    H241310   0.592   4.600   0.417 -0.2182  0.7847  0.4478
 6559TIP3   OH241311   6.144   0.542   7.800 -0.0476  0.0537 -0.4794
 6559TIP3    H141312   6.102   0.616   7.844  1.8891  1.1673 -0.3668
 6559TIP3    H241313   6.151   0.570   7.709 -0.9132 -0.7748 -0.8100
 6560TIP3   OH241314   0.456   6.701   0.177  0.0524  0.3119 -0.2034
 6560TIP3    H141315   0.410   6.753   0.243 -0.4731 -1.7462  1.1266
 6560TIP3    H241316   0.548   6.704   0.204  0.0363  0.5810 -0.1730
 6561TIP3   OH241317   3.428   4.534   8.039 -0.1328  0.1630 -0.4581
 6561TIP3    H141318   3.486   4.463   8.012 -1.1655 -0.6916 -0.5455
 6561TIP3    H241319   3.479   4.614   8.029  0.6664 -0.4679 -1.5207
 6562TIP3   OH241320   2.092   6.060   2.911  0.3955 -0.1127 -0.0966
 6562TIP3    H141321   2.079   6.135   2.854 -0.2729  0.4927  0.8345
 6562TIP3    H241322   2.079   5.984   2.854 -0.6764  0.4770 -0.6707
 6563TIP3   OH241323   0.646   1.420   7.207 -0.1573  0.2423 -0.3543
 6563TIP3    H141324   0.650   1.515   7.201 -0.1509  0.2866  0.3750
 6563TIP3    H241325   0.634   1.391   7.116  0.6149  0.8946 -0.6739
 6564TIP3   OH241326   6.229   6.301   0.045  0.1134  0.8940  0.6899
 6564TIP3    H141327   6.192   6.328  -0.039  4.5005  1.1804 -1.3823
 6564TIP3    H241328   6.257   6.383   0.086  0.5630  0.5328  1.1139
 6565TIP3   OH241329   5.295   6.607   0.860  0.2183  0.1793  0.4400
 6565TIP3    H141330   5.224   6.564   0.813 -1.0144  1.5216  1.0074
 6565TIP3    H241331   5.374   6.580   0.813 -0.8962  1.3188 -2.3823
 6566TIP3   OH241332   4.020   0.970   6.484 -0.5210 -0.2690  0.5578
 6566TIP3    H141333   4.051   1.060   6.494 -1.4814  0.0668  0.6248
 6566TIP3    H241334   3.926   0.974   6.506 -0.5709 -1.2874  0.5902
 6567TIP3   OH241335   3.750   6.340   0.462  0.3246  0.5010  0.2643
 6567TIP3    H141336   3.724   6.346   0.554 -1.1449  0.4456 -0.1273
 6567TIP3    H241337   3.785   6.427   0.441  0.4007  0.5985  0.7833
 6568TIP3   OH241338   6.217   1.693   1.938 -0.3112  0.5825 -0.7518
 6568TIP3    H141339   6.208   1.694   1.843  2.3010 -0.1050 -1.1012
 6568TIP3    H241340   6.229   1.600   1.960 -1.7159  0.6433  0.3748
 6569TIP3   OH241341   1.469   2.277   6.870  0.2586  0.3364  1.1522
 6569TIP3    H141342   1.375   2.283   6.851  0.3750  0.6769  0.6507
 6569TIP3    H241343   1.481   2.188   6.903 -0.5456  0.8895  3.0811
 6570TIP3   OH241344   0.028   3.123   9.036  0.2102  0.5697  0.3619
 6570TIP3    H141345  -0.058   3.148   9.000  0.0738  0.3419  0.5258
 6570TIP3    H241346   0.082   3.105   8.959  0.1746  0.9246  0.2532
 6571TIP3   OH241347   4.662   6.403   8.971  0.2319  0.1233  0.4149
 6571TIP3    H141348   4.651   6.423   8.878  0.1855  1.5209  0.7097
 6571TIP3    H241349   4.741   6.449   8.996  1.7858 -2.3959  0.4868
 6572TIP3   OH241350   3.447   0.077   8.210 -0.1666  0.5009 -0.7606
 6572TIP3    H141351   3.491   0.092   8.293 -1.8425  0.7571  0.1371
 6572TIP3    H241352   3.410   0.162   8.186 -1.3214  0.0209 -0.7547
 6573TIP3   OH241353   5.126   6.353   1.293  0.2166  0.6281 -0.1560
 6573TIP3    H141354   5.108   6.303   1.373  1.2849  1.6337  0.7313
 6573TIP3    H241355   5.173   6.291   1.237  0.2804  0.1995  0.3608
 6574TIP3   OH241356   4.871   5.605   8.230  0.4242  0.2650  0.0014
 6574TIP3    H141357   4.913   5.617   8.316  0.0005 -2.4454  0.6781
 6574TIP3    H241358   4.788   5.651   8.237 -0.2153 -1.0297  1.6033
 6575TIP3   OH241359   1.616   4.572   1.038  0.0914  0.2112  0.2045
 6575TIP3    H141360   1.666   4.527   0.970  0.4718 -0.1621  0.7162
 6575TIP3    H241361   1.593   4.502   1.100 -1.7802  0.2195 -0.4276
 6576TIP3   OH241362   0.028   5.579   9.030 -0.3133 -0.2555 -0.1332
 6576TIP3    H141363   0.045   5.608   9.120 -0.5041 -1.1170  0.1966
 6576TIP3    H241364   0.094   5.624   8.978  0.2312 -0.2450  0.5379
 6577TIP3   OH241365   6.123   1.329   8.886  0.4780  0.9531  0.0173
 6577TIP3    H141366   6.211   1.344   8.921  0.4270  1.6305 -0.1357
 6577TIP3    H241367   6.138   1.306   8.794  0.4903  1.2078 -0.0458
 6578TIP3   OH241368   6.677   4.302   8.142 -0.1525 -0.2558  0.1609
 6578TIP3    H141369   6.755   4.346   8.108 -0.9086  0.7557 -0.2993
 6578TIP3    H241370   6.700   4.208   8.138  0.5286 -0.0620 -1.2684
 6579TIP3   OH241371   3.794   6.438   2.336  0.0244 -0.4251 -0.1748
 6579TIP3    H141372   3.725   6.487   2.292 -0.4209 -1.4380 -0.6271
 6579TIP3    H241373   3.777   6.452   2.429 -0.2325  0.0874 -0.2951
 6580TIP3   OH241374   5.813   5.321   1.225  0.3354 -0.3908  0.2755
 6580TIP3    H141375   5.794   5.231   1.198  0.8004 -0.1929 -0.7502
 6580TIP3    H241376   5.908   5.324   1.232  0.3537  0.1569 -0.1884
 6581TIP3   OH241377   0.670   6.640   0.464  0.4053  0.0100 -0.4362
 6581TIP3    H141378   0.650   6.561   0.414  1.1060  0.5786 -1.6835
 6581TIP3    H241379   0.664   6.711   0.400  0.3554  0.9019  0.5263
 6582TIP3   OH241380   1.023   4.404   0.989 -0.1378 -0.0593 -0.2807
 6582TIP3    H141381   0.959   4.472   0.967 -1.1951 -1.0530 -0.3655
 6582TIP3    H241382   1.023   4.345   0.913  1.4589  0.3260 -0.6198
 6583TIP3   OH241383   4.622   6.346   1.473  0.3427  0.2808 -0.0125
 6583TIP3    H141384   4.685   6.275   1.463 -0.6183 -0.3309 -2.4967
 6583TIP3    H241385   4.540   6.302   1.497  0.1961  0.7500  0.3517
 6584TIP3   OH241386   3.647   6.305   7.440 -0.3123 -0.1897  0.6760
 6584TIP3    H141387   3.574   6.243   7.447 -0.7754  0.4806  2.1843
 6584TIP3    H241388   3.605   6.388   7.418  0.3801 -0.4919 -2.3078
 6585TIP3   OH241389   1.086   2.448   8.360 -0.1279  0.3298 -0.1862
 6585TIP3    H141390   1.009   2.478   8.312 -0.5545  1.8347  1.3487
 6585TIP3    H241391   1.151   2.430   8.292 -1.1380  1.1045 -1.4003
 6586TIP3   OH241392   2.544   3.802   7.657 -0.1253 -0.9255 -0.1722
 6586TIP3    H141393   2.600   3.778   7.730  1.8830 -2.1259 -1.9876
 6586TIP3    H241394   2.491   3.724   7.641  0.6632 -1.3102 -1.0183
 6587TIP3   OH241395   0.002   6.497   0.464 -0.0845  0.5050 -0.5038
 6587TIP3    H141396   0.003   6.475   0.557 -0.1051  1.1317 -0.3502
 6587TIP3    H241397   0.034   6.587   0.461 -1.1359  0.8773 -0.9909
 6588TIP3   OH241398   0.512   0.079   1.014  0.0207  0.2803  0.2417
 6588TIP3    H141399   0.456   0.026   1.071  1.3143 -0.9744  0.3959
 6588TIP3    H241400   0.476   0.167   1.021 -2.1733 -0.5239  0.0339
 6589TIP3   OH241401   3.195   4.271   8.039  0.8213  0.2491 -1.0233
 6589TIP3    H141402   3.244   4.241   8.116  1.7432  0.8580 -1.3558
 6589TIP3    H241403   3.225   4.361   8.025 -1.7432  1.3269 -0.1550
 6590TIP3   OH241404   6.557   2.577   2.010  0.1042  0.7772 -0.2346
 6590TIP3    H141405   6.484   2.590   2.072 -0.1843 -0.0770 -0.3870
 6590TIP3    H241406   6.621   2.525   2.059  0.4966  1.2813 -0.2004
 6591TIP3   OH241407   4.829   0.868   7.767  0.2045 -0.8877  0.2996
 6591TIP3    H141408   4.862   0.813   7.697 -0.9724 -0.8052 -0.3586
 6591TIP3    H241409   4.754   0.820   7.803 -0.8836  0.2727 -0.3319
 6592TIP3   OH241410   5.352   3.508   0.429 -0.1674 -0.3045 -0.7593
 6592TIP3    H141411   5.385   3.596   0.447 -0.9550 -0.0799 -0.3970
 6592TIP3    H241412   5.277   3.497   0.487 -0.2638 -1.1031 -1.0143
 6593TIP3   OH241413   1.501   2.900   1.857 -0.3716 -0.3915  0.0868
 6593TIP3    H141414   1.515   2.990   1.828  0.0462 -0.4397  0.1358
 6593TIP3    H241415   1.587   2.870   1.887 -0.6424 -0.5799  0.7000
 6594TIP3   OH241416   3.734   0.182   6.617 -0.1210 -0.3134  0.1619
 6594TIP3    H141417   3.790   0.105   6.622 -0.5965 -0.6129  0.9629
 6594TIP3    H241418   3.789   0.254   6.650 -0.2640 -0.6394  1.1292
 6595TIP3   OH241419   3.087   2.794   7.326 -0.1700  0.3536 -0.0257
 6595TIP3    H141420   3.162   2.760   7.278 -0.4867 -0.2999 -0.0734
 6595TIP3    H241421   3.025   2.819   7.258 -1.1044 -1.6720  0.0041
 6596TIP3   OH241422   1.742   2.971   6.735 -0.4025 -0.4126  0.1739
 6596TIP3    H141423   1.776   2.896   6.784 -0.7290 -1.5635 -1.2776
 6596TIP3    H241424   1.714   2.934   6.651 -1.1407  1.2457 -0.3556
 6597TIP3   OH241425   0.299   5.634   7.722  0.1674 -0.3732 -0.1870
 6597TIP3    H141426   0.345   5.565   7.770  1.9642  1.5531  1.0375
 6597TIP3    H241427   0.234   5.587   7.669  0.8455 -2.9192  1.0648
 6598TIP3   OH241428   2.728   2.842   1.270  0.4439  0.1927 -0.3488
 6598TIP3    H141429   2.670   2.917   1.271  2.6737  2.0329  0.5323
 6598TIP3    H241430   2.752   2.828   1.362  2.9499  0.8756 -0.8164
 6599TIP3   OH241431   6.670   6.011   7.361  0.5794  0.3405 -0.1693
 6599TIP3    H141432   6.693   6.001   7.268  0.2215  0.7274 -0.3026
 6599TIP3    H241433   6.721   5.944   7.406  0.9692  0.3338 -0.6157
 6600TIP3   OH241434   3.276   2.353   8.810  0.0257 -0.0227 -0.2364
 6600TIP3    H141435   3.217   2.301   8.864 -0.3873 -1.2898 -1.7999
 6600TIP3    H241436   3.224   2.429   8.785 -0.0398  0.1821  0.5093
 6601TIP3   OH241437   0.373   3.313   8.140  0.4745  0.3660  0.1176
 6601TIP3    H141438   0.468   3.310   8.149  0.6333  3.6659  0.8228
 6601TIP3    H241439   0.357   3.280   8.051  2.3667  0.4988 -0.3231
 6602TIP3   OH241440   2.681   2.723   9.041  0.4514 -0.1813 -0.0709
 6602TIP3    H141441   2.613   2.680   8.989  0.8629  0.7066 -1.4000
 6602TIP3    H241442   2.642   2.808   9.064  0.4836 -0.3494  0.6246
 6603TIP3   OH241443   5.533   3.462   1.633 -0.5379 -0.2049  0.0383
 6603TIP3    H141444   5.535   3.377   1.676 -0.8528  0.8819  2.3317
 6603TIP3    H241445   5.440   3.478   1.616 -0.6212  0.2453  0.8604
 6604TIP3   OH241446   1.239   4.766   2.221 -0.5837  0.4809  0.1056
 6604TIP3    H141447   1.192   4.751   2.303  0.0680  1.1738  0.6203
 6604TIP3    H241448   1.246   4.861   2.214 -1.0984  0.4514 -1.0339
 6605TIP3   OH241449   2.098   6.502   0.237 -0.1489 -0.8747  0.8084
 6605TIP3    H141450   2.081   6.432   0.301 -1.6984 -0.5106  0.8481
 6605TIP3    H241451   2.068   6.466   0.154 -1.6171 -0.0515  0.9435
 6606TIP3   OH241452   1.719   5.911   1.185  0.3132  0.1015 -0.1413
 6606TIP3    H141453   1.684   5.866   1.108  0.9193  1.7153 -1.4168
 6606TIP3    H241454   1.654   5.977   1.206  0.1684 -0.3114  0.7444
 6607TIP3   OH241455   6.714   0.292   0.030  0.6434 -0.4106 -0.2628
 6607TIP3    H141456   6.630   0.307   0.074  0.1727 -1.0285 -0.9197
 6607TIP3    H241457   6.735   0.377  -0.010  0.9404  0.0798  0.8866
 6608TIP3   OH241458   6.520   2.562   6.744  0.0486 -0.3417  0.1920
 6608TIP3    H141459   6.600   2.546   6.695  0.6654 -1.8094  1.5725
 6608TIP3    H241460   6.550   2.605   6.824 -0.4753 -1.1232  0.8291
 6609TIP3   OH241461   3.651   5.964   1.216  0.4249 -0.1748 -0.2915
 6609TIP3    H141462   3.726   5.905   1.209 -1.0541 -2.1426 -0.3014
 6609TIP3    H241463   3.584   5.913   1.261 -0.9744  1.4752 -0.4050
 6610TIP3   OH241464   5.129   3.741   1.755 -0.1783  0.2854 -0.0194
 6610TIP3    H141465   5.129   3.826   1.710 -0.3756  0.7573  0.8446
 6610TIP3    H241466   5.189   3.687   1.704  1.3342  1.4832  0.4054
 6611TIP3   OH241467   2.780   4.526   1.774  0.3959  0.3551  0.0345
 6611TIP3    H141468   2.793   4.455   1.711 -1.2850 -0.4525  0.5465
 6611TIP3    H241469   2.827   4.496   1.852  0.1764  0.0808  0.0623
 6612TIP3   OH241470   5.825   4.349   1.290 -0.0081 -0.4432 -0.5663
 6612TIP3    H141471   5.746   4.295   1.283 -0.0572 -0.7222  1.4753
 6612TIP3    H241472   5.796   4.427   1.337  0.7823 -0.2019 -0.4703
 6613TIP3   OH241473   4.515   3.186   7.685  0.3684  0.1143  0.2456
 6613TIP3    H141474   4.451   3.212   7.751 -0.3962 -0.3456 -0.2964
 6613TIP3    H241475   4.479   3.218   7.603  0.2558 -1.1300 -0.2072
 6614TIP3   OH241476   5.765   0.956   1.755 -0.1327 -0.1911  0.1312
 6614TIP3    H141477   5.687   0.977   1.805  0.4077 -1.6166  1.6626
 6614TIP3    H241478   5.837   0.999   1.803  0.5397 -2.5294  1.3673
 6615TIP3   OH241479   3.333   6.487   7.639 -0.0275  0.1957  0.0167
 6615TIP3    H141480   3.343   6.461   7.731  2.0611 -0.6553 -0.4016
 6615TIP3    H241481   3.272   6.423   7.603  0.4772 -0.5390  0.4307
 6616TIP3   OH241482   5.168   5.776   1.873 -0.4816  0.5790 -0.1438
 6616TIP3    H141483   5.125   5.691   1.866  0.0079  0.1565  1.6277
 6616TIP3    H241484   5.259   5.758   1.848 -0.9129  1.1762 -2.4218
 6617TIP3   OH241485   2.238   1.858   8.498  0.2109 -0.0969  0.5915
 6617TIP3    H141486   2.323   1.902   8.485  0.3672 -0.5039  0.2058
 6617TIP3    H241487   2.224   1.861   8.592  0.6064  0.0718  0.6497
 6618TIP3   OH241488   1.119   6.676   0.656 -0.0353  0.6063  0.1513
 6618TIP3    H141489   1.040   6.623   0.657  0.1388  0.3055  2.1356
 6618TIP3    H241490   1.148   6.674   0.565 -1.5792 -0.3459 -0.3652
 6619TIP3   OH241491   5.631   1.391   8.377 -0.1068 -0.1313  0.3144
 6619TIP3    H141492   5.639   1.411   8.284 -1.6008 -0.1935  0.1423
 6619TIP3    H241493   5.710   1.342   8.399  0.9165  1.0319 -0.5900
 6620TIP3   OH241494   5.816   5.083   6.514  0.3475  0.7579  0.2363
 6620TIP3    H141495   5.858   5.041   6.589 -0.2225 -0.6640 -0.2029
 6620TIP3    H241496   5.724   5.090   6.540  0.3226  1.1369  0.0422
 6621TIP3   OH241497   6.214   4.696   0.534  0.3310 -0.4343  0.4184
 6621TIP3    H141498   6.197   4.685   0.628 -0.9159  0.5882  0.3541
 6621TIP3    H241499   6.280   4.631   0.513  2.7201  1.1090  2.5756
 6622TIP3   OH241500   6.154   2.237   6.983 -0.4342  0.0667  0.5966
 6622TIP3    H141501   6.072   2.281   6.961 -0.1296  0.2009 -0.2949
 6622TIP3    H241502   6.218   2.308   6.989  0.0491 -0.2200 -0.8020
 6623TIP3   OH241503   0.502   4.876   7.045 -0.6069  0.5696 -0.0444
 6623TIP3    H141504   0.474   4.794   7.085 -1.7304  0.2881 -1.3539
 6623TIP3    H241505   0.421   4.917   7.014  0.2074  0.4676 -2.5699
 6624TIP3   OH241506   1.815   2.191   0.629 -0.1235 -0.0896  0.0331
 6624TIP3    H141507   1.736   2.193   0.683 -0.7317 -1.0484 -0.7780
 6624TIP3    H241508   1.850   2.103   0.640  0.3516  0.0533 -0.2969
 6625TIP3   OH241509   4.358   4.432   0.220  0.5172 -0.2165  0.4346
 6625TIP3    H141510   4.267   4.443   0.247 -0.4307 -1.7274 -1.8145
 6625TIP3    H241511   4.384   4.349   0.257  0.6085 -0.2912  0.2075
 6626TIP3   OH241512   3.326   2.084   6.929 -0.3421  0.0418 -0.2974
 6626TIP3    H141513   3.311   2.027   7.004  0.6255  0.3180  0.1225
 6626TIP3    H241514   3.324   2.173   6.965 -2.1400  0.3218 -0.9992
 6627TIP3   OH241515   1.938   2.535   1.704 -0.2702  0.4002 -0.6405
 6627TIP3    H141516   1.986   2.518   1.785  0.3618  1.5859 -0.7556
 6627TIP3    H241517   1.878   2.606   1.725 -1.2526 -0.3637 -0.7907
 6628TIP3   OH241518   1.507   5.986   7.954 -0.1904  0.2486 -0.1469
 6628TIP3    H141519   1.577   5.943   8.004  0.2062  1.1614  0.1068
 6628TIP3    H241520   1.525   6.080   7.964 -1.4824  0.4992 -0.0358
 6629TIP3   OH241521   2.390   5.537   2.403 -0.4293 -0.2234  0.1087
 6629TIP3    H141522   2.385   5.622   2.360  1.9377  0.7982  1.6706
 6629TIP3    H241523   2.424   5.478   2.336 -0.6980  0.3818 -0.5688
 6630TIP3   OH241524   3.272   4.851   8.030 -0.3024  0.0849  0.4070
 6630TIP3    H141525   3.236   4.793   8.098  0.3001 -0.3837  0.3351
 6630TIP3    H241526   3.199   4.863   7.969 -0.9966  0.8923  1.3659
 6631TIP3   OH241527   0.191   0.315   0.585 -0.2348  0.2353 -0.2254
 6631TIP3    H141528   0.098   0.338   0.594 -0.3479  0.1095 -0.9945
 6631TIP3    H241529   0.212   0.334   0.493 -0.7258 -3.9620 -1.4619
 6632TIP3   OH241530   2.460   3.606   1.664  0.0256  0.3761  0.3406
 6632TIP3    H141531   2.425   3.681   1.617  0.0281  0.3979  0.3735
 6632TIP3    H241532   2.383   3.552   1.684 -0.1796  1.1036  1.6385
 6633TIP3   OH241533   2.543   0.086   8.178  0.3648 -0.1202  0.2863
 6633TIP3    H141534   2.472   0.100   8.241  1.0905  0.2257  1.0427
 6633TIP3    H241535   2.622   0.079   8.231  0.9179 -0.4636 -0.5468
 6634TIP3   OH241536   2.737   1.820   8.888 -0.0956  0.1495 -0.5435
 6634TIP3    H141537   2.821   1.779   8.913 -0.5797 -0.4231  0.2052
 6634TIP3    H241538   2.687   1.748   8.849 -0.0793  0.5977 -1.4135
 6635TIP3   OH241539   1.149   1.528   8.231  0.0699  0.4039 -0.1446
 6635TIP3    H141540   1.189   1.530   8.319  0.2977  2.1653 -0.2489
 6635TIP3    H241541   1.141   1.620   8.207  0.0174 -0.0551 -1.9927
 6636TIP3   OH241542   2.247   4.652   0.972 -0.5789  0.0982 -0.1452
 6636TIP3    H141543   2.174   4.593   0.989 -0.4526  0.1253  0.4934
 6636TIP3    H241544   2.207   4.739   0.969 -0.7496 -0.0001 -0.9898
 6637TIP3   OH241545   6.045   0.441   8.870 -0.3375  0.1654  0.0167
 6637TIP3    H141546   6.026   0.359   8.825 -1.1246  0.4093 -0.1098
 6637TIP3    H241547   5.984   0.443   8.944  0.3056  0.2051  0.5559
 6638TIP3   OH241548   5.702   4.503   6.787  0.5610  0.9063 -0.2783
 6638TIP3    H141549   5.740   4.455   6.714 -0.7955 -0.1866 -0.3027
 6638TIP3    H241550   5.686   4.591   6.753  3.5445  1.6258 -0.0799
 6639TIP3   OH241551   1.662   2.968   8.785 -0.1249  0.2263 -0.8702
 6639TIP3    H141552   1.591   3.032   8.785 -0.0999  0.2997  0.8776
 6639TIP3    H241553   1.742   3.020   8.773 -0.1442  0.5085  0.0963
 6640TIP3   OH241554   5.654   3.035   8.382 -0.0415 -0.0837 -0.0537
 6640TIP3    H141555   5.685   3.125   8.391  0.3883 -0.4008  2.4803
 6640TIP3    H241556   5.566   3.036   8.420 -1.7606 -0.0118 -3.6201
 6641TIP3   OH241557   0.252   3.540   8.425 -0.3256 -0.5227 -0.2523
 6641TIP3    H141558   0.180   3.508   8.370 -0.6814  0.0282 -0.1173
 6641TIP3    H241559   0.215   3.541   8.513  0.5305 -2.3047  0.1838
 6642TIP3   OH241560   4.097   6.500   2.423  0.5604 -0.0866  0.1194
 6642TIP3    H141561   4.102   6.533   2.513 -0.0511 -1.8813  0.8603
 6642TIP3    H241562   4.054   6.570   2.374 -1.4482 -0.0584  1.7812
 6643TIP3   OH241563   3.680   5.657   1.217  0.3829  0.2339  0.5388
 6643TIP3    H141564   3.681   5.677   1.123 -0.0919  0.3532  0.5535
 6643TIP3    H241565   3.668   5.562   1.221  0.0903  0.2683  0.4795
 6644TIP3   OH241566   1.505   2.975   0.136 -0.8211  0.1539 -0.1177
 6644TIP3    H141567   1.469   2.979   0.048 -2.9847  1.2886  0.7334
 6644TIP3    H241568   1.582   3.032   0.133 -1.1601  0.5814 -1.1326
 6645TIP3   OH241569   4.970   4.407   7.577 -0.1045  0.4737 -0.0267
 6645TIP3    H141570   4.878   4.430   7.587 -0.8270 -0.7710 -2.8909
 6645TIP3    H241571   4.992   4.430   7.487  2.7025  1.6056  0.8363
 6646TIP3   OH241572   0.732   0.018   7.450 -0.0675  0.1569  0.3561
 6646TIP3    H141573   0.723   0.090   7.511  0.4393  0.9573 -0.4892
 6646TIP3    H241574   0.674   0.041   7.377  2.7743  1.6145 -1.6418
 6647TIP3   OH241575   3.435   1.577   0.623 -0.3679 -0.6212  0.3208
 6647TIP3    H141576   3.376   1.529   0.565  0.2706 -1.0168 -0.0166
 6647TIP3    H241577   3.502   1.614   0.565 -1.2730  1.3874  0.4733
 6648TIP3   OH241578   0.131   2.162   2.287  0.0619  0.1018 -0.0557
 6648TIP3    H141579   0.049   2.122   2.259  0.8560 -1.7706  0.1542
 6648TIP3    H241580   0.176   2.094   2.337  2.0396  0.8347 -0.7186
 6649TIP3   OH241581   4.597   4.940   1.263  0.1780  1.0202  0.0377
 6649TIP3    H141582   4.518   4.984   1.232 -0.2936  0.6108  0.6080
 6649TIP3    H241583   4.624   4.990   1.340 -0.2590  0.4383  0.5835
 6650TIP3   OH241584   3.062   3.053   7.793 -0.1280  0.3385 -0.8025
 6650TIP3    H141585   3.156   3.034   7.789 -0.2515 -0.2224 -1.1689
 6650TIP3    H241586   3.056   3.147   7.807  0.5304  0.1325  1.2068
 6651TIP3   OH241587   2.597   0.400   0.374  0.7676 -0.2073 -0.0664
 6651TIP3    H141588   2.508   0.404   0.337 -0.0229 -0.7521  1.6768
 6651TIP3    H241589   2.636   0.483   0.349 -0.9517  0.9359  0.8270
 6652TIP3   OH241590   2.321   1.746   0.929  0.5585 -0.4215  0.5951
 6652TIP3    H141591   2.304   1.665   0.979  0.7240 -0.4339  0.6314
 6652TIP3    H241592   2.325   1.814   0.996  0.3310 -0.3704  0.5557
 6653TIP3   OH241593   0.215   0.905   7.787  0.2518  0.1610 -0.0743
 6653TIP3    H141594   0.140   0.914   7.728  0.7118  1.6845 -0.4696
 6653TIP3    H241595   0.188   0.948   7.868  0.8291  1.0930 -0.3636
 6654TIP3   OH241596   6.633   2.766   7.394  0.5957 -0.0408 -0.3723
 6654TIP3    H141597   6.651   2.759   7.300 -1.0830 -1.0711 -0.6517
 6654TIP3    H241598   6.595   2.681   7.417  1.7573 -0.1196  1.4413
 6655TIP3   OH241599   4.044   4.780   8.706  0.9632  0.3493 -0.1102
 6655TIP3    H141600   4.020   4.872   8.693  0.9292  0.3395 -0.1156
 6655TIP3    H241601   3.961   4.735   8.717  1.0024  0.3884  0.3614
 6656TIP3   OH241602   4.372   3.296   7.459  0.3532 -0.3581 -0.2704
 6656TIP3    H141603   4.280   3.324   7.462  0.6125  0.6362  3.1787
 6656TIP3    H241604   4.419   3.370   7.423 -0.0854 -0.5560 -1.2797
 6657TIP3   OH241605   1.745   3.112   9.123  0.4218  0.1244 -0.3306
 6657TIP3    H141606   1.752   3.192   9.070  0.2892  0.1871 -0.2540
 6657TIP3    H241607   1.789   3.133   9.205 -1.9579  1.0670  0.7946
 6658TIP3   OH241608   5.608   6.400   7.557 -0.2658 -0.4111  0.3343
 6658TIP3    H141609   5.534   6.352   7.595 -0.1128 -0.4292  0.6107
 6658TIP3    H241610   5.672   6.332   7.534 -0.0883 -0.3514  0.6407
 6659TIP3   OH241611   6.416   5.065   0.492  0.0339  0.3225  0.0564
 6659TIP3    H141612   6.378   5.106   0.414 -1.7686  0.3599  0.8804
 6659TIP3    H241613   6.453   5.138   0.542 -1.8873  0.8500  0.8257
 6660TIP3   OH241614   0.444   6.726   8.058 -0.0410 -0.1329  0.1038
 6660TIP3    H141615   0.407   6.662   7.997  1.2955  1.0400 -2.0673
 6660TIP3    H241616   0.472   6.798   8.003  0.5609  1.3624  2.2391
 6661TIP3   OH241617   4.859   4.922   0.149  0.5196 -0.2471  0.1817
 6661TIP3    H141618   4.933   4.910   0.090  0.5029 -0.8391  0.2725
 6661TIP3    H241619   4.802   4.847   0.132 -0.0610  0.2028  0.1166
 6662TIP3   OH241620   0.168   3.079   8.799 -0.1882 -0.5196  0.0586
 6662TIP3    H141621   0.166   3.128   8.717 -0.3187  1.3960  1.1528
 6662TIP3    H241622   0.255   3.038   8.800 -0.3529 -0.9597 -1.2218
 6663TIP3   OH241623   0.853   0.108   0.620 -0.0591 -0.2715 -0.2538
 6663TIP3    H141624   0.888   0.195   0.638  0.9326 -0.7320  0.0647
 6663TIP3    H241625   0.776   0.101   0.676  1.2595 -0.5355  1.6106
 6664TIP3   OH241626   2.734   1.092   8.808 -0.1849 -0.5879  0.3734
 6664TIP3    H141627   2.695   1.074   8.723 -0.5385 -0.5620  0.5261
 6664TIP3    H241628   2.821   1.054   8.803 -0.9626 -2.5796  0.7442
 6665TIP3   OH241629   2.926   2.619   8.998 -0.1690  0.5380 -0.0825
 6665TIP3    H141630   2.839   2.653   9.021 -0.7182 -0.5264 -0.5173
 6665TIP3    H241631   2.914   2.579   8.912  0.9347  1.0070 -0.4738
 6666TIP3   OH241632   1.345   2.251   1.188  0.0195  0.3919 -0.2136
 6666TIP3    H141633   1.255   2.261   1.220  0.4541  0.4759  1.0067
 6666TIP3    H241634   1.392   2.325   1.225  0.6219  0.2961 -0.7722
 6667TIP3   OH241635   4.645   2.473   0.027 -0.6094 -0.5527  0.9279
 6667TIP3    H141636   4.639   2.550   0.083 -0.8855  0.5096 -0.5118
 6667TIP3    H241637   4.730   2.482  -0.017 -0.8342 -0.8453  0.4327
 6668TIP3   OH241638   4.400   1.243   2.329  0.1879  0.5215 -0.6621
 6668TIP3    H141639   4.305   1.244   2.315 -0.2794  0.8570  1.8858
 6668TIP3    H241640   4.414   1.309   2.398  2.5448  1.8240 -2.2510
 6669TIP3   OH241641   0.878   2.131   1.918 -0.1960 -0.1208 -0.8014
 6669TIP3    H141642   0.892   2.156   1.827  2.5873  1.4112 -0.0882
 6669TIP3    H241643   0.821   2.198   1.953  0.4023  0.4860 -0.9576
 6670TIP3   OH241644   0.739   4.976   8.879  0.3775  0.3686  0.0135
 6670TIP3    H141645   0.772   5.028   8.806  0.7861 -1.2040 -0.9658
 6670TIP3    H241646   0.683   5.036   8.928  1.1739  1.8359 -0.8147
 6671TIP3   OH241647   3.420   1.840   8.600 -0.5884 -0.8267 -0.3902
 6671TIP3    H141648   3.493   1.864   8.657 -0.3413 -1.8249 -0.2769
 6671TIP3    H241649   3.461   1.791   8.529 -0.8511  0.6291 -1.6031
 6672TIP3   OH241650   0.923   5.543   2.801  0.1065 -0.3510  0.0720
 6672TIP3    H141651   0.891   5.498   2.879 -0.3646  0.4878  0.3830
 6672TIP3    H241652   1.012   5.510   2.789  0.2202 -0.4338  1.0201
 6673TIP3   OH241653   5.952   2.017   0.199 -0.2485  0.3077 -0.4181
 6673TIP3    H141654   6.000   2.037   0.119  0.2570 -1.0446 -0.4803
 6673TIP3    H241655   5.977   2.087   0.260  0.7773  0.3582 -0.8720
 6674TIP3   OH241656   4.046   1.939   0.364 -0.3285 -0.1290  0.5021
 6674TIP3    H141657   4.053   1.854   0.319 -0.7068  0.0468  0.1077
 6674TIP3    H241658   4.006   1.997   0.300 -0.3172  0.2827  0.8638
 6675TIP3   OH241659   2.703   6.039   1.341  0.9679  0.5103 -0.5003
 6675TIP3    H141660   2.702   6.126   1.300 -1.3921  0.5257 -0.5387
 6675TIP3    H241661   2.665   5.981   1.276 -2.0204  0.3714  1.1995
 6676TIP3   OH241662   1.782   2.647   7.702 -0.2244  0.0700 -0.3255
 6676TIP3    H141663   1.845   2.588   7.745 -0.0023 -1.5018 -2.5997
 6676TIP3    H241664   1.724   2.588   7.653 -1.7124  1.6413 -0.5354
 6677TIP3   OH241665   0.340   4.049   8.252 -0.2333 -0.0042 -0.3374
 6677TIP3    H141666   0.393   4.112   8.203  1.8686 -0.6101  0.9768
 6677TIP3    H241667   0.289   4.003   8.185  1.6781 -0.0614 -1.8585
 6678TIP3   OH241668   2.276   6.451   7.938 -0.3716  0.3171  0.6369
 6678TIP3    H141669   2.346   6.454   8.003 -1.3661  1.4256  1.7264
 6678TIP3    H241670   2.219   6.380   7.968  0.0309 -0.2771  0.0150
 6679TIP3   OH241671   1.414   1.854   7.982 -0.1304  0.1100  0.2832
 6679TIP3    H141672   1.468   1.779   8.007 -0.1626 -0.3179 -0.8900
 6679TIP3    H241673   1.341   1.852   8.044 -0.1013 -0.7920  0.3026
 6680TIP3   OH241674   6.033   2.256   0.325 -0.1474 -0.8119 -0.4508
 6680TIP3    H141675   6.124   2.239   0.348  0.2188 -0.3210 -1.4838
 6680TIP3    H241676   5.985   2.245   0.407  1.0366  0.3809  0.4364
 6681TIP3   OH241677   2.736   0.762   8.549 -0.0995  0.0859 -0.1735
 6681TIP3    H141678   2.775   0.675   8.536 -0.5078  0.1537 -2.0842
 6681TIP3    H241679   2.736   0.802   8.462 -1.7062  1.2523  0.3188
 6682TIP3   OH241680   2.093   1.694   2.036 -0.0647  0.4474 -0.4201
 6682TIP3    H141681   2.106   1.780   1.996  2.0025  1.3185  1.8420
 6682TIP3    H241682   2.171   1.644   2.011 -0.6001 -0.3048 -0.6059
 6683TIP3   OH241683   6.456   5.790   7.574  0.4401  0.0795  0.0504
 6683TIP3    H141684   6.488   5.880   7.579 -0.2894  0.3910 -0.6688
 6683TIP3    H241685   6.457   5.759   7.665  0.7608  0.7907  0.2972
 6684TIP3   OH241686   4.528   5.492   1.306  0.1970  0.5147 -0.2442
 6684TIP3    H141687   4.529   5.566   1.367  0.5531 -0.1809  0.6152
 6684TIP3    H241688   4.604   5.440   1.330 -1.6146 -1.6783  1.1341
 6685TIP3   OH241689   6.137   2.434   1.707 -0.6169 -0.3502 -0.3998
 6685TIP3    H141690   6.166   2.343   1.696 -1.7092 -0.6843 -0.6902
 6685TIP3    H241691   6.134   2.469   1.618  1.7495  0.6362 -0.1438
 6686TIP3   OH241692   5.991   3.079   7.159 -0.1492  0.2498  0.6890
 6686TIP3    H141693   6.074   3.125   7.159 -0.8063  1.9227 -3.5803
 6686TIP3    H241694   5.927   3.146   7.133 -2.2492 -1.7226  0.4773
 6687TIP3   OH241695   3.528   3.628   7.180  0.3705  0.2776  0.6636
 6687TIP3    H141696   3.622   3.620   7.196  0.6221  0.4688 -0.6415
 6687TIP3    H241697   3.521   3.678   7.099 -0.8380 -0.4758  0.2644
 6688TIP3   OH241698   3.084   3.036   8.636  0.3252  0.3559  1.0719
 6688TIP3    H141699   3.098   3.083   8.719  0.4616 -0.2108  1.3721
 6688TIP3    H241700   3.006   2.983   8.652 -0.2496  1.0082  0.4960
 6689TIP3   OH241701   1.174   2.160   7.243 -0.0028  0.3883  0.3918
 6689TIP3    H141702   1.095   2.213   7.236 -0.2117 -0.0403 -0.6136
 6689TIP3    H241703   1.186   2.122   7.156  0.3472 -0.9124  0.9791
 6690TIP3   OH241704   6.092   6.131   1.454 -0.8272 -0.1687  0.2089
 6690TIP3    H141705   6.166   6.081   1.486 -0.1016 -0.0263 -1.1642
 6690TIP3    H241706   6.018   6.100   1.506 -0.2775 -2.1521 -0.0977
 6691TIP3   OH241707   4.536   4.925   0.594 -0.0722 -0.1255  0.2720
 6691TIP3    H141708   4.608   4.983   0.619  1.1916 -1.6602  0.4056
 6691TIP3    H241709   4.458   4.980   0.595  1.1736  1.7473 -0.4276
 6692TIP3   OH241710   4.441   3.941   0.469  0.1550 -0.1757 -0.1719
 6692TIP3    H141711   4.383   3.887   0.414 -1.3844  0.5298  0.6801
 6692TIP3    H241712   4.520   3.952   0.416 -0.7857 -0.5218 -1.7373
 6693TIP3   OH241713   1.862   5.425   0.026  0.4967  0.1164 -0.5806
 6693TIP3    H141714   1.862   5.355  -0.039 -2.2128 -1.0962  0.5923
 6693TIP3    H241715   1.874   5.379   0.110 -0.7995  1.1000  0.1671
 6694TIP3   OH241716   6.261   1.511   7.941  0.6410  0.1357 -0.0967
 6694TIP3    H141717   6.183   1.496   7.889 -0.0268  0.4166  0.7950
 6694TIP3    H241718   6.262   1.439   8.004 -1.3103  2.3076  2.6965
 6695TIP3   OH241719   5.817   1.257   6.370 -0.3397 -0.0948  0.4025
 6695TIP3    H141720   5.846   1.313   6.442 -0.8871  0.1356  0.4509
 6695TIP3    H241721   5.887   1.193   6.360  1.8379  2.3562 -1.6779
 6696TIP3   OH241722   4.307   2.448   0.298 -0.1330  0.3099  0.0787
 6696TIP3    H141723   4.401   2.433   0.312 -0.4705 -0.6761  1.4354
 6696TIP3    H241724   4.264   2.377   0.344 -1.5686  0.7040 -0.6013
 6697TIP3   OH241725   4.150   0.606   8.926  0.9084 -0.2773  0.4787
 6697TIP3    H141726   4.176   0.554   9.002  2.1851  0.4100  0.5436
 6697TIP3    H241727   4.208   0.682   8.928 -0.5458  0.8854  0.0727
 6698TIP3   OH241728   0.889   0.930   7.278  0.0650 -0.0005  0.0601
 6698TIP3    H141729   0.867   0.849   7.232  1.0613 -0.0251 -0.4094
 6698TIP3    H241730   0.898   0.905   7.369  0.4443 -0.4386 -0.0944
 6699TIP3   OH241731   2.452   3.436   0.930  0.2575  0.3926 -0.1757
 6699TIP3    H141732   2.458   3.424   1.025  1.0984 -0.2848 -0.2994
 6699TIP3    H241733   2.424   3.526   0.919  0.4821  0.5825  0.7185
 6700TIP3   OH241734   1.600   0.309   0.128 -0.4291 -0.0849 -0.4288
 6700TIP3    H141735   1.626   0.325   0.037 -0.6108  0.0471 -0.4573
 6700TIP3    H241736   1.672   0.259   0.165 -0.9160 -1.2299 -0.9963
 6701TIP3   OH241737   3.386   0.990   1.528  0.9043 -0.0005 -0.5298
 6701TIP3    H141738   3.298   1.027   1.534  1.4215  1.3704 -1.2142
 6701TIP3    H241739   3.443   1.056   1.566  1.8413 -0.1377 -1.6603
 6702TIP3   OH241740   3.812   3.530   7.792  0.3292  0.5514 -0.1893
 6702TIP3    H141741   3.812   3.488   7.878  2.3507  0.2636 -0.2888
 6702TIP3    H241742   3.817   3.624   7.812 -1.0742  0.6103 -0.0066
 6703TIP3   OH241743   1.965   0.611   1.199  0.6099 -0.2195 -0.0171
 6703TIP3    H141744   1.913   0.678   1.154  1.7967  0.5154 -0.3171
 6703TIP3    H241745   2.018   0.571   1.130  0.0483 -1.3737  0.1875
 6704TIP3   OH241746   1.929   6.158   6.323 -0.0835 -0.1716  0.5075
 6704TIP3    H141747   1.952   6.067   6.300  0.6320  0.2673 -0.6343
 6704TIP3    H241748   1.995   6.184   6.387 -0.5907 -0.6027  1.2243
 6705TIP3   OH241749   2.871   5.810   0.644 -0.0581 -0.0571  0.3714
 6705TIP3    H141750   2.888   5.898   0.611 -1.8338  0.3128  0.3513
 6705TIP3    H241751   2.801   5.821   0.708 -0.5977 -1.4956  0.0803
 6706TIP3   OH241752   5.852   5.981   2.492  0.2189 -0.4781  0.6893
 6706TIP3    H141753   5.882   6.072   2.494  0.8195 -0.5953 -1.1721
 6706TIP3    H241754   5.784   5.980   2.424 -0.6806 -1.1802  1.5716
 6707TIP3   OH241755   4.291   1.760   7.033 -0.1049  0.1490 -0.3862
 6707TIP3    H141756   4.363   1.810   7.069  0.0470  0.1695 -0.7148
 6707TIP3    H241757   4.314   1.748   6.941 -0.9061  0.8613 -0.6955
 6708TIP3   OH241758   5.286   4.812   7.240  0.1578  0.2346 -0.2725
 6708TIP3    H141759   5.360   4.768   7.197  0.7151  0.4048  0.4948
 6708TIP3    H241760   5.322   4.846   7.322 -0.6876  0.6362 -0.0528
 6709TIP3   OH241761   0.854   0.297   8.095  0.3205  0.2158 -0.4245
 6709TIP3    H141762   0.859   0.348   8.176 -0.1473 -0.2495 -0.0960
 6709TIP3    H241763   0.907   0.219   8.113  0.6460  0.3555 -0.7572
 6710TIP3   OH241764   1.784   2.200   8.629  0.0993 -0.3187  0.2707
 6710TIP3    H141765   1.855   2.139   8.608  0.1075 -0.0788 -0.4404
 6710TIP3    H241766   1.821   2.287   8.613 -0.2027 -0.1692  0.3612
 6711TIP3   OH241767   1.720   1.911   8.011 -0.3813  0.0569  0.2601
 6711TIP3    H141768   1.743   1.871   8.095 -0.8050 -0.9211 -0.0645
 6711TIP3    H241769   1.626   1.929   8.019  0.0355  2.1384  0.8388
 6712TIP3   OH241770   4.887   6.691   6.415 -0.2108 -0.5525 -0.1938
 6712TIP3    H141771   4.799   6.727   6.420 -0.5051 -1.3104  0.2138
 6712TIP3    H241772   4.876   6.598   6.433  0.8580 -0.4100  1.4002
 6713TIP3   OH241773   3.190   5.902   8.934  0.1019  0.1578  0.3653
 6713TIP3    H141774   3.210   5.959   8.860  1.0451 -0.9805 -0.2831
 6713TIP3    H241775   3.170   5.962   9.006 -2.1758  1.3001 -1.1251
 6714TIP3   OH241776   0.695   6.528   8.817 -0.4245 -0.6842  0.0950
 6714TIP3    H141777   0.636   6.583   8.765 -0.7705  1.5346  2.6339
 6714TIP3    H241778   0.640   6.456   8.847 -1.7871  0.9163  1.7403
 6715TIP3   OH241779   0.547   6.229   1.780 -0.0780 -0.4769 -0.2977
 6715TIP3    H141780   0.554   6.232   1.876 -0.9170  0.1379 -0.2410
 6715TIP3    H241781   0.489   6.302   1.758  0.3069 -0.4568 -1.3019
 6716TIP3   OH241782   2.232   1.532   1.102 -0.1844  0.6002  0.3297
 6716TIP3    H141783   2.290   1.555   1.174  1.0793 -0.9618 -0.1335
 6716TIP3    H241784   2.209   1.440   1.118  0.4078  0.1125 -1.3996
 6717TIP3   OH241785   0.109   0.778   8.367 -0.2163 -0.3953 -0.5392
 6717TIP3    H141786   0.182   0.737   8.413 -1.3906 -0.3888  1.4487
 6717TIP3    H241787   0.093   0.860   8.414 -0.5508  0.3626 -1.9002
 6718TIP3   OH241788   6.148   4.035   7.425  0.7552  0.4281 -0.3671
 6718TIP3    H141789   6.201   3.960   7.448  1.4478  1.3896  1.3189
 6718TIP3    H241790   6.061   4.016   7.461  1.1086  0.7119  0.6549
 6719TIP3   OH241791   3.666   6.684   0.835 -0.0987  0.2143  0.3602
 6719TIP3    H141792   3.673   6.774   0.865 -0.3692 -0.1410  1.5496
 6719TIP3    H241793   3.590   6.684   0.776  0.8814  1.0675 -0.9789
 6720TIP3   OH241794   3.063   0.529   0.734  0.4434 -0.0519 -0.1227
 6720TIP3    H141795   2.980   0.554   0.774 -0.7098 -2.6524 -0.6552
 6720TIP3    H241796   3.069   0.582   0.655 -0.5634  0.3982  0.0979
 6721TIP3   OH241797   3.391   4.628   7.292 -0.7306  0.1364  0.4093
 6721TIP3    H141798   3.391   4.533   7.281  1.7213 -0.0343  1.2670
 6721TIP3    H241799   3.460   4.659   7.234 -0.9547  1.3237  0.7526
 6722TIP3   OH241800   1.296   1.525   8.468 -0.1185 -0.5163 -0.2144
 6722TIP3    H141801   1.289   1.458   8.536 -0.0395 -1.4599 -1.1272
 6722TIP3    H241802   1.379   1.569   8.485 -0.6070  0.0081  0.9578
 6723TIP3   OH241803   5.949   0.506   1.054 -0.1590  0.3368  0.2413
 6723TIP3    H141804   5.901   0.464   1.126 -0.4813 -0.5688 -0.4763
 6723TIP3    H241805   5.968   0.434   0.993 -0.8953  1.2635 -1.1283
 6724TIP3   OH241806   5.937   4.012   0.579 -0.1673 -0.4175 -0.1292
 6724TIP3    H141807   5.990   3.934   0.570  0.4917 -0.0218  0.2387
 6724TIP3    H241808   5.871   4.005   0.510  0.6683 -0.6638 -0.9168
 6725TIP3   OH241809   1.983   3.628   8.357 -0.8469  0.1929  0.0209
 6725TIP3    H141810   2.026   3.709   8.385 -2.5528  1.6933 -1.4456
 6725TIP3    H241811   2.055   3.572   8.328  0.3556  1.3650  0.6169
 6726TIP3   OH241812   0.126   1.784   7.609 -0.3845 -0.4501  0.3067
 6726TIP3    H141813   0.136   1.821   7.522 -0.5646  1.3887  1.0291
 6726TIP3    H241814   0.184   1.835   7.665  0.5938 -2.3223  1.1141
 6727TIP3   OH241815   3.215   0.552   6.803 -0.0090  0.6316 -0.8574
 6727TIP3    H141816   3.190   0.641   6.826  1.6511  1.0155 -0.4292
 6727TIP3    H241817   3.280   0.527   6.869 -0.4822 -0.9211 -0.9402
 6728TIP3   OH241818   1.681   1.436   0.356  0.4076 -0.4802 -0.1749
 6728TIP3    H141819   1.641   1.509   0.404 -0.0556 -0.4641 -0.5721
 6728TIP3    H241820   1.751   1.475   0.305 -0.0744 -0.2455 -0.6669
 6729TIP3   OH241821   1.556   4.703   7.788 -0.7761  0.1598 -0.1631
 6729TIP3    H141822   1.524   4.703   7.698 -1.9695  0.2282  0.2325
 6729TIP3    H241823   1.643   4.663   7.783 -0.8538  0.0895 -1.3261
 6730TIP3   OH241824   4.042   2.310   7.454 -0.5841  0.4376  0.2558
 6730TIP3    H141825   4.042   2.264   7.370 -0.4966  1.9443 -0.6024
 6730TIP3    H241826   4.126   2.356   7.455 -1.2381  1.6533  0.4609
 6731TIP3   OH241827   3.824   4.284   0.016 -0.5230 -0.2315  0.1186
 6731TIP3    H141828   3.734   4.297   0.046 -0.2766  0.7948  0.4468
 6731TIP3    H241829   3.858   4.372   0.005  0.7683 -0.5996  0.9899
 6732TIP3   OH241830   5.124   5.049   2.206  0.1501  0.0851  0.5546
 6732TIP3    H141831   5.061   5.070   2.275  2.6055  0.3604  2.8639
 6732TIP3    H241832   5.175   4.977   2.242  2.7310  1.4646 -0.0915
 6733TIP3   OH241833   5.265   5.042   1.445  0.6167  0.8072  0.0587
 6733TIP3    H141834   5.273   5.094   1.525  2.2106  2.4689 -1.0931
 6733TIP3    H241835   5.173   5.016   1.441  0.4786  0.7947  2.3315
 6734TIP3   OH241836   3.302   4.487   8.744  0.0404  0.1119 -0.0457
 6734TIP3    H141837   3.389   4.448   8.734 -0.2346 -0.5284  0.0085
 6734TIP3    H241838   3.251   4.450   8.672 -0.4270 -0.2149  0.4444
 6735TIP3   OH241839   1.726   5.972   7.593 -0.1137  0.1634 -0.1222
 6735TIP3    H141840   1.642   5.978   7.639  0.4136 -2.0038  1.2534
 6735TIP3    H241841   1.703   5.934   7.508 -0.5547 -0.1485  0.1331
 6736TIP3   OH241842   2.241   3.722   1.190 -0.1945 -0.3393  0.1956
 6736TIP3    H141843   2.175   3.716   1.121  1.0843 -1.5835 -0.9814
 6736TIP3    H241844   2.296   3.796   1.164 -0.5280  0.0686  0.6407
 6737TIP3   OH241845   3.347   6.259   8.976  0.3930 -0.2356  0.7895
 6737TIP3    H141846   3.373   6.169   8.996 -1.0618 -0.5220  1.5054
 6737TIP3    H241847   3.304   6.254   8.891  0.5177 -0.1711  0.7211
 6738TIP3   OH241848   1.426   2.757   0.267 -0.4536  0.2271  0.0334
 6738TIP3    H141849   1.452   2.839   0.225 -3.5526  0.6449 -1.3045
 6738TIP3    H241850   1.479   2.691   0.224 -0.0219  1.2045 -0.9883
 6739TIP3   OH241851   6.426   1.969   7.381  0.4513 -0.0488  0.1250
 6739TIP3    H141852   6.493   2.031   7.353 -1.2876  1.8421 -0.1727
 6739TIP3    H241853   6.427   1.975   7.477  0.8644 -0.2262  0.1339
 6740TIP3   OH241854   0.817   5.771   6.665  0.1979  0.3180  0.1502
 6740TIP3    H141855   0.907   5.756   6.695 -0.1527 -1.4313  0.4588
 6740TIP3    H241856   0.809   5.715   6.588 -0.6637  0.3692  0.1994
 6741TIP3   OH241857   6.202   4.862   8.981  0.0285 -0.1881 -0.4246
 6741TIP3    H141858   6.243   4.932   9.032  1.0773 -1.0158 -0.0969
 6741TIP3    H241859   6.272   4.828   8.927 -0.1349 -1.8158  0.3331
 6742TIP3   OH241860   2.626   1.272   8.990  0.9456  0.4206 -0.2120
 6742TIP3    H141861   2.667   1.249   9.073 -0.1762  1.4821  0.6859
 6742TIP3    H241862   2.654   1.204   8.929  1.4643 -0.6260  1.1428
 6743TIP3   OH241863   1.023   4.263   0.722  0.0881 -0.5517 -0.0025
 6743TIP3    H141864   1.101   4.235   0.673 -0.7425  1.0751 -2.4250
 6743TIP3    H241865   0.972   4.183   0.734  1.6001 -1.4597  0.7213
 6744TIP3   OH241866   3.116   6.309   2.678  0.3006  0.6124 -0.5318
 6744TIP3    H141867   3.157   6.392   2.658 -1.9933  1.4752 -2.0978
 6744TIP3    H241868   3.177   6.265   2.737  2.7337  2.3186 -1.6362
 6745TIP3   OH241869   6.105   1.048   7.322 -0.6296 -0.1077 -0.0795
 6745TIP3    H141870   6.045   1.103   7.373  1.0562  0.4714  1.3999
 6745TIP3    H241871   6.189   1.095   7.325  0.1603 -1.3458 -1.2806
 6746TIP3   OH241872   3.280   5.054   9.091  0.5281 -0.4753  0.3997
 6746TIP3    H141873   3.364   5.020   9.061  0.7292 -1.4385  1.9838
 6746TIP3    H241874   3.296   5.087   9.179 -0.0807  2.2004 -0.3919
 6747TIP3   OH241875   0.412   2.341   8.253  0.5161  0.2177 -0.0330
 6747TIP3    H141876   0.394   2.432   8.228 -0.3479 -0.1844 -0.9709
 6747TIP3    H241877   0.325   2.304   8.270  0.7937 -0.6263 -0.3999
 6748TIP3   OH241878   6.215   4.239   7.244 -0.3170  0.6937 -0.8461
 6748TIP3    H141879   6.213   4.146   7.265  2.2223  0.2589 -2.0971
 6748TIP3    H241880   6.261   4.279   7.319 -1.2461  0.9415 -0.3944
 6749TIP3   OH241881   6.397   3.760   1.639  0.0230 -0.2534 -0.2133
 6749TIP3    H141882   6.364   3.834   1.589 -2.3263 -0.7982  0.3895
 6749TIP3    H241883   6.377   3.684   1.584  0.2224 -0.6117  0.2058
 6750TIP3   OH241884   3.117   3.279   6.930 -0.3966  0.0932 -1.0224
 6750TIP3    H141885   3.096   3.372   6.927 -0.5392  0.0472 -2.2543
 6750TIP3    H241886   3.151   3.260   6.842 -0.0188 -0.9340 -0.6707
 6751TIP3   OH241887   5.191   4.167   7.070 -0.1672 -0.1574  0.5017
 6751TIP3    H141888   5.282   4.136   7.079 -0.7280 -2.4291 -0.8180
 6751TIP3    H241889   5.155   4.114   6.999 -2.1736  1.6099  0.1042
 6752TIP3   OH241890   1.461   5.907   2.234  0.5490  0.3664  0.3702
 6752TIP3    H141891   1.499   5.870   2.154  0.9729  0.1398  0.6711
 6752TIP3    H241892   1.402   5.839   2.267  1.8292 -0.3463  1.2836
 6753TIP3   OH241893   2.644   4.279   8.273  0.6077 -0.0248  0.2557
 6753TIP3    H141894   2.703   4.298   8.345  0.4679 -0.1902  0.4177
 6753TIP3    H241895   2.577   4.347   8.278 -0.3811 -1.0060  1.3745
 6754TIP3   OH241896   1.529   3.953   8.366  0.3229  0.3510 -0.4210
 6754TIP3    H141897   1.468   3.930   8.296  0.4890 -0.6661 -0.2577
 6754TIP3    H241898   1.542   4.047   8.357 -0.1767  0.3466 -1.3349
 6755TIP3   OH241899   6.079   0.188   2.371 -0.5817  0.4474  0.1033
 6755TIP3    H141900   6.171   0.166   2.382 -0.6946 -0.4384 -0.5969
 6755TIP3    H241901   6.076   0.241   2.292 -0.7688 -0.2735 -0.3830
 6756TIP3   OH241902   2.453   6.067   8.966 -0.0257 -0.0782 -0.2139
 6756TIP3    H141903   2.364   6.041   8.990 -0.1037 -0.8532 -1.2759
 6756TIP3    H241904   2.478   6.007   8.896  0.4588  1.5801 -1.5473
 6757TIP3   OH241905   6.588   1.004   1.623  0.1706 -0.0789  0.3287
 6757TIP3    H141906   6.675   1.014   1.661 -0.2576 -0.5000  1.4682
 6757TIP3    H241907   6.528   1.023   1.695 -0.7277  1.6193 -0.7840
 6758TIP3   OH241908   5.159   4.955   7.686 -0.4243  0.7784  0.1103
 6758TIP3    H141909   5.128   4.867   7.665  2.0460 -0.0054 -0.6764
 6758TIP3    H241910   5.087   5.013   7.661 -2.7333 -1.0344  2.0535
 6759TIP3   OH241911   5.437   0.790   8.881 -0.3293 -0.5503 -0.7588
 6759TIP3    H141912   5.403   0.771   8.793  1.7271 -1.1473 -1.4844
 6759TIP3    H241913   5.470   0.705   8.912  0.8958  0.0630 -0.3239
 6760TIP3   OH241914   2.238   2.647   1.351  0.3514 -0.0950 -0.0787
 6760TIP3    H141915   2.282   2.595   1.418 -1.8850  0.0628  1.6187
 6760TIP3    H241916   2.251   2.597   1.270  1.5346 -1.2615  0.7886
 6761TIP3   OH241917   4.289   6.225   7.140 -0.0336  0.6574 -0.0713
 6761TIP3    H141918   4.271   6.286   7.069  2.7341  0.8169 -0.7457
 6761TIP3    H241919   4.376   6.190   7.120 -0.0153 -0.7958  2.2035
 6762TIP3   OH241920   5.437   2.168   0.961 -0.2443  0.7061  0.0624
 6762TIP3    H141921   5.370   2.201   0.901 -1.8569  0.9084  1.8749
 6762TIP3    H241922   5.520   2.200   0.925 -1.1387  0.8861 -1.9657
 6763TIP3   OH241923   0.910   4.299   7.004 -0.2167 -0.5464 -0.4829
 6763TIP3    H141924   0.861   4.297   6.922  2.0986 -0.7035 -1.9506
 6763TIP3    H241925   0.943   4.209   7.014  2.5088  0.2462 -1.4042
 6764TIP3   OH241926   5.807   3.559   1.190  0.2435 -0.4995  0.3447
 6764TIP3    H141927   5.889   3.511   1.174  0.1678 -0.1183 -1.3938
 6764TIP3    H241928   5.803   3.623   1.119 -1.8543 -0.8992  0.0570
 6765TIP3   OH241929   2.443   2.234   8.886 -0.0062  0.2897 -0.3367
 6765TIP3    H141930   2.499   2.296   8.932 -0.0108 -0.7656  1.1795
 6765TIP3    H241931   2.496   2.154   8.881 -0.9413 -0.3715  0.0947
 6766TIP3   OH241932   1.118   5.504   1.101 -0.0359 -0.0763 -0.6803
 6766TIP3    H141933   1.138   5.451   1.024  0.0960 -0.1391 -0.6022
 6766TIP3    H241934   1.084   5.442   1.165  4.8923 -1.1151  1.3751
 6767TIP3   OH241935   0.314   5.976   2.204 -0.0764  0.8820 -0.3962
 6767TIP3    H141936   0.356   5.942   2.283  2.1585 -0.8181 -2.1699
 6767TIP3    H241937   0.380   6.035   2.166  0.2867 -0.7931 -2.5702
 6768TIP3   OH241938   3.538   2.316   7.590  0.1317  0.0079  0.5319
 6768TIP3    H141939   3.481   2.392   7.597  0.4734  0.1948  1.4269
 6768TIP3    H241940   3.559   2.310   7.497  3.8218  3.8133  0.7977
 6769TIP3   OH241941   3.123   3.839   0.552 -0.3062  0.0167 -0.5974
 6769TIP3    H141942   3.115   3.932   0.573  0.4685 -0.1011  0.2723
 6769TIP3    H241943   3.178   3.837   0.474 -0.6789  0.3129 -0.8681
 6770TIP3   OH241944   0.429   2.709   7.866  0.5996 -0.3342  0.0207
 6770TIP3    H141945   0.424   2.797   7.903  0.9257 -0.4012  0.2347
 6770TIP3    H241946   0.449   2.723   7.774 -1.2513 -0.1382 -0.3820
 6771TIP3   OH241947   5.502   1.592   0.576 -0.5286  0.1931  0.2510
 6771TIP3    H141948   5.487   1.543   0.657 -1.5890  0.0182 -0.0460
 6771TIP3    H241949   5.567   1.541   0.528  0.1872  0.3465  1.0180
 6772TIP3   OH241950   1.619   0.005   1.685  0.9097 -0.7142  0.1018
 6772TIP3    H141951   1.694   0.056   1.654 -0.8239  1.3551 -0.9345
 6772TIP3    H241952   1.625   0.011   1.781  1.1075  0.9550  0.0216
 6773TIP3   OH241953   0.367   5.161   7.630 -0.1697  0.0563 -0.1947
 6773TIP3    H141954   0.386   5.251   7.604  1.6158  0.3655  1.9265
 6773TIP3    H241955   0.344   5.117   7.548  0.3263  2.0954 -1.4983
 6774TIP3   OH241956   0.391   4.119   7.541 -0.0222 -0.4408  0.3861
 6774TIP3    H141957   0.428   4.044   7.496  1.4853 -0.6280  1.8450
 6774TIP3    H241958   0.375   4.183   7.472 -1.6907 -2.1678 -0.9378
 6775TIP3   OH241959   0.089   0.522   1.019 -0.2765 -0.4842  0.1423
 6775TIP3    H141960   0.013   0.501   1.075 -0.4552 -1.7325 -0.5530
 6775TIP3    H241961   0.051   0.572   0.946 -0.4377 -1.1194 -0.2122
 6776TIP3   OH241962   5.395   5.619   8.518  0.5908  0.0645  0.0718
 6776TIP3    H141963   5.355   5.665   8.443 -0.7823 -0.7416  0.2762
 6776TIP3    H241964   5.447   5.550   8.478 -0.2242 -0.4309 -0.1607
 6777TIP3   OH241965   3.736   4.170   7.264  1.0573  1.0357  0.1102
 6777TIP3    H141966   3.801   4.105   7.289  0.8650 -0.3850 -2.7499
 6777TIP3    H241967   3.652   4.124   7.273  0.9114  0.8359 -1.8159
 6778TIP3   OH241968   2.801   1.729   7.562 -0.0777 -0.3135 -0.1279
 6778TIP3    H141969   2.720   1.769   7.593 -0.5704 -1.0308 -0.4529
 6778TIP3    H241970   2.848   1.799   7.518 -0.5381  0.1003  0.0340
 6779TIP3   OH241971   3.395   3.221   0.905 -0.1220 -0.7413 -0.8754
 6779TIP3    H141972   3.323   3.276   0.875 -0.7508 -0.6098  0.7580
 6779TIP3    H241973   3.357   3.168   0.975  1.5093 -0.1853  0.5017
 6780TIP3   OH241974   3.618   1.678   7.358  0.7121  0.0070  0.1787
 6780TIP3    H141975   3.708   1.659   7.382  0.4523 -1.8112 -0.1394
 6780TIP3    H241976   3.565   1.630   7.422 -0.0156  0.0952 -0.3441
 6781TIP3   OH241977   1.200   2.094   2.452  0.3456  0.4518 -0.2664
 6781TIP3    H141978   1.206   2.103   2.357  2.7028 -0.1471 -0.2444
 6781TIP3    H241979   1.278   2.140   2.485  0.7201 -1.1301  1.2039
 6782TIP3   OH241980   2.813   2.664   0.427  0.1092  0.0515  0.3017
 6782TIP3    H141981   2.862   2.737   0.389  0.5199 -0.3315  0.0895
 6782TIP3    H241982   2.874   2.591   0.426 -0.5397 -0.5009 -0.2121
 6783TIP3   OH241983   0.663   0.733   8.660  0.3538  0.0485 -0.3816
 6783TIP3    H141984   0.722   0.751   8.734  0.8718 -0.0467 -0.7694
 6783TIP3    H241985   0.626   0.647   8.679 -0.1121  0.3511  0.1503
 6784TIP3   OH241986   4.150   4.680   0.236  0.2828 -0.1359  0.2605
 6784TIP3    H141987   4.086   4.720   0.295  0.9303  0.2596  0.7160
 6784TIP3    H241988   4.224   4.658   0.293  0.7758 -0.0705 -0.3423
 6785TIP3   OH241989   5.704   3.169   7.575  0.0127 -0.1219  0.5230
 6785TIP3    H141990   5.656   3.229   7.517  1.8272  0.2262 -0.7108
 6785TIP3    H241991   5.746   3.107   7.515 -1.2068 -2.2315  1.7284
 6786TIP3   OH241992   5.538   3.288   8.091  0.3940 -0.0075 -0.0500
 6786TIP3    H141993   5.446   3.315   8.089  0.8611  1.6677 -1.5635
 6786TIP3    H241994   5.583   3.354   8.038  2.0414 -2.3620 -1.7889
 6787TIP3   OH241995   1.803   1.434   8.639  0.5205  0.7700 -0.0963
 6787TIP3    H141996   1.824   1.474   8.555  2.6794 -2.2013 -1.1472
 6787TIP3    H241997   1.740   1.365   8.617 -1.7824  2.2481  1.3909
 6788TIP3   OH241998   4.799   0.735   0.803  0.6221  0.4007 -0.4221
 6788TIP3    H141999   4.876   0.703   0.756  0.4550 -0.1418 -0.3373
 6788TIP3    H242000   4.765   0.805   0.749  1.3325  0.8290 -0.3277
 6789TIP3   OH242001   5.883   3.975   1.273 -0.1690 -0.1898 -0.2314
 6789TIP3    H142002   5.848   4.012   1.191 -0.1218  0.3609 -0.0082
 6789TIP3    H242003   5.822   4.005   1.340  0.5012  0.4411  0.1107
 6790TIP3   OH242004   5.005   4.373   7.020  0.1305  0.0717 -0.6036
 6790TIP3    H142005   5.044   4.286   7.033 -2.3502 -0.9921  0.2560
 6790TIP3    H242006   5.050   4.429   7.083  0.6228 -0.9631 -0.0012
 6791TIP3   OH242007   4.981   6.053   1.940 -0.2589  0.2881  0.0244
 6791TIP3    H142008   4.926   5.982   1.973 -2.1666  1.3465 -0.7086
 6791TIP3    H242009   4.942   6.132   1.977 -1.1584  1.3342 -2.9115
 6792TIP3   OH242010   5.072   2.094   7.174  0.3386  0.2309  0.5366
 6792TIP3    H142011   5.042   2.057   7.091  1.8995 -0.2077  0.1388
 6792TIP3    H242012   5.164   2.115   7.160  0.4616  0.7808  1.9510
 6793TIP3   OH242013   2.724   3.907   1.836  0.4341 -0.0411 -0.1907
 6793TIP3    H142014   2.781   3.874   1.905 -1.6643 -0.9299  1.2379
 6793TIP3    H242015   2.710   3.999   1.859 -0.8916 -0.5284  1.1119
 6794TIP3   OH242016   0.267   6.580   8.311 -0.6978  0.0479 -1.2491
 6794TIP3    H142017   0.220   6.496   8.311 -1.3162  0.3076  1.3693
 6794TIP3    H242018   0.198   6.646   8.308 -0.3086  0.4615 -1.2290
 6795TIP3   OH242019   4.020   2.254   9.128 -0.0413  0.0536 -0.5982
 6795TIP3    H142020   4.020   2.298   9.214 -1.1046  1.2213 -1.1603
 6795TIP3    H242021   3.978   2.317   9.069  0.6698 -0.7242 -1.9901
 6796TIP3   OH242022   5.184   4.316   2.204  0.8918 -0.9648 -0.1808
 6796TIP3    H142023   5.099   4.355   2.186  0.9012 -0.1007  1.4264
 6796TIP3    H242024   5.167   4.222   2.210  0.0266 -0.7960  0.1592
 6797TIP3   OH242025   4.737   3.030   7.741 -0.4266  0.1293 -0.0380
 6797TIP3    H142026   4.686   3.109   7.724 -1.3509 -0.8406 -2.2381
 6797TIP3    H242027   4.680   2.959   7.711  1.6293 -1.1062 -1.2705
 6798TIP3   OH242028   4.643   6.204   0.807 -0.5969 -0.8429 -0.3921
 6798TIP3    H142029   4.716   6.143   0.795 -0.3222 -0.6879  0.4238
 6798TIP3    H242030   4.619   6.230   0.718  0.7353 -0.4451 -0.6690
 6799TIP3   OH242031   6.378   1.972   1.889 -0.1785  0.4534 -0.0381
 6799TIP3    H142032   6.445   1.980   1.821 -1.8222  0.2490 -1.7498
 6799TIP3    H242033   6.359   1.879   1.893 -2.2265  0.7262 -1.5536
 6800TIP3   OH242034   4.169   4.641   9.047  0.3573 -0.1514 -0.5204
 6800TIP3    H142035   4.233   4.570   9.044 -0.2876 -0.8129  0.5489
 6800TIP3    H242036   4.143   4.645   9.140  0.6933  1.7609 -0.4707
 6801TIP3   OH242037   3.334   0.001   1.652 -0.3618  0.2943  0.2104
 6801TIP3    H142038   3.314  -0.034   1.565 -0.1134  0.8226 -0.0652
 6801TIP3    H242039   3.285   0.083   1.656 -1.5495 -0.4155  1.1383
 6802TIP3   OH242040   4.853   2.688   7.435 -0.3815  0.6796  0.1100
 6802TIP3    H142041   4.771   2.712   7.392 -0.4817  1.1960  0.5783
 6802TIP3    H242042   4.881   2.768   7.480  0.2036  0.4117  0.2358
 6803TIP3   OH242043   3.111   3.433   1.476  0.2494 -0.3507 -0.5894
 6803TIP3    H142044   3.055   3.472   1.543 -0.8365 -0.2263 -1.5272
 6803TIP3    H242045   3.067   3.454   1.393 -0.5011 -3.6440 -1.1851
 6804TIP3   OH242046   3.929   1.324   1.783 -0.7094  0.2078  0.0117
 6804TIP3    H142047   3.911   1.413   1.754 -0.2934  0.1416 -0.4507
 6804TIP3    H242048   4.003   1.295   1.730  0.5162  0.3192  1.5769
 6805TIP3   OH242049   1.078   0.083   1.157  0.2196 -0.5411 -0.3410
 6805TIP3    H142050   1.008   0.099   1.220  1.4547  1.2658  0.6645
 6805TIP3    H242051   1.034   0.087   1.072 -0.6805  2.8233  0.1212
 6806TIP3   OH242052   2.670   4.906   0.208 -0.5636  0.8634 -0.1862
 6806TIP3    H142053   2.756   4.928   0.172 -0.8323  0.8180 -0.8672
 6806TIP3    H242054   2.617   4.883   0.132  0.1883 -4.1377  0.4861
 6807TIP3   OH242055   2.935   2.963   2.099  0.7161  0.4445 -0.0791
 6807TIP3    H142056   2.975   3.040   2.058  0.1575  1.7242  1.6803
 6807TIP3    H242057   2.998   2.937   2.166  1.2301 -1.1206 -1.0987
 6808TIP3   OH242058   0.981   6.160   2.323 -0.1046  0.4224 -0.2104
 6808TIP3    H142059   1.048   6.093   2.333 -1.4453 -0.9540 -0.1719
 6808TIP3    H242060   0.964   6.164   2.229 -1.2147 -0.5312 -0.0704
 6809TIP3   OH242061   5.710   5.807   7.566 -0.0284 -0.4010 -0.4610
 6809TIP3    H142062   5.659   5.873   7.614  1.3700  1.0370 -0.8402
 6809TIP3    H242063   5.707   5.836   7.475  0.9550 -0.6208 -0.5725
 6810TIP3   OH242064   3.495   5.700   0.712  0.1505  0.3868 -0.2642
 6810TIP3    H142065   3.415   5.729   0.669  0.2145  0.4898 -0.3137
 6810TIP3    H242066   3.480   5.607   0.730 -0.8648  0.8827  1.7185
 6811TIP3   OH242067   4.197   1.563   0.010  0.3075 -0.3111 -0.4398
 6811TIP3    H142068   4.169   1.579   0.101  0.4407 -1.4036 -0.1810
 6811TIP3    H242069   4.170   1.641  -0.038  2.4839  1.4358  1.0076
 6812TIP3   OH242070   0.218   4.327   1.858  0.5506 -0.2893  0.3056
 6812TIP3    H142071   0.280   4.254   1.861  0.2835 -0.5473 -0.2513
 6812TIP3    H242072   0.136   4.290   1.892  1.0650  0.4648  2.5535
 6813TIP3   OH242073   0.882   5.844   0.982 -0.1585 -0.0959  0.4866
 6813TIP3    H142074   0.963   5.793   0.992 -0.6272 -1.0811 -0.5840
 6813TIP3    H242075   0.910   5.925   0.940  0.0747 -1.1674 -1.5348
 6814TIP3   OH242076   3.662   5.581   7.960 -0.7634 -0.5768  0.2651
 6814TIP3    H142077   3.634   5.550   7.875 -0.0250 -0.5649  0.0063
 6814TIP3    H242078   3.603   5.654   7.980 -0.3027  0.0944 -0.7149
 6815TIP3   OH242079   1.049   3.714   7.527 -0.0226  0.9386  0.3426
 6815TIP3    H142080   1.077   3.658   7.455 -1.6811  0.8938 -0.3062
 6815TIP3    H242081   1.058   3.659   7.605 -0.6177  0.1245 -0.1559
 6816TIP3   OH242082   4.107   1.332   1.248 -0.5198 -0.4781 -0.0569
 6816TIP3    H142083   4.193   1.369   1.268 -1.5767  2.2548 -0.1231
 6816TIP3    H242084   4.086   1.366   1.161 -1.3943 -1.6759 -0.3420
 6817TIP3   OH242085   5.861   5.500   7.974 -0.5681 -0.0475  0.5375
 6817TIP3    H142086   5.933   5.438   7.962 -0.1979  0.0349  2.0848
 6817TIP3    H242087   5.901   5.586   7.958 -0.6380 -0.0785  0.1814
 6818TIP3   OH242088   4.766   3.483   1.613  0.3761 -0.1732 -0.1698
 6818TIP3    H142089   4.728   3.519   1.533  1.5663 -0.5008 -0.9060
 6818TIP3    H242090   4.775   3.559   1.671  0.3350  0.2251 -0.6774
 6819TIP3   OH242091   3.216   2.835   1.805 -0.3132  0.3251  0.3060
 6819TIP3    H142092   3.262   2.779   1.742 -0.2169  1.5305 -0.7447
 6819TIP3    H242093   3.211   2.782   1.885  1.6898 -0.3679  0.0355
 6820TIP3   OH242094   0.222   6.328   0.837 -0.3378 -0.5389 -0.9163
 6820TIP3    H142095   0.199   6.236   0.822 -1.7600 -0.4214  0.4134
 6820TIP3    H242096   0.267   6.328   0.921 -1.5303  0.1321 -0.2540
 6821TIP3   OH242097   1.039   4.843   0.247 -0.0493  0.1720  0.5253
 6821TIP3    H142098   1.131   4.841   0.220 -0.4908  0.9280 -1.2000
 6821TIP3    H242099   0.994   4.888   0.175 -1.9651 -1.3205  0.7049
 6822TIP3   OH242100   6.245   0.194   0.647 -0.5445  0.3427  0.5635
 6822TIP3    H142101   6.255   0.117   0.703  1.1726  0.3018  0.2422
 6822TIP3    H242102   6.216   0.263   0.707 -1.4387 -0.3640  0.9738
 6823TIP3   OH242103   2.039   0.580   8.295 -0.2656  0.0553  0.0781
 6823TIP3    H142104   2.020   0.500   8.345 -3.2615 -0.5345 -1.7558
 6823TIP3    H242105   1.984   0.573   8.217  0.6324  3.1637 -0.9805
 6824TIP3   OH242106   4.597   2.444   0.337  0.7636  0.0443  0.2662
 6824TIP3    H142107   4.650   2.367   0.318  0.1299 -0.3924  0.2011
 6824TIP3    H242108   4.659   2.510   0.367  1.3268 -0.4674  0.2428
 6825TIP3   OH242109   1.572   1.733   8.819 -0.3214  0.1200  0.8169
 6825TIP3    H142110   1.621   1.815   8.811  1.2900 -0.6820  1.7627
 6825TIP3    H242111   1.636   1.671   8.857 -1.0476 -1.9384 -1.1099
 6826TIP3   OH242112   3.955   4.048   8.631  0.2329 -0.1232 -0.1955
 6826TIP3    H142113   3.961   4.142   8.614 -1.5341 -0.1382 -1.1208
 6826TIP3    H242114   4.035   4.028   8.679  0.5241  1.9018  0.2876
 6827TIP3   OH242115   0.195   3.239   8.331  0.2377  0.0614 -0.4647
 6827TIP3    H142116   0.257   3.250   8.259  1.9638  0.0983  0.9660
 6827TIP3    H242117   0.114   3.208   8.289  0.4835  2.1319 -2.6380
 6828TIP3   OH242118   2.190   0.554   1.632  0.2385  0.0471 -0.2408
 6828TIP3    H142119   2.154   0.627   1.581 -0.6814  0.1735  0.5457
 6828TIP3    H242120   2.218   0.490   1.567 -1.0025  0.1583 -0.9196
 6829TIP3   OH242121   4.165   5.750   7.696  0.0633  0.3686 -0.0960
 6829TIP3    H142122   4.101   5.690   7.660  0.5961  0.1827 -0.7488
 6829TIP3    H242123   4.143   5.755   7.789 -1.2528  0.7741 -0.4144
 6830TIP3   OH242124   2.065   1.599   8.550 -0.2251  0.2792 -0.2077
 6830TIP3    H142125   1.984   1.644   8.574  0.3034  0.3752  1.6071
 6830TIP3    H242126   2.133   1.645   8.599  0.4352 -2.0046  1.1791
 6831TIP3   OH242127   4.542   2.265   7.499  0.0325 -0.0286 -0.1227
 6831TIP3    H142128   4.591   2.345   7.514 -0.2574  0.0558  0.4059
 6831TIP3    H242129   4.581   2.227   7.420  3.1461 -1.6406  1.9925
 6832TIP3   OH242130   5.677   5.069   0.482  0.2656  0.4227  0.2384
 6832TIP3    H142131   5.710   4.984   0.451 -0.6553  0.3552 -0.6030
 6832TIP3    H242132   5.638   5.049   0.567 -1.8178 -0.4488 -0.8588
 6833TIP3   OH242133   0.603   5.200   1.315 -0.3127 -0.1108  0.0625
 6833TIP3    H142134   0.606   5.165   1.226  0.6819 -0.9250  0.4040
 6833TIP3    H242135   0.661   5.276   1.313 -1.2643  0.6324 -0.2818
 6834TIP3   OH242136   2.869   0.115   8.098  0.2884  0.1619  0.1472
 6834TIP3    H142137   2.823   0.062   8.033 -2.6630  2.8722 -0.1743
 6834TIP3    H242138   2.841   0.078   8.182 -4.2909  2.7176  0.0556
 6835TIP3   OH242139   2.095   6.699   9.110  0.5141  0.3476  0.3904
 6835TIP3    H142140   2.176   6.713   9.158  0.5178 -0.1505  0.5384
 6835TIP3    H242141   2.089   6.604   9.100  1.0109  0.4761 -1.4739
 6836TIP3   OH242142   1.400   3.374   0.885 -0.2560 -0.2881  0.0795
 6836TIP3    H142143   1.322   3.363   0.831  1.2683 -0.8431 -2.1106
 6836TIP3    H242144   1.469   3.326   0.840  1.9357  2.0207  0.6853
 6837TIP3   OH242145   2.133   5.787   0.509 -0.2066 -0.2107  0.4335
 6837TIP3    H142146   2.137   5.780   0.414  1.0250 -1.7897  0.5628
 6837TIP3    H242147   2.049   5.747   0.532 -1.3318  1.7377 -0.0562
 6838TIP3   OH242148   4.360   1.926   1.013 -0.2255  0.1561 -0.2483
 6838TIP3    H142149   4.439   1.882   0.982  0.5391  1.0940  0.3098
 6838TIP3    H242150   4.290   1.891   0.958  0.0576 -2.8496  1.1243
 6839TIP3   OH242151   3.873   3.373   6.618 -0.6823 -0.6769  0.2654
 6839TIP3    H142152   3.880   3.428   6.696  1.0636 -0.5736  0.0936
 6839TIP3    H242153   3.864   3.284   6.651 -0.3254 -0.5939  0.5930
 6840TIP3   OH242154   6.523   5.717   7.835  0.0395 -0.3570 -0.1867
 6840TIP3    H142155   6.618   5.720   7.838  0.0647 -1.1756  2.8741
 6840TIP3    H242156   6.495   5.739   7.924 -2.7101  0.8484 -1.2096
 6841TIP3   OH242157   6.002   3.121   8.310  0.0054  0.7101  0.5138
 6841TIP3    H142158   6.076   3.180   8.294  0.3390  0.0388 -0.4830
 6841TIP3    H242159   5.926   3.169   8.277  0.4059  0.2120 -1.2399
 6842TIP3   OH242160   5.665   6.378   0.291  0.5972 -0.4902  0.0300
 6842TIP3    H142161   5.662   6.464   0.250 -0.2659 -0.8204 -0.6334
 6842TIP3    H242162   5.750   6.376   0.336 -0.0819  1.3493  1.5077
 6843TIP3   OH242163   3.669   0.793   8.844 -0.0319 -0.3828 -0.3657
 6843TIP3    H142164   3.579   0.799   8.812  0.1706 -2.0011 -1.3591
 6843TIP3    H242165   3.718   0.758   8.770  0.9627 -1.7752  0.8999
 6844TIP3   OH242166   4.597   6.520   2.419 -0.6820  0.7517  0.6154
 6844TIP3    H142167   4.691   6.514   2.435 -0.6719  0.2165  0.3780
 6844TIP3    H242168   4.556   6.505   2.505 -0.5533  1.0027  0.7209
 6845TIP3   OH242169   0.164   4.336   7.933  0.1955 -0.5678  0.7744
 6845TIP3    H142170   0.182   4.269   7.867 -2.1912 -1.2629  0.7270
 6845TIP3    H242171   0.191   4.418   7.893  0.3474 -1.1710 -0.3967
 6846TIP3   OH242172   6.586   0.163   0.886 -0.4572  0.1295  0.0670
 6846TIP3    H142173   6.592   0.075   0.924  0.5531  0.3923  0.5228
 6846TIP3    H242174   6.510   0.202   0.929  0.3345  0.2198  1.4318
 6847TIP3   OH242175   6.652   0.718   9.109  0.3845  0.5176 -0.0246
 6847TIP3    H142176   6.745   0.730   9.128  0.7307 -2.2005  0.3495
 6847TIP3    H242177   6.651   0.666   9.028 -0.7938  0.0655  0.2638
 6848TIP3   OH242178   2.550   6.549   8.320 -0.1614  0.1941 -0.2004
 6848TIP3    H142179   2.587   6.539   8.408 -1.2933 -0.2779  0.2486
 6848TIP3    H242180   2.567   6.641   8.298  1.4706 -0.0592 -0.1433
 6849TIP3   OH242181   1.307   4.742   8.644  0.4459 -0.3113 -0.0288
 6849TIP3    H142182   1.330   4.724   8.736 -0.1915 -1.2262 -0.0301
 6849TIP3    H242183   1.387   4.727   8.595  1.2273  1.7328  0.5334
 6850TIP3   OH242184   4.081   3.290   7.522 -0.6543  0.2446 -0.6330
 6850TIP3    H142185   4.094   3.204   7.562  0.8069 -0.0996 -1.7609
 6850TIP3    H242186   4.092   3.352   7.594 -0.1740 -0.4534 -0.0946
 6851TIP3   OH242187   6.162   5.371   7.195  0.2415 -0.3470  0.0585
 6851TIP3    H142188   6.077   5.378   7.151  0.0693 -2.6674 -0.0832
 6851TIP3    H242189   6.150   5.304   7.262  1.8660 -0.4825  0.2650
 6852TIP3   OH242190   5.742   5.805   2.737 -0.3321 -0.5277 -0.4789
 6852TIP3    H142191   5.693   5.807   2.655 -0.1449 -1.7890 -0.6550
 6852TIP3    H242192   5.676   5.796   2.805 -0.4709  0.2374 -0.5050
 6853TIP3   OH242193   3.786   0.629   0.096 -0.1210 -0.3454 -0.2787
 6853TIP3    H142194   3.717   0.568   0.070  0.1324 -1.3403  1.2560
 6853TIP3    H242195   3.819   0.665   0.014 -1.0252 -1.4571 -1.1528
 6854TIP3   OH242196   3.777   3.181   8.206 -0.2566 -0.5792 -0.0074
 6854TIP3    H142197   3.833   3.110   8.238 -0.4854 -0.4831  0.6315
 6854TIP3    H242198   3.711   3.138   8.152 -0.2645 -0.8265  0.2002
 6855TIP3   OH242199   6.318   4.164   7.956 -0.8974  0.8613  0.1025
 6855TIP3    H142200   6.263   4.149   7.879  0.2851 -1.6736 -0.3461
 6855TIP3    H242201   6.405   4.136   7.929 -0.1434  1.3121  1.9283
 6856TIP3   OH242202   4.371   0.195   7.905  0.1419 -0.1550 -0.3586
 6856TIP3    H142203   4.381   0.106   7.873 -1.5230 -0.7206  0.5508
 6856TIP3    H242204   4.380   0.250   7.827  1.8525 -1.0293 -0.8213
 6857TIP3   OH242205   3.184   3.005   8.121  0.4014  0.2211  0.6539
 6857TIP3    H142206   3.132   2.978   8.196  1.9645 -1.5069  1.2140
 6857TIP3    H242207   3.162   3.097   8.107 -1.3925  0.0348  1.9617
 6858TIP3   OH242208   3.600   2.564   8.819 -0.3970  0.1645 -0.4973
 6858TIP3    H142209   3.534   2.631   8.800 -0.6807 -0.2280 -0.9138
 6858TIP3    H242210   3.619   2.525   8.734 -0.0844 -0.1440 -0.2825
 6859TIP3   OH242211   2.964   6.396   1.297 -0.4658 -0.1755 -0.1600
 6859TIP3    H142212   2.911   6.332   1.249  0.1541 -0.0787 -1.0008
 6859TIP3    H242213   2.916   6.478   1.288 -0.7537 -0.3178  0.0632
 6860TIP3   OH242214   5.450   2.609   1.307 -0.4628  0.1629  0.2228
 6860TIP3    H142215   5.463   2.566   1.222  0.3806 -2.0864  1.4115
 6860TIP3    H242216   5.503   2.688   1.302  1.0255 -0.8476 -0.7190
 6861TIP3   OH242217   2.339   4.482   0.533  0.4866  0.2686  1.1605
 6861TIP3    H142218   2.260   4.428   0.538  1.4754 -1.6060 -1.2718
 6861TIP3    H242219   2.307   4.571   0.519 -1.4415 -0.9366 -4.3665
 6862TIP3   OH242220   3.814   3.244   6.013 -0.2724 -0.2882  0.2602
 6862TIP3    H142221   3.808   3.296   5.933  1.1788  0.6104  0.6956
 6862TIP3    H242222   3.756   3.169   5.997 -3.2417  1.8628 -0.0248
 6863TIP3   OH242223   0.028   1.054   0.675  0.6380 -0.6441  0.0550
 6863TIP3    H142224  -0.018   0.984   0.628  0.4184 -0.4853  0.0305
 6863TIP3    H242225  -0.009   1.052   0.763 -2.6968  2.2910 -1.0124
 6864TIP3   OH242226   2.427   4.676   7.696  0.3355  0.0001  0.2313
 6864TIP3    H142227   2.490   4.677   7.768 -0.6788  0.3829  1.1398
 6864TIP3    H242228   2.428   4.765   7.662 -0.4343  0.2678  0.8980
 6865TIP3   OH242229   6.507   4.593   0.987  0.4766 -0.1560  0.3357
 6865TIP3    H142230   6.539   4.572   1.075  0.1622 -0.1345  0.4559
 6865TIP3    H242231   6.579   4.568   0.929  0.8069  0.1100  0.6230
 6866TIP3   OH242232   4.998   1.768   8.468  0.1093 -0.3064 -0.1723
 6866TIP3    H142233   4.945   1.833   8.423  1.6487 -0.1516 -1.8601
 6866TIP3    H242234   5.027   1.812   8.548  3.1083  2.1999 -2.3357
 6867TIP3   OH242235   0.001   2.756   7.690  0.2346  0.5747 -0.1268
 6867TIP3    H142236   0.004   2.665   7.721  1.4298  1.1565  1.6690
 6867TIP3    H242237  -0.070   2.757   7.627 -0.5208 -1.3883  0.5835
 6868TIP3   OH242238   3.641   2.852   8.331  0.0117  0.0390 -0.5765
 6868TIP3    H142239   3.651   2.915   8.402  0.9910 -1.6075  0.8286
 6868TIP3    H242240   3.673   2.769   8.367 -0.3233 -1.0768 -2.6486
 6869TIP3   OH242241   3.874   2.061   8.313 -0.2730 -0.4928 -0.0147
 6869TIP3    H142242   3.806   2.103   8.261 -0.7199 -0.6005  0.4783
 6869TIP3    H242243   3.911   2.131   8.367 -0.7888 -0.6540  0.5613
 6870TIP3   OH242244   3.267   1.936   1.540 -0.6698 -0.0586 -0.1180
 6870TIP3    H142245   3.259   1.860   1.483 -0.3922  0.0836 -0.3482
 6870TIP3    H242246   3.361   1.945   1.555 -0.7741 -0.5906  1.0285
 6871TIP3   OH242247   2.370   1.602   0.255  0.1789  0.3623  0.0259
 6871TIP3    H142248   2.299   1.545   0.283  0.0525  0.7180  0.4564
 6871TIP3    H242249   2.327   1.685   0.234  0.2255  0.0018 -1.6191
 6872TIP3   OH242250   3.268   1.281   0.120 -0.2870 -0.4057  0.7618
 6872TIP3    H142251   3.244   1.309   0.032 -1.0531 -0.5002  0.9299
 6872TIP3    H242252   3.261   1.185   0.117  1.5620 -0.5610  0.4016
 6873TIP3   OH242253   1.389   5.301   1.053 -0.1457  0.0704  0.0278
 6873TIP3    H142254   1.471   5.319   1.100 -0.1445  0.8428 -0.2633
 6873TIP3    H242255   1.374   5.208   1.068  0.7635 -0.0780  0.1215
 6874TIP3   OH242256   0.688   6.028   6.824 -0.0567  0.3130 -0.2851
 6874TIP3    H142257   0.661   5.967   6.755 -1.6598  0.4868  0.1525
 6874TIP3    H242258   0.783   6.032   6.816  0.1045 -2.1364 -0.4280
 6875TIP3   OH242259   3.033   0.399   8.956  0.2421  0.1763 -0.4858
 6875TIP3    H142260   2.979   0.406   8.878 -0.0138  0.1733 -0.3093
 6875TIP3    H242261   3.080   0.482   8.961 -0.8354  0.7666  0.1640
 6876TIP3   OH242262   6.326   0.876   0.378 -0.2181  0.3531 -0.6313
 6876TIP3    H142263   6.259   0.811   0.398 -1.2365  2.1139  2.3682
 6876TIP3    H242264   6.403   0.848   0.428 -0.5575  1.2160  0.4098
 6877TIP3   OH242265   2.505   0.696   1.116 -0.5885 -0.1931 -0.0711
 6877TIP3    H142266   2.441   0.702   1.187 -0.8565  0.4892 -0.3597
 6877TIP3    H242267   2.569   0.764   1.136 -0.1849 -0.5932 -0.0075
 6878TIP3   OH242268   0.203   2.260   9.054 -0.3495  0.6757  0.6950
 6878TIP3    H142269   0.214   2.355   9.045  0.5639  0.5831  0.7850
 6878TIP3    H242270   0.283   2.230   9.097 -1.4803  0.1199  2.5570
 6879TIP3   OH242271   3.676   0.156   7.365 -0.2324 -0.3729  0.1485
 6879TIP3    H142272   3.700   0.079   7.314  0.3453 -1.4432  1.9685
 6879TIP3    H242273   3.595   0.133   7.409 -1.0546  0.7682 -0.7037
 6880TIP3   OH242274   0.757   5.098   8.198 -0.4572 -0.4467 -0.5645
 6880TIP3    H142275   0.691   5.090   8.129  0.1103  0.8511 -1.2765
 6880TIP3    H242276   0.776   5.191   8.203  0.8812 -0.7290  0.0560
 6881TIP3   OH242277   2.521   2.782   7.384  0.2728  0.2704  0.1283
 6881TIP3    H142278   2.492   2.821   7.302 -0.4415  0.7934  0.6171
 6881TIP3    H242279   2.515   2.687   7.370 -0.0307  0.3596 -0.3568
 6882TIP3   OH242280   2.742   4.898   1.960 -0.7378 -0.6633  0.8121
 6882TIP3    H142281   2.813   4.850   2.002 -1.3512 -2.0923  0.2677
 6882TIP3    H242282   2.721   4.969   2.022  1.7229  0.3621  0.5734
 6883TIP3   OH242283   4.476   4.160   0.272 -0.4956  0.2753  0.1155
 6883TIP3    H142284   4.539   4.088   0.270  0.7510  1.3320  0.7717
 6883TIP3    H242285   4.391   4.116   0.274  0.2567 -1.2091  1.3342
 6884TIP3   OH242286   1.744   2.833   7.908 -0.0883  0.3536  0.3107
 6884TIP3    H142287   1.656   2.796   7.902 -0.5644  1.6249 -2.4041
 6884TIP3    H242288   1.795   2.784   7.843  1.0037  0.2094  1.2399
 6885TIP3   OH242289   1.261   4.592   0.523  0.3896 -0.2327 -0.0285
 6885TIP3    H142290   1.272   4.502   0.553  0.2626 -0.2683 -0.0888
 6885TIP3    H242291   1.271   4.588   0.428 -0.1713 -0.2744 -0.0941
 6886TIP3   OH242292   0.192   5.536   1.753 -0.2738 -0.1917 -0.6832
 6886TIP3    H142293   0.272   5.564   1.799  0.7463 -1.6413 -1.5015
 6886TIP3    H242294   0.196   5.581   1.669  1.1148 -2.2346 -1.8007
 6887TIP3   OH242295   5.561   0.736   0.963  0.4213  0.0348 -0.2689
 6887TIP3    H142296   5.472   0.704   0.977  0.0144  0.7423 -1.1696
 6887TIP3    H242297   5.556   0.789   0.884  1.6461  0.0996 -0.3247
 6888TIP3   OH242298   1.278   3.797   6.782 -0.4308  0.3368  0.5813
 6888TIP3    H142299   1.262   3.793   6.688 -0.6942 -0.5672  0.6532
 6888TIP3    H242300   1.368   3.765   6.792 -0.0539  1.3562  0.5590
 6889TIP3   OH242301   3.219   1.641   8.502 -0.4143  0.0992  0.1516
 6889TIP3    H142302   3.257   1.660   8.416 -0.8802 -0.6420 -0.2280
 6889TIP3    H242303   3.246   1.551   8.521  1.3522  0.8894  1.7083
 6890TIP3   OH242304   0.356   5.191   1.099 -0.2579  0.7472 -0.1154
 6890TIP3    H142305   0.333   5.213   1.189  2.1901  1.5820  0.3811
 6890TIP3    H242306   0.347   5.096   1.095 -1.1102  0.7661  0.7581
 6891TIP3   OH242307   2.584   4.671   7.102 -0.3638  0.4912  0.7948
 6891TIP3    H142308   2.545   4.669   7.190  0.5586 -0.2590  1.2088
 6891TIP3    H242309   2.519   4.716   7.048 -0.9398  0.9953  1.8644
 6892TIP3   OH242310   6.355   1.928   8.100  0.5063 -0.0628  0.1576
 6892TIP3    H142311   6.358   1.874   8.178 -1.2738 -1.5919 -0.7497
 6892TIP3    H242312   6.292   1.884   8.043 -0.5198  2.6024 -0.9270
 6893TIP3   OH242313   1.535   5.578   0.074  0.2234  0.2655 -0.6481
 6893TIP3    H142314   1.535   5.490   0.037 -1.1961  0.0535 -0.1800
 6893TIP3    H242315   1.516   5.566   0.167  1.9215  0.9439 -0.1634
 6894TIP3   OH242316   6.362   3.527   1.791 -0.0937  0.5582 -0.2331
 6894TIP3    H142317   6.289   3.495   1.738  0.7377 -0.8844 -0.5484
 6894TIP3    H242318   6.383   3.613   1.754 -1.0373  0.5959 -0.7114
 6895TIP3   OH242319   4.363   1.086   1.753  0.2599 -0.2430  0.7782
 6895TIP3    H142320   4.321   1.159   1.707  0.1013 -0.6699  0.2426
 6895TIP3    H242321   4.308   1.010   1.734 -0.5711 -0.1976  2.7524
 6896TIP3   OH242322   0.715   5.238   8.859 -0.3781 -0.3961 -0.1620
 6896TIP3    H142323   0.631   5.273   8.828 -0.3566  1.5341  1.6623
 6896TIP3    H242324   0.780   5.275   8.800 -0.4654  2.0259  1.1153
 6897TIP3   OH242325   3.704   3.530   0.077  0.2000 -0.2660  0.0516
 6897TIP3    H142326   3.662   3.614   0.056  0.8263  0.2608  0.8682
 6897TIP3    H242327   3.702   3.481  -0.005 -1.7404 -0.1471 -0.0154
 6898TIP3   OH242328   3.472   3.482   8.135  0.2977 -0.1066 -0.2509
 6898TIP3    H142329   3.504   3.565   8.168 -0.4255  0.5780 -1.1913
 6898TIP3    H242330   3.446   3.433   8.213  3.4398 -0.6900  0.5656
 6899TIP3   OH242331   4.141   6.237   8.464 -0.2255 -0.3465 -0.5260
 6899TIP3    H142332   4.162   6.323   8.428  0.9018  0.7662  2.4942
 6899TIP3    H242333   4.214   6.181   8.439  0.7972  0.5419  0.3528
 6900TIP3   OH242334   6.201   3.383   6.850  0.3686 -0.7980  0.1816
 6900TIP3    H142335   6.252   3.464   6.857 -1.6080  0.3604  2.2467
 6900TIP3    H242336   6.157   3.391   6.765  1.7558 -0.7222 -0.5640
 6901TIP3   OH242337   0.321   0.749   6.401  0.0279  0.0280 -0.7047
 6901TIP3    H142338   0.246   0.704   6.441  0.7758 -1.1416 -0.5380
 6901TIP3    H242339   0.288   0.835   6.376 -0.7549  0.4557  1.5350
 6902TIP3   OH242340   1.108   3.687   8.986  0.3179 -0.6675 -0.1064
 6902TIP3    H142341   1.154   3.613   8.947 -3.2913 -2.0110 -2.3336
 6902TIP3    H242342   1.072   3.735   8.911 -0.4921  1.2511  1.4193
 6903TIP3   OH242343   5.196   4.571   7.781 -0.5304  0.2503  0.3858
 6903TIP3    H142344   5.143   4.617   7.717 -1.0093  1.7512  1.7761
 6903TIP3    H242345   5.134   4.544   7.849  0.3189  1.5814  1.7887
 6904TIP3   OH242346   3.319   1.136   8.752  0.5966 -0.4929 -0.2424
 6904TIP3    H142347   3.358   1.146   8.839 -0.3836  1.9462  0.0025
 6904TIP3    H242348   3.232   1.100   8.769  1.3522 -2.5993 -0.5060
 6905TIP3   OH242349   6.136   0.896   0.132 -0.6440  0.2065 -0.4164
 6905TIP3    H142350   6.201   0.851   0.186 -0.7873 -0.2742 -0.6358
 6905TIP3    H242351   6.085   0.825   0.092 -0.3177  0.5463 -1.4534
 6906TIP3   OH242352   3.827   5.433   1.030 -0.1484  0.2205 -0.3208
 6906TIP3    H142353   3.739   5.414   1.063 -0.5769  1.4579 -0.7103
 6906TIP3    H242354   3.862   5.347   1.006 -2.1870 -0.1190 -2.4553
 6907TIP3   OH242355   2.489   1.712   7.950 -0.5615  0.3492 -0.7932
 6907TIP3    H142356   2.536   1.650   7.894 -0.4566  0.1494 -0.4810
 6907TIP3    H242357   2.544   1.790   7.949 -0.1211  0.0519 -0.2733
 6908TIP3   OH242358   4.426   0.010   6.815 -0.5726  0.5038 -0.1030
 6908TIP3    H142359   4.439   0.081   6.752 -2.3206 -0.4501 -1.6579
 6908TIP3    H242360   4.424   0.054   6.900 -2.8028  2.5803 -1.0900
 6909TIP3   OH242361   6.546   0.202   8.005 -0.3392  0.6964  0.3022
 6909TIP3    H142362   6.489   0.277   7.993 -1.0818  0.1550  0.3858
 6909TIP3    H242363   6.607   0.228   8.073  0.5351  1.8573 -0.8781
 6910TIP3   OH242364   2.266   0.502   8.763  0.2150  0.0979  0.3296
 6910TIP3    H142365   2.270   0.525   8.856  1.3585  1.2142  0.0251
 6910TIP3    H242366   2.173   0.482   8.748  0.3735 -2.7803  2.2930
 6911TIP3   OH242367   2.681   5.552   8.165 -0.2146 -0.2793  0.1126
 6911TIP3    H142368   2.696   5.466   8.127  1.4111 -0.0684  0.1952
 6911TIP3    H242369   2.687   5.613   8.092  3.7387  0.2104  0.6213
 6912TIP3   OH242370   2.932   3.244   1.913 -0.2830  0.2633 -0.2228
 6912TIP3    H142371   2.977   3.311   1.964  0.0524 -0.1416  0.0251
 6912TIP3    H242372   2.996   3.173   1.907 -1.0368 -0.5033  0.5040
 6913TIP3   OH242373   2.731   2.781   2.058  0.2396  0.4156  0.2125
 6913TIP3    H142374   2.810   2.826   2.090  0.3866 -0.9404  1.9613
 6913TIP3    H242375   2.756   2.744   1.974  0.5510  2.3577 -0.5849
 6914TIP3   OH242376   4.059   1.872   6.543  0.2911 -0.1659  0.2513
 6914TIP3    H142377   4.067   1.816   6.620 -0.1628  0.3728  0.7020
 6914TIP3    H242378   3.979   1.842   6.499  0.4562 -0.3599  0.0827
 6915TIP3   OH242379   6.465   0.617   7.461  0.3143  0.2869 -0.0120
 6915TIP3    H142380   6.434   0.706   7.448 -1.5015  0.0861  2.4132
 6915TIP3    H242381   6.536   0.625   7.525  0.3962  0.0239 -0.0682
 6916TIP3   OH242382   0.707   0.245   0.012 -0.5294 -0.4561 -0.0105
 6916TIP3    H142383   0.748   0.159   0.003  0.0275 -0.2056  0.1341
 6916TIP3    H242384   0.632   0.242  -0.047  0.5311 -0.3956 -1.3960
 6917TIP3   OH242385   1.022   4.425   7.998 -0.2424  0.3803  0.4371
 6917TIP3    H142386   0.951   4.366   8.022  0.7825 -0.7516  0.7635
 6917TIP3    H242387   1.076   4.375   7.936  1.7099  0.2148  2.1698
 6918TIP3   OH242388   5.020   5.808   6.701 -0.3274  0.0004  0.0858
 6918TIP3    H142389   5.081   5.879   6.720  1.0014 -1.2776  0.7902
 6918TIP3    H242390   4.933   5.846   6.713  0.3614  1.4244  0.6877
 6919TIP3   OH242391   5.185   0.419   8.573  0.0479  0.0301  0.0841
 6919TIP3    H142392   5.259   0.368   8.539  0.6465  0.2549  1.0175
 6919TIP3    H242393   5.116   0.406   8.508  0.3104 -1.6649  0.0858
 6920TIP3   OH242394   5.148   5.379   1.477  0.0891 -0.6060  0.8443
 6920TIP3    H142395   5.139   5.471   1.450 -2.1867 -0.3011  2.3931
 6920TIP3    H242396   5.099   5.330   1.411  0.1689 -0.5665  0.7557
 6921TIP3   OH242397   1.770   0.174   8.349  0.3027 -0.4796  0.3056
 6921TIP3    H142398   1.686   0.220   8.351 -0.4948 -1.7718 -1.0372
 6921TIP3    H242399   1.818   0.214   8.276 -0.0791 -1.2217 -0.3672
 6922TIP3   OH242400   1.464   1.420   1.422 -0.6216  0.0325 -0.1789
 6922TIP3    H142401   1.490   1.507   1.391 -1.1144  0.1151 -0.3707
 6922TIP3    H242402   1.451   1.369   1.342 -1.2562  0.0546 -0.0905
 6923TIP3   OH242403   2.589   0.542   1.741  0.0019 -0.0276 -0.1873
 6923TIP3    H142404   2.608   0.573   1.829  0.4477 -0.7823 -0.0015
 6923TIP3    H242405   2.581   0.621   1.688  2.1641  0.4052  0.0501
 6924TIP3   OH242406   0.498   5.328   8.290 -0.1243 -0.0108  0.3781
 6924TIP3    H142407   0.592   5.337   8.306  0.4609 -1.9100 -1.5626
 6924TIP3    H242408   0.472   5.253   8.342  0.1498 -1.3831 -1.3655
 6925TIP3   OH242409   6.073   3.165   0.901  0.0680 -0.0393 -0.3609
 6925TIP3    H142410   5.995   3.221   0.907 -1.0884 -1.6299  0.0014
 6925TIP3    H242411   6.070   3.130   0.812 -0.4947 -1.2884  0.1375
 6926TIP3   OH242412   2.013   2.741   9.053  0.0931 -0.4715  0.2011
 6926TIP3    H142413   2.084   2.765   9.113  0.6988 -0.3190 -0.5563
 6926TIP3    H242414   1.946   2.808   9.067  0.5561  0.0068  0.1600
 6927TIP3   OH242415   5.421   6.580   1.404 -0.1738 -0.0683 -0.3171
 6927TIP3    H142416   5.359   6.603   1.474  1.3097  1.6071  0.5444
 6927TIP3    H242417   5.367   6.573   1.325 -1.6661 -0.3268  0.6811
 6928TIP3   OH242418   3.395   6.079   2.080 -0.1469 -0.1478  0.3039
 6928TIP3    H142419   3.415   6.149   2.142  2.2468 -0.5168  0.0589
 6928TIP3    H242420   3.359   6.008   2.133  1.4139 -0.2786  1.2269
 6929TIP3   OH242421   2.446   1.429   2.467  0.0014  0.5461  0.0395
 6929TIP3    H142422   2.409   1.515   2.453  0.1910  0.7424  0.6896
 6929TIP3    H242423   2.413   1.376   2.395 -2.9044  0.2723  1.4388
 6930TIP3   OH242424   2.351   4.431   6.487 -0.3036 -0.0718  0.1621
 6930TIP3    H142425   2.320   4.497   6.549  2.3650  1.3940  0.0681
 6930TIP3    H242426   2.433   4.466   6.453 -0.9033 -1.4779 -3.1773
 6931TIP3   OH242427   5.610   1.654   9.027  0.3940 -0.2843  0.6068
 6931TIP3    H142428   5.594   1.709   8.951 -0.6555 -0.4705  0.6738
 6931TIP3    H242429   5.614   1.565   8.992  2.3214 -0.1810  0.4659
 6932TIP3   OH242430   2.980   1.505   0.808  0.1442  0.3336  0.4485
 6932TIP3    H142431   3.014   1.460   0.885  2.0852  1.0658  0.0741
 6932TIP3    H242432   3.046   1.571   0.788 -0.2230  0.0567 -1.9269
 6933TIP3   OH242433   4.005   3.344   0.654 -0.8043 -0.2885  0.4659
 6933TIP3    H142434   4.019   3.324   0.561  0.7235  1.6248  0.2331
 6933TIP3    H242435   3.936   3.410   0.654 -0.5060  0.0253  0.6584
 6934TIP3   OH242436   3.898   5.349   8.273 -0.5672  0.4901  0.4762
 6934TIP3    H142437   3.914   5.255   8.272 -0.6606  0.4769  0.2379
 6934TIP3    H242438   3.804   5.358   8.288 -0.2680  0.5785  2.6451
 6935TIP3   OH242439   1.042   2.656   1.311  0.1409  0.2313  0.1834
 6935TIP3    H142440   0.985   2.681   1.383  0.0656 -1.0069  0.5837
 6935TIP3    H242441   0.994   2.587   1.266  0.8353 -0.0346 -0.1576
 6936TIP3   OH242442   1.732   2.207   6.669 -0.1836  0.5749  0.8068
 6936TIP3    H142443   1.801   2.141   6.681 -0.0515  0.5226 -0.1747
 6936TIP3    H242444   1.742   2.236   6.578 -0.7255  1.4073  1.0027
 6937TIP3   OH242445   0.250   4.493   8.185 -0.1361  0.1178  0.4004
 6937TIP3    H142446   0.256   4.419   8.125  2.0500 -0.1867  0.9279
 6937TIP3    H242447   0.156   4.511   8.190 -0.4778 -0.4403 -2.3317
 6938TIP3   OH242448   0.838   1.749   2.167  0.4743  0.3979 -0.3452
 6938TIP3    H142449   0.898   1.675   2.177 -1.8327 -1.6814 -0.9732
 6938TIP3    H242450   0.870   1.814   2.230  1.0243 -2.2058  2.3065
 6939TIP3   OH242451   1.900   5.087   2.312 -0.2167  0.4205  0.5399
 6939TIP3    H142452   1.874   5.157   2.372  1.6786  0.3558  1.4884
 6939TIP3    H242453   1.965   5.036   2.360  0.3740 -0.4320 -1.0866
 6940TIP3   OH242454   2.635   3.299   7.571 -0.2676  0.0776 -0.0222
 6940TIP3    H142455   2.707   3.239   7.592 -0.7299 -0.5904 -0.3013
 6940TIP3    H242456   2.556   3.245   7.580 -0.6337  0.4075 -1.1349
 6941TIP3   OH242457   5.923   3.038   7.456  0.1393 -0.8531 -0.0626
 6941TIP3    H142458   5.960   3.109   7.508  0.1392 -2.3845  2.1669
 6941TIP3    H242459   5.976   3.037   7.376  0.6075  1.1367  0.1567
 6942TIP3   OH242460   6.025   2.298   7.480 -0.0102  1.1243  0.6352
 6942TIP3    H142461   5.941   2.342   7.471  0.3534  1.6669 -0.2356
 6942TIP3    H242462   6.048   2.272   7.391 -0.2264 -0.8813  1.1267
 6943TIP3   OH242463   5.606   2.906   7.631  0.1644  0.4183 -0.4144
 6943TIP3    H142464   5.680   2.867   7.584 -0.4952 -0.7917 -0.4901
 6943TIP3    H242465   5.634   2.996   7.649  2.7874 -0.7027  1.9768
 6944TIP3   OH242466   1.034   0.159   7.548 -0.2984  0.0252 -0.0177
 6944TIP3    H142467   1.117   0.163   7.502 -0.6784  1.3516 -0.6430
 6944TIP3    H242468   1.032   0.071   7.587  1.7905  0.2907  0.7957
 6945TIP3   OH242469   3.762   3.737   7.265 -0.0512  0.2486 -0.1351
 6945TIP3    H142470   3.743   3.683   7.341 -0.1745  1.4305  0.7078
 6945TIP3    H242471   3.836   3.791   7.292 -0.9393  1.6343 -0.3472
 6946TIP3   OH242472   5.132   2.439   1.100 -0.5099  0.1091  0.2622
 6946TIP3    H142473   5.084   2.519   1.122  1.4791  1.0877  1.4007
 6946TIP3    H242474   5.143   2.394   1.184 -0.0090 -0.3914 -0.0682
 6947TIP3   OH242475   4.424   5.860   0.958  0.3324  0.1536 -0.4625
 6947TIP3    H142476   4.345   5.842   0.906 -1.0698 -0.5842  1.7904
 6947TIP3    H242477   4.442   5.777   1.003  2.2950  0.3743 -0.7516
 6948TIP3   OH242478   6.326   3.332   0.861  0.0099 -0.2789  0.1026
 6948TIP3    H142479   6.283   3.251   0.888 -0.1844  0.3002  1.6748
 6948TIP3    H242480   6.414   3.325   0.896  0.4808 -0.4560 -1.0909
 6949TIP3   OH242481   1.247   0.451   1.569 -0.6590 -0.2671 -0.4286
 6949TIP3    H142482   1.261   0.522   1.632 -1.7287  1.7460 -2.2984
 6949TIP3    H242483   1.267   0.371   1.617 -0.3618  1.2242  2.0915
 6950TIP3   OH242484   1.561   6.671   0.740  0.1959 -1.3082 -0.3442
 6950TIP3    H142485   1.611   6.605   0.788 -0.4487 -1.0950  0.6531
 6950TIP3    H242486   1.470   6.656   0.766 -0.1533 -1.0628 -1.3709
 6951TIP3   OH242487   3.255   3.352   8.588 -0.0117 -0.3758 -0.0729
 6951TIP3    H142488   3.210   3.329   8.670  1.1947 -1.8639  0.2159
 6951TIP3    H242489   3.311   3.426   8.611 -0.3804 -0.1808  0.2056
 6952TIP3   OH242490   4.327   6.703   0.386 -0.0524  0.6603 -0.7267
 6952TIP3    H142491   4.392   6.637   0.362 -1.6692 -1.9069  1.4277
 6952TIP3    H242492   4.377   6.772   0.430  1.6698  0.9293 -2.9282
 6953TIP3   OH242493   4.073   6.353   6.836 -0.3766  0.0346 -0.4707
 6953TIP3    H142494   4.057   6.347   6.930 -0.3703 -0.6261 -0.5114
 6953TIP3    H242495   3.988   6.373   6.798 -0.7024 -1.3079 -0.4748
 6954TIP3   OH242496   4.248   5.387   0.581 -0.0669  0.1810  0.6125
 6954TIP3    H142497   4.194   5.343   0.647 -1.7186  0.0157 -0.7930
 6954TIP3    H242498   4.304   5.446   0.632  1.8726 -3.0173  2.5294
 6955TIP3   OH242499   6.412   3.927   8.719 -0.0111  0.0633 -0.0923
 6955TIP3    H142500   6.400   3.832   8.716 -2.0282  0.3024 -0.9126
 6955TIP3    H242501   6.401   3.955   8.628  3.1063  0.8804 -0.3376
 6956TIP3   OH242502   4.990   1.215   9.120 -0.0735 -0.0883  0.4850
 6956TIP3    H142503   4.896   1.228   9.135  0.1971  1.7876  0.8121
 6956TIP3    H242504   5.023   1.302   9.100  1.1426 -1.0980 -2.5361
 6957TIP3   OH242505   0.393   3.951   9.057 -0.3883  0.2722  0.4010
 6957TIP3    H142506   0.419   4.031   9.103  1.7455 -0.2798  0.2519
 6957TIP3    H242507   0.321   3.916   9.110 -1.3669  2.2392  0.4796
 6958TIP3   OH242508   3.001   3.654   0.377  0.1921 -0.5300  0.4714
 6958TIP3    H142509   3.046   3.706   0.444 -0.3865 -0.4986  0.8445
 6958TIP3    H242510   3.031   3.565   0.393 -0.0604 -0.5442  0.8689
 6959TIP3   OH242511   1.492   5.943   8.799 -0.0210  0.2357 -0.5967
 6959TIP3    H142512   1.415   5.996   8.782 -0.3501 -0.3329 -0.9105
 6959TIP3    H242513   1.481   5.913   8.890 -0.4888 -0.3604 -0.8456
 6960TIP3   OH242514   1.659   1.804   0.732 -0.1118 -0.2162 -0.2924
 6960TIP3    H142515   1.672   1.885   0.781 -1.3564  0.5438 -1.1442
 6960TIP3    H242516   1.746   1.767   0.723  0.6606  1.6206 -0.8614
 6961TIP3   OH242517   5.501   2.012   0.328  0.0818  0.0511  0.4039
 6961TIP3    H142518   5.522   2.001   0.236  1.1003  0.8760  0.5154
 6961TIP3    H242519   5.572   1.966   0.374 -1.1053 -1.4872  0.7976
 6962TIP3   OH242520   5.399   1.156   8.922 -0.5924  0.1743 -0.6566
 6962TIP3    H142521   5.415   1.096   8.995 -0.4216  0.4795 -0.4401
 6962TIP3    H242522   5.468   1.222   8.930 -0.8556  0.4710 -0.8177
 6963TIP3   OH242523   5.807   6.672   0.226 -0.1662 -0.3470 -0.8071
 6963TIP3    H142524   5.716   6.694   0.204  0.0216  1.0692 -0.2080
 6963TIP3    H242525   5.860   6.728   0.169  0.3203  0.7973  0.7342
 6964TIP3   OH242526   5.972   3.396   7.225  0.1038  0.4664 -0.5657
 6964TIP3    H142527   5.999   3.337   7.295  0.0199  1.5369  0.4097
 6964TIP3    H242528   5.948   3.477   7.271 -0.2551  1.0856 -1.8138
 6965TIP3   OH242529   3.889   2.181   1.319  0.0246  0.7595  0.2360
 6965TIP3    H142530   3.864   2.273   1.324 -0.2963  0.7178 -0.4243
 6965TIP3    H242531   3.933   2.163   1.402 -2.8957  0.6099  1.8722
 6966TIP3   OH242532   2.842   0.149   1.917  0.1784  0.5758  0.4192
 6966TIP3    H142533   2.893   0.203   1.977 -1.0239 -0.0170  2.0450
 6966TIP3    H242534   2.756   0.140   1.960 -0.2601 -1.0499 -0.7108
 6967TIP3   OH242535   5.808   5.134   1.892 -0.2401  0.2829  0.2867
 6967TIP3    H142536   5.850   5.070   1.949 -1.7538 -0.8076  0.2455
 6967TIP3    H242537   5.810   5.094   1.805  0.8706  1.3524 -0.2163
 6968TIP3   OH242538   0.384   0.595   8.120 -0.2840 -0.7438 -0.2195
 6968TIP3    H142539   0.335   0.584   8.038 -1.4759  0.6479  0.2764
 6968TIP3    H242540   0.410   0.687   8.121 -2.5343 -0.0461  2.1350
 6969TIP3   OH242541   6.126   3.547   0.916 -0.4236 -0.0000 -0.2149
 6969TIP3    H142542   6.068   3.544   0.840 -0.2579 -0.4537 -0.3286
 6969TIP3    H242543   6.184   3.472   0.904 -0.6844 -0.3416  0.5875
 6970TIP3   OH242544   3.692   1.882   7.628 -0.0606 -0.2057  0.5584
 6970TIP3    H142545   3.772   1.830   7.622 -0.5773 -1.1078  1.0383
 6970TIP3    H242546   3.721   1.972   7.634  0.8481 -0.3318 -1.4025
 6971TIP3   OH242547   3.635   2.415   2.293 -0.4355  0.4425  0.0944
 6971TIP3    H142548   3.559   2.357   2.297  0.7026 -1.0913  0.2889
 6971TIP3    H242549   3.684   2.386   2.216  0.2242  1.0562  0.2670
 6972TIP3   OH242550   1.735   2.302   1.224 -0.0181 -0.0002 -0.1017
 6972TIP3    H142551   1.665   2.267   1.279 -1.2950  2.8049  0.2048
 6972TIP3    H242552   1.795   2.343   1.286 -0.1511  0.9906 -0.6240
 6973TIP3   OH242553   4.523   0.361   0.659 -0.4442 -0.2809  0.2238
 6973TIP3    H142554   4.449   0.417   0.681 -0.1840  0.5292 -0.8414
 6973TIP3    H242555   4.485   0.287   0.612 -0.5981  0.1026 -0.2649
 6974TIP3   OH242556   2.932   4.916   0.130 -0.2462  0.9155  0.0984
 6974TIP3    H142557   2.933   4.852   0.059  2.5714 -0.2120  1.0154
 6974TIP3    H242558   2.937   5.000   0.086  1.3614  0.2435 -1.1088
 6975TIP3   OH242559   3.307   3.113   8.495 -0.0336 -0.6267 -0.6969
 6975TIP3    H142560   3.313   3.204   8.523 -1.1671 -0.1953 -1.7415
 6975TIP3    H242561   3.234   3.077   8.545  1.5748 -1.5708  1.1335
 6976TIP3   OH242562   3.899   3.036   7.152 -0.0441 -0.4180 -0.3471
 6976TIP3    H142563   3.949   3.007   7.228  0.9612  0.7024 -0.5655
 6976TIP3    H242564   3.808   3.017   7.176  0.3983 -1.7941  0.3562
 6977TIP3   OH242565   5.346   5.004   7.480 -0.0700  0.2574 -0.6053
 6977TIP3    H142566   5.261   5.004   7.436  0.3739  0.2186 -1.4788
 6977TIP3    H242567   5.328   5.039   7.567 -0.9637  0.3356 -0.8153
 6978TIP3   OH242568   3.463   4.970   0.999  0.4111 -0.2767  0.4848
 6978TIP3    H142569   3.409   4.891   0.999  1.2143 -0.8357  0.2687
 6978TIP3    H242570   3.494   4.979   1.089 -0.8008  0.5859  0.8341
 6979TIP3   OH242571   6.117   5.703   8.738 -0.3615  0.0887 -0.4425
 6979TIP3    H142572   6.212   5.703   8.727 -0.5466 -0.1794 -2.3808
 6979TIP3    H242573   6.093   5.795   8.747  0.1672  0.0976  1.5440
 6980TIP3   OH242574   3.704   3.586   7.508 -0.4198  0.6471  0.3521
 6980TIP3    H142575   3.745   3.544   7.584  0.9845 -1.3069 -1.3645
 6980TIP3    H242576   3.630   3.530   7.486 -0.2524  0.6676 -0.2772
 6981TIP3   OH242577   5.199   1.654   1.718 -0.0365 -0.3052  0.1801
 6981TIP3    H142578   5.281   1.662   1.669 -0.3283 -2.1022 -0.6877
 6981TIP3    H242579   5.227   1.637   1.808  0.5341  0.0830  0.0812
 6982TIP3   OH242580   3.167   6.386   0.676  0.2671 -0.1522 -0.5675
 6982TIP3    H142581   3.151   6.407   0.585 -1.4966  1.4052  0.0440
 6982TIP3    H242582   3.087   6.412   0.722  1.3145 -0.3339  1.5128
 6983TIP3   OH242583   4.449   2.467   2.032  0.1495  0.1158 -0.5979
 6983TIP3    H142584   4.383   2.534   2.054  0.4553 -0.2264  1.5800
 6983TIP3    H242585   4.419   2.389   2.078  0.4747 -0.9328 -2.1075
 6984TIP3   OH242586   4.469   4.323   7.362  0.0700  0.0093 -0.1328
 6984TIP3    H142587   4.540   4.334   7.299  0.9927 -1.9061  0.5054
 6984TIP3    H242588   4.512   4.323   7.447 -0.6894 -1.0149  0.2698
 6985TIP3   OH242589   1.688   1.425   8.191  0.1782 -0.3889  0.4679
 6985TIP3    H142590   1.764   1.375   8.159 -0.0788 -0.3607 -0.2157
 6985TIP3    H242591   1.614   1.367   8.176 -0.1306  0.2072 -0.3824
 6986TIP3   OH242592   0.927   0.686   1.233 -0.1555 -0.0012  0.1661
 6986TIP3    H142593   1.019   0.682   1.259  0.5582 -0.0793 -2.1515
 6986TIP3    H242594   0.881   0.632   1.298  1.5216 -0.5773  0.9264
 6987TIP3   OH242595   5.565   4.527   7.405  0.1347 -0.2020 -0.2487
 6987TIP3    H142596   5.610   4.562   7.482  0.7112  0.5940 -0.9392
 6987TIP3    H242597   5.472   4.544   7.422  0.1663 -0.8820  0.6879
 6988TIP3   OH242598   2.851   5.167   1.293 -0.1993 -0.0202  0.4414
 6988TIP3    H142599   2.925   5.164   1.354  1.3015 -2.3737 -1.2585
 6988TIP3    H242600   2.839   5.260   1.273  2.2531  0.4644  0.9056
 6989TIP3   OH242601   1.453   1.321   7.060 -0.1388 -0.5942  0.1254
 6989TIP3    H142602   1.369   1.366   7.063 -0.0710 -0.4794  0.4328
 6989TIP3    H242603   1.435   1.238   7.017  0.1666  0.6290 -2.5684
 6990TIP3   OH242604   3.950   2.110   6.634 -0.3040  0.3631 -0.4378
 6990TIP3    H142605   3.997   2.185   6.671 -1.4764  0.0429  1.8492
 6990TIP3    H242606   4.017   2.063   6.583  1.0227  1.6810  0.0090
 6991TIP3   OH242607   0.092   0.642   0.571 -0.0497  0.2683  0.4097
 6991TIP3    H142608   0.035   0.566   0.563  2.2844 -1.5057 -0.0379
 6991TIP3    H242609   0.106   0.671   0.481  0.4905  0.1345  0.4519
 6992TIP3   OH242610   3.366   3.731   7.421  0.1935  0.7447  0.3779
 6992TIP3    H142611   3.402   3.716   7.334 -0.5814 -1.0022  0.3045
 6992TIP3    H242612   3.315   3.812   7.413  0.1638  0.6219 -0.7869
 6993TIP3   OH242613   6.165   2.049   0.023  0.5557 -0.0907  0.8961
 6993TIP3    H142614   6.172   2.051  -0.072  0.1105  1.3996  0.8711
 6993TIP3    H242615   6.191   1.960   0.047  0.5986 -0.5127 -0.6120
 6994TIP3   OH242616   4.679   3.990   0.340 -0.1626 -0.2677  0.2889
 6994TIP3    H142617   4.720   4.024   0.419  1.1823 -0.2637 -0.3670
 6994TIP3    H242618   4.750   3.945   0.294 -0.5216  0.9330 -1.5856
 6995TIP3   OH242619   4.362   6.113   8.378 -0.1619 -0.1997 -0.7418
 6995TIP3    H142620   4.412   6.127   8.297 -0.5479  0.7852 -0.8211
 6995TIP3    H242621   4.421   6.064   8.435 -0.3786 -2.2026 -2.1184
 6996TIP3   OH242622   2.523   5.481   2.085 -0.2244  0.3749  0.0849
 6996TIP3    H142623   2.432   5.482   2.056 -0.0517  0.1765 -0.4849
 6996TIP3    H242624   2.520   5.442   2.173 -0.4357 -1.9393 -0.8732
 6997TIP3   OH242625   2.984   1.699   7.289  0.1004 -0.2461 -0.4744
 6997TIP3    H142626   3.047   1.745   7.233 -1.7383 -0.8104 -3.2086
 6997TIP3    H242627   2.903   1.700   7.239 -2.0394  0.1594  2.7575
 6998TIP3   OH242628   3.486   5.949   7.234  0.7275 -0.2970 -0.7813
 6998TIP3    H142629   3.552   5.880   7.228  1.0568  0.0985 -2.0624
 6998TIP3    H242630   3.465   5.970   7.143 -0.8242 -0.0727 -0.3988
 6999TIP3   OH242631   3.822   6.334   1.492  0.1264 -0.0291 -0.1360
 6999TIP3    H142632   3.806   6.244   1.462 -0.8636  0.4576 -1.1638
 6999TIP3    H242633   3.736   6.364   1.522  0.2463  0.8826 -0.6784
 7000TIP3   OH242634   5.519   0.879   0.258 -0.0990 -0.0907  0.1976
 7000TIP3    H142635   5.605   0.862   0.220  0.4028  0.9461  0.8123
 7000TIP3    H242636   5.469   0.918   0.187  0.0375 -0.3952 -0.0712
 7001TIP3   OH242637   6.728   0.093   7.300  0.0723 -0.3990  0.3313
 7001TIP3    H142638   6.783   0.028   7.255  0.0191 -0.2187  0.0050
 7001TIP3    H242639   6.790   0.157   7.334  0.4228 -2.0322  3.0931
 7002TIP3   OH242640   2.175   5.560   7.180  0.0180 -0.1005 -0.6512
 7002TIP3    H142641   2.095   5.552   7.129  0.3229  0.8808 -1.3164
 7002TIP3    H242642   2.146   5.569   7.270 -0.5227 -2.2445 -0.5548
 7003TIP3   OH242643   1.056   1.955   6.512  0.1850  0.4251  0.3023
 7003TIP3    H142644   1.007   1.913   6.441 -0.9538  0.1044  1.2675
 7003TIP3    H242645   0.990   1.995   6.567  1.1297  1.6724  0.5844
 7004TIP3   OH242646   0.584   5.681   8.733  0.1241  0.5809 -0.1945
 7004TIP3    H142647   0.622   5.600   8.766  0.2205  0.3300 -0.9081
 7004TIP3    H242648   0.544   5.722   8.810  1.7910  0.8441  0.5821
 7005TIP3   OH242649   4.802   5.570   1.946 -0.4428 -0.4807 -0.3671
 7005TIP3    H142650   4.864   5.499   1.962 -0.3304 -0.1790  0.6411
 7005TIP3    H242651   4.727   5.549   2.001 -0.5836 -0.0410 -0.3865
 7006TIP3   OH242652   1.593   4.703   8.685 -0.0234 -0.1748  0.0331
 7006TIP3    H142653   1.609   4.781   8.631  0.5301  0.3964  1.0005
 7006TIP3    H242654   1.678   4.683   8.724  0.1625 -2.0563 -1.1873
 7007TIP3   OH242655   6.463   4.776   7.901 -0.0252 -0.5634 -0.2768
 7007TIP3    H142656   6.392   4.820   7.947 -0.4972  0.2035 -1.6713
 7007TIP3    H242657   6.490   4.705   7.959 -1.1616 -0.1654  0.7687
 7008TIP3   OH242658   0.602   0.993   0.651 -0.2990 -0.1546  0.4877
 7008TIP3    H142659   0.559   0.998   0.737 -2.4127  0.6440 -0.5400
 7008TIP3    H242660   0.531   1.010   0.588  1.0436 -1.4025 -1.4605
 7009TIP3   OH242661   2.574   6.683   0.680 -0.0712 -0.0736 -0.6979
 7009TIP3    H142662   2.574   6.611   0.744  0.4122 -0.9943 -1.6996
 7009TIP3    H242663   2.663   6.716   0.681 -0.7592  2.0061  1.3151
 7010TIP3   OH242664   1.848   5.554   6.692  0.3964 -0.2181 -0.3594
 7010TIP3    H142665   1.828   5.634   6.644  0.0924 -0.4220 -0.5764
 7010TIP3    H242666   1.783   5.490   6.661  0.0592 -0.2941  0.4607
 7011TIP3   OH242667   2.091   4.335   6.457  0.3525  0.1101  0.3524
 7011TIP3    H142668   2.183   4.332   6.484  0.5731 -1.0778 -0.4428
 7011TIP3    H242669   2.080   4.257   6.403 -0.3922  1.7195 -1.9505
 7012TIP3   OH242670   1.661   3.049   1.161  0.4762 -0.2372  0.0502
 7012TIP3    H142671   1.736   3.005   1.202  2.2614  1.1937 -1.5094
 7012TIP3    H242672   1.689   3.139   1.150 -2.2236  0.8306  1.0386
 7013TIP3   OH242673   4.620   6.456   8.699  0.3309 -0.1425 -0.1285
 7013TIP3    H142674   4.667   6.519   8.644 -0.7591 -0.6607 -1.7113
 7013TIP3    H242675   4.553   6.508   8.743  1.1927  0.2684  0.7518
 7014TIP3   OH242676   1.734   1.689   1.443 -0.1008  0.4357 -0.0552
 7014TIP3    H142677   1.757   1.662   1.354  0.8576  1.3044 -0.0871
 7014TIP3    H242678   1.731   1.785   1.439 -2.2909  0.4466  0.3265
 7015TIP3   OH242679   3.137   4.402   1.096 -0.0422 -0.2709 -0.1312
 7015TIP3    H142680   3.211   4.365   1.047  0.3782  0.1131  0.2120
 7015TIP3    H242681   3.060   4.377   1.045  0.4719  1.4870 -1.8919
 7016TIP3   OH242682   4.721   2.115   0.501  0.0613  0.2735 -0.4651
 7016TIP3    H142683   4.640   2.066   0.485 -1.0229  1.5943  0.7294
 7016TIP3    H242684   4.735   2.163   0.419 -1.0359  0.9226 -0.3028
 7017TIP3   OH242685   5.363   0.718   8.024  0.0572 -0.3044  0.2157
 7017TIP3    H142686   5.329   0.647   7.969  0.3168 -0.0578 -0.2775
 7017TIP3    H242687   5.442   0.681   8.063  0.2540 -0.2523 -0.1289
 7018TIP3   OH242688   2.286   1.762   7.154 -0.1211 -0.1978  0.8491
 7018TIP3    H142689   2.285   1.681   7.206  0.7279 -0.8205 -0.0563
 7018TIP3    H242690   2.194   1.779   7.136 -0.5639  0.6983  3.4872
 7019TIP3   OH242691   1.297   1.289   0.362 -0.0368  0.1958 -0.3399
 7019TIP3    H142692   1.305   1.381   0.387 -0.3186  0.1651 -0.1239
 7019TIP3    H242693   1.384   1.264   0.332 -0.1453  0.7493 -1.1513
 7020TIP3   OH242694   2.078   4.321   8.950 -0.4907 -0.3420  0.0645
 7020TIP3    H142695   2.030   4.323   8.867 -0.1623 -2.3315 -0.2100
 7020TIP3    H242696   2.165   4.353   8.928 -0.7356  0.2433 -0.0923
 7021TIP3   OH242697   6.001   0.268   2.086 -0.6395 -0.1133 -0.3773
 7021TIP3    H142698   5.953   0.268   2.003  0.3856 -0.1383 -0.9795
 7021TIP3    H242699   6.018   0.360   2.104 -1.3075 -0.0726  0.0785
 7022TIP3   OH242700   2.306   2.911   6.465 -0.3637 -0.0349  0.6621
 7022TIP3    H142701   2.236   2.963   6.425 -0.1697  0.2348  0.6696
 7022TIP3    H242702   2.302   2.827   6.420 -0.4111  0.1275  0.3611
 7023TIP3   OH242703   6.121   1.890   1.652 -0.4518  0.2352 -0.0675
 7023TIP3    H142704   6.065   1.839   1.594  1.5792 -2.6779  0.2883
 7023TIP3    H242705   6.207   1.889   1.610  0.6750 -0.5060  2.0584
 7024TIP3   OH242706   5.653   5.720   0.632 -0.5297 -0.2710 -0.2551
 7024TIP3    H142707   5.717   5.650   0.616 -1.4335 -1.2274  0.1777
 7024TIP3    H242708   5.652   5.770   0.550  1.1287  0.0867 -0.0986
 7025TIP3   OH242709   2.892   2.892   0.315  0.0286  0.4124 -0.1441
 7025TIP3    H142710   2.964   2.934   0.268  0.3450  0.4492  0.3631
 7025TIP3    H242711   2.848   2.964   0.360 -1.5973  0.7018 -2.0589
 7026TIP3   OH242712   6.669   0.608   6.677 -0.3386  0.2675 -0.3365
 7026TIP3    H142713   6.653   0.658   6.597  0.3160  0.0963 -0.5777
 7026TIP3    H242714   6.764   0.605   6.685 -0.3916  0.7940  0.7717
 7027TIP3   OH242715   5.713   0.890   8.188  0.4606 -0.2464  0.0212
 7027TIP3    H142716   5.649   0.855   8.251  0.5683  0.0438  0.2962
 7027TIP3    H242717   5.792   0.839   8.204  0.9271  0.7720  1.1194
 7028TIP3   OH242718   6.555   1.849   1.299  0.0096  0.2452  0.2380
 7028TIP3    H142719   6.493   1.826   1.229  0.6262 -1.6758  0.2509
 7028TIP3    H242720   6.635   1.873   1.252  1.1845 -3.2298  0.1181
 7029TIP3   OH242721   6.659   1.450   7.249  0.1412  0.6415 -0.0267
 7029TIP3    H142722   6.705   1.441   7.166 -0.6122 -2.6195 -0.1992
 7029TIP3    H242723   6.710   1.398   7.312  0.1508  2.2392  1.3742
 7030TIP3   OH242724   0.388   4.781   2.599 -0.7678  0.2507 -0.5391
 7030TIP3    H142725   0.392   4.723   2.523  0.2519  0.0914 -0.3800
 7030TIP3    H242726   0.465   4.838   2.590  0.3774 -0.8896  1.2305
 7031TIP3   OH242727   1.876   4.938   8.284  0.0791 -0.0798  0.1540
 7031TIP3    H142728   1.841   4.855   8.251 -0.2476  0.3161 -0.5199
 7031TIP3    H242729   1.901   4.987   8.205 -2.8474  1.8344  0.2681
 7032TIP3   OH242730   3.013   1.614   0.476 -0.8830 -0.0378  0.2984
 7032TIP3    H142731   3.015   1.641   0.568  1.5263  0.0575  0.2927
 7032TIP3    H242732   3.070   1.677   0.432 -1.5648 -0.4229 -1.1824
 7033TIP3   OH242733   5.807   3.763   8.211 -0.0182 -0.2284 -0.3371
 7033TIP3    H142734   5.863   3.792   8.283  0.5172 -1.1929 -0.3450
 7033TIP3    H242735   5.814   3.832   8.145  1.2286 -0.3585 -0.3602
 7034TIP3   OH242736   4.510   2.774   7.858 -0.0667 -0.0057  0.0244
 7034TIP3    H142737   4.541   2.796   7.770  1.4581  0.4083  0.6241
 7034TIP3    H242738   4.576   2.812   7.916 -2.2580  1.8400  1.4737
 7035TIP3   OH242739   4.814   2.047   9.052  0.3734  0.1675 -0.2834
 7035TIP3    H142740   4.791   2.131   9.013  0.9008  1.2765  1.6688
 7035TIP3    H242741   4.775   2.049   9.140 -0.1146 -1.8866 -0.3988
 7036TIP3   OH242742   3.402   5.254   1.010  0.3325 -0.5147  0.0208
 7036TIP3    H142743   3.313   5.284   0.995  0.1221 -1.6071 -1.1652
 7036TIP3    H242744   3.396   5.158   1.006  1.5068 -0.6077  0.1599
 7037TIP3   OH242745   2.235   2.598   7.340 -0.1218  0.0800 -0.0550
 7037TIP3    H142746   2.321   2.605   7.297  0.5008 -1.0053  0.9383
 7037TIP3    H242747   2.179   2.657   7.291  2.0990  3.9648  1.6583
 7038TIP3   OH242748   6.128   2.314   7.822 -0.0253 -0.4256 -0.0704
 7038TIP3    H142749   6.071   2.236   7.819 -0.6784  0.0666 -0.7122
 7038TIP3    H242750   6.087   2.376   7.763  0.2231  0.6056  0.8176
 7039TIP3   OH242751   4.946   6.101   1.673 -0.2892  0.0254 -0.4988
 7039TIP3    H142752   4.940   6.092   1.768 -1.9035 -2.2401 -0.7443
 7039TIP3    H242753   4.855   6.105   1.643  0.0185 -2.6949 -2.1460
 7040TIP3   OH242754   6.155   2.590   0.853 -0.6439  0.3833  0.0129
 7040TIP3    H142755   6.198   2.509   0.881 -0.1863  0.6513  0.0890
 7040TIP3    H242756   6.096   2.612   0.925 -1.6424 -0.5029 -0.5014
 7041TIP3   OH242757   1.550   1.515   7.388  0.1263 -0.6446  0.4326
 7041TIP3    H142758   1.558   1.587   7.326 -1.7375  1.1625  2.1432
 7041TIP3    H242759   1.460   1.522   7.421  0.8561 -1.8855  2.8912
 7042TIP3   OH242760   1.566   4.847   1.853 -0.3024 -0.3275  0.1102
 7042TIP3    H142761   1.483   4.875   1.814  1.9517  1.3353 -4.1321
 7042TIP3    H242762   1.575   4.901   1.931 -3.3207 -0.9535  1.0552
 7043TIP3   OH242763   5.406   1.676   8.350 -0.4862  0.2106  0.7527
 7043TIP3    H142764   5.465   1.716   8.286 -0.6233 -0.2824  0.2996
 7043TIP3    H242765   5.318   1.702   8.321 -0.5894 -0.5706  0.3241
 7044TIP3   OH242766   1.348   4.238   0.959 -0.3341  0.3386 -0.3309
 7044TIP3    H142767   1.374   4.327   0.938  1.1683 -0.0144 -0.0710
 7044TIP3    H242768   1.424   4.184   0.936 -0.0028 -0.5110  2.3333
 7045TIP3   OH242769   5.517   3.111   7.253  0.1840 -0.1036  0.3633
 7045TIP3    H142770   5.569   3.190   7.240  1.3781 -0.8160  0.6635
 7045TIP3    H242771   5.581   3.041   7.262 -0.7837 -0.8293  2.0848
 7046TIP3   OH242772   0.962   1.532   7.982  0.4394 -0.1512 -0.6280
 7046TIP3    H142773   1.003   1.539   8.068 -0.3144 -0.5945 -0.2222
 7046TIP3    H242774   1.024   1.575   7.922  0.9893  0.1214  0.1219
 7047TIP3   OH242775   0.788   0.418   0.213 -0.7058  0.0508  0.4996
 7047TIP3    H142776   0.874   0.405   0.171 -0.7331  1.1136  0.0835
 7047TIP3    H242777   0.727   0.369   0.158 -0.6336  0.8576 -0.3367
 7048TIP3   OH242778   1.056   5.254   7.685 -0.0357  0.6877 -0.0191
 7048TIP3    H142779   0.973   5.230   7.725  0.6955 -1.4112  0.3515
 7048TIP3    H242780   1.054   5.213   7.598  0.0815  1.7609 -0.5460
 7049TIP3   OH242781   1.595   0.746   1.228 -0.4057  0.0179  0.5128
 7049TIP3    H142782   1.582   0.830   1.273 -0.1028  0.0774  0.4906
 7049TIP3    H242783   1.553   0.682   1.286  0.0564  0.0816  0.9284
 7050TIP3   OH242784   2.736   4.946   0.901 -0.4034  0.4063  0.7005
 7050TIP3    H142785   2.756   4.905   0.817  1.1208  0.3658  1.0516
 7050TIP3    H242786   2.662   5.004   0.882 -0.3015  0.1515 -0.5902
 7051TIP3   OH242787   2.621   0.856   1.327 -0.3126  0.2080 -0.0164
 7051TIP3    H142788   2.555   0.925   1.337 -0.2592  0.3942 -0.8708
 7051TIP3    H242789   2.589   0.784   1.381 -1.5496  0.0594 -0.9228
 7052TIP3   OH242790   0.312   5.296   2.530 -0.3884  0.8625  0.2706
 7052TIP3    H142791   0.274   5.212   2.556  1.8612 -0.3411  0.0158
 7052TIP3    H242792   0.354   5.329   2.609 -0.3038  1.1801  0.0945
 7053TIP3   OH242793   5.671   3.825   1.739  0.2009 -0.3268  0.0339
 7053TIP3    H142794   5.613   3.803   1.666  0.1578 -0.9425  0.2455
 7053TIP3    H242795   5.651   3.760   1.806  0.5272 -0.0148  0.4417
 7054TIP3   OH242796   4.448   4.052   0.754 -0.5934 -0.3860  0.2424
 7054TIP3    H142797   4.485   3.985   0.697  0.5327  0.6409 -0.2949
 7054TIP3    H242798   4.446   4.131   0.700 -1.5769  0.1048  0.9531
 7055TIP3   OH242799   0.865   6.208   0.521  0.1590  0.1012  0.0365
 7055TIP3    H142800   0.883   6.148   0.449 -0.1846 -0.5654  0.4873
 7055TIP3    H242801   0.859   6.294   0.481 -1.6718 -0.4522 -1.0036
 7056TIP3   OH242802   0.280   0.005   1.522 -0.2818  0.3050  0.2388
 7056TIP3    H142803   0.212   0.005   1.590 -0.0631  1.0489  0.4673
 7056TIP3    H242804   0.305   0.097   1.513  2.3927 -0.1397  1.8836
 7057TIP3   OH242805   0.140   5.484   7.520  0.2792  0.7818  0.4665
 7057TIP3    H142806   0.085   5.502   7.444  0.5845  0.8499  0.2599
 7057TIP3    H242807   0.094   5.414   7.567 -0.7720  1.8802  1.1285
 7058TIP3   OH242808   1.535   1.646   2.193 -0.7107 -0.3047  0.1204
 7058TIP3    H142809   1.488   1.572   2.154 -1.9779 -0.4278  1.7878
 7058TIP3    H242810   1.577   1.611   2.271  0.8351  0.2004 -0.4363
 7059TIP3   OH242811   2.104   6.238   7.979  0.8142 -0.2202 -0.2578
 7059TIP3    H142812   2.062   6.190   8.050  0.2394  1.3645  0.5119
 7059TIP3    H242813   2.033   6.288   7.938  1.4898  0.4259 -0.6650
 7060TIP3   OH242814   2.855   4.721   2.165  0.0291  0.4703  0.3058
 7060TIP3    H142815   2.876   4.762   2.249 -0.4101 -0.5903  0.9601
 7060TIP3    H242816   2.776   4.669   2.182 -0.5358  0.8577 -0.9728
 7061TIP3   OH242817   3.331   1.898   0.597  0.3217  0.3420  0.1541
 7061TIP3    H142818   3.415   1.933   0.629  0.0511  0.5823  0.6052
 7061TIP3    H242819   3.353   1.860   0.511  0.7795  0.9155  0.0079
 7062TIP3   OH242820   6.377   1.097   2.192  0.1719 -0.4531 -0.1124
 7062TIP3    H142821   6.445   1.044   2.151  0.0193  0.4387 -1.6302
 7062TIP3    H242822   6.415   1.185   2.197 -0.4604 -0.1803  0.0213
 7063TIP3   OH242823   5.681   2.880   7.260 -0.0215 -0.0608  0.6256
 7063TIP3    H142824   5.615   2.820   7.296 -0.1058 -0.5785 -0.3649
 7063TIP3    H242825   5.757   2.824   7.242 -0.0623  0.1317 -0.1993
 7064TIP3   OH242826   6.571   5.009   8.433  0.1796 -0.0037 -0.8474
 7064TIP3    H142827   6.513   4.990   8.506  1.7026  0.3136  0.4931
 7064TIP3    H242828   6.642   5.061   8.471  1.0002  0.2002 -2.5578
 7065TIP3   OH242829   4.739   4.449   8.202 -0.7603 -0.4231  0.7673
 7065TIP3    H142830   4.808   4.494   8.250  0.1755  0.6483 -1.4219
 7065TIP3    H242831   4.661   4.458   8.257 -0.1314  2.1475  1.3631
 7066TIP3   OH242832   2.566   1.027   7.935  0.0338 -0.5719  0.3019
 7066TIP3    H142833   2.544   0.935   7.925 -0.4593 -0.3115 -1.4347
 7066TIP3    H242834   2.489   1.074   7.901  1.4645  0.4209 -1.8044
 7067TIP3   OH242835   0.723   1.893   1.980 -0.1643  0.0693 -0.2565
 7067TIP3    H142836   0.798   1.845   2.016  0.6483  1.8847  0.5731
 7067TIP3    H242837   0.750   1.985   1.981 -1.4653  0.5388 -2.3026
 7068TIP3   OH242838   0.863   6.265   2.580  0.9373  0.2631 -0.3939
 7068TIP3    H142839   0.912   6.265   2.498  2.6996  1.6124  0.5801
 7068TIP3    H242840   0.903   6.195   2.632 -0.5721 -0.9889 -0.8793
 7069TIP3   OH242841   3.836   5.248   8.901  0.2726 -0.8924 -0.6465
 7069TIP3    H142842   3.922   5.272   8.867  0.6196  0.6612  1.1588
 7069TIP3    H242843   3.835   5.283   8.990 -1.3478 -2.9407  0.2261
 7070TIP3   OH242844   4.195   0.298   8.471 -0.4771  0.3619 -0.2524
 7070TIP3    H142845   4.224   0.366   8.533 -0.1853  2.1069 -2.2116
 7070TIP3    H242846   4.267   0.292   8.408 -2.0697  0.9516 -2.2156
 7071TIP3   OH242847   5.886   2.783   0.030  0.4922 -0.8697  0.4475
 7071TIP3    H142848   5.968   2.828   0.011 -1.0425  1.2631 -1.6494
 7071TIP3    H242849   5.902   2.692   0.005  2.6503 -0.8496  1.5752
 7072TIP3   OH242850   1.371   4.683   6.763 -0.8421 -0.1631 -0.0112
 7072TIP3    H142851   1.351   4.595   6.731 -3.4529  0.4625 -0.3296
 7072TIP3    H242852   1.290   4.732   6.751 -0.3196  1.5794  2.6683
 7073TIP3   OH242853   0.802   3.178   7.833 -0.3796  0.1052  0.3748
 7073TIP3    H142854   0.812   3.187   7.738  1.9054  2.3624  0.7350
 7073TIP3    H242855   0.761   3.259   7.861 -3.7041 -1.6535  1.1494
 7074TIP3   OH242856   0.154   5.045   2.086  0.0086  0.4030  0.4589
 7074TIP3    H142857   0.137   5.064   2.178 -1.1004 -1.8795  0.7985
 7074TIP3    H242858   0.233   4.991   2.087  0.7139  1.3946 -0.0717
 7075TIP3   OH242859   1.497   3.134   0.468 -0.5466 -0.3856 -0.2444
 7075TIP3    H142860   1.494   3.147   0.562  2.5303  0.2198 -0.1115
 7075TIP3    H242861   1.444   3.057   0.452 -0.1045 -1.2713  2.1779
 7076TIP3   OH242862   0.057   6.626   1.250 -0.0785 -0.3401  0.2717
 7076TIP3    H142863   0.055   6.692   1.320 -1.8577 -0.9500  0.8521
 7076TIP3    H242864   0.133   6.650   1.197  0.3595  1.1128  1.4765
 7077TIP3   OH242865   4.588   1.494   7.146 -0.3676 -0.3732 -0.5098
 7077TIP3    H142866   4.637   1.427   7.099  1.2907 -0.3786  1.1049
 7077TIP3    H242867   4.585   1.569   7.086  1.6060 -0.3991 -0.7133
 7078TIP3   OH242868   4.662   1.018   1.778  0.0141  0.1500 -0.2830
 7078TIP3    H142869   4.577   1.060   1.784 -0.0596  0.2475 -1.6663
 7078TIP3    H242870   4.694   1.041   1.690  0.4282 -1.8063 -0.6881
 7079TIP3   OH242871   1.649   3.816   8.581  0.3743 -0.0177 -0.3254
 7079TIP3    H142872   1.672   3.898   8.624  1.0188  0.0798 -0.8477
 7079TIP3    H242873   1.592   3.841   8.508  1.9436  0.1600 -1.5384
 7080TIP3   OH242874   2.246   5.772   0.964  0.2711  0.0468  0.1238
 7080TIP3    H142875   2.303   5.772   0.887 -0.3269 -1.3489 -0.3671
 7080TIP3    H242876   2.188   5.847   0.951  0.6395  0.2437 -0.4328
 7081TIP3   OH242877   4.456   4.676   8.655 -0.3134 -0.1034 -0.0109
 7081TIP3    H142878   4.444   4.582   8.645 -0.7254  0.0196 -0.6648
 7081TIP3    H242879   4.458   4.689   8.750  1.7056 -1.0131  0.1382
 7082TIP3   OH242880   6.437   0.904   1.043 -0.6224  0.2358  0.1380
 7082TIP3    H142881   6.441   0.973   1.110  0.1447  0.2139  0.1276
 7082TIP3    H242882   6.424   0.823   1.092 -1.9209  0.4153  0.1256
 7083TIP3   OH242883   1.122   0.360   0.852  0.1663  0.5410 -0.0546
 7083TIP3    H142884   1.209   0.398   0.840 -0.7475  2.2746 -1.8169
 7083TIP3    H242885   1.082   0.416   0.919 -0.2453  1.0246 -0.6898
 7084TIP3   OH242886   2.251   1.455   8.784 -0.8939 -0.1340  0.2859
 7084TIP3    H142887   2.168   1.413   8.805 -1.9011  0.1009 -2.6967
 7084TIP3    H242888   2.238   1.547   8.804 -1.6650  0.0148 -0.7684
 7085TIP3   OH242889   5.814   5.425   1.767  0.5247  0.0347 -0.1060
 7085TIP3    H142890   5.789   5.352   1.823 -2.3566  0.6410 -0.4137
 7085TIP3    H242891   5.787   5.503   1.816  0.3870  0.7086 -1.2126
 7086TIP3   OH242892   1.338   0.908   6.499 -0.2467 -0.3797 -0.1387
 7086TIP3    H142893   1.276   0.854   6.450 -0.4872 -0.3485  0.1289
 7086TIP3    H242894   1.323   0.885   6.591 -2.9496  2.7429  0.3867
 7087TIP3   OH242895   5.939   2.033   0.524 -0.1280  0.3325  0.4034
 7087TIP3    H142896   6.019   1.999   0.564 -1.2710  0.1832  2.7097
 7087TIP3    H242897   5.901   1.957   0.479 -0.5846 -0.4588  2.0597
 7088TIP3   OH242898   5.908   4.687   8.707  0.5626  0.0332 -0.1053
 7088TIP3    H142899   5.891   4.777   8.680 -1.2783 -0.3901 -0.4932
 7088TIP3    H242900   5.880   4.683   8.798  0.6788 -0.1230 -0.0762
 7089TIP3   OH242901   5.996   0.667   0.079  0.0503 -0.0226 -0.4029
 7089TIP3    H142902   6.050   0.589   0.093  0.0526 -0.2732 -1.7153
 7089TIP3    H242903   5.928   0.638   0.018  0.1944  1.0635 -1.0993
 7090TIP3   OH242904   5.143   4.572   7.179  0.0549 -0.6379 -0.3641
 7090TIP3    H142905   5.213   4.558   7.115 -0.5112  0.5938 -1.2845
 7090TIP3    H242906   5.156   4.662   7.209 -1.0971 -0.4044 -0.5189
 7091TIP3   OH242907   1.778   2.244   0.942 -0.0466 -0.7926  0.2202
 7091TIP3    H142908   1.758   2.255   1.035 -1.1651 -2.4885  0.2350
 7091TIP3    H242909   1.764   2.331   0.904  0.4912 -0.0590  1.6344
 7092TIP3   OH242910   1.746   1.814   7.748 -0.2463  0.4377 -0.0435
 7092TIP3    H142911   1.661   1.811   7.704  0.2519 -0.1945 -1.0050
 7092TIP3    H242912   1.726   1.840   7.837 -1.5011 -0.0883 -0.1513
 7093TIP3   OH242913   5.832   5.639   2.435 -0.6849 -0.3768 -0.2450
 7093TIP3    H142914   5.895   5.708   2.455 -1.4295  0.2866 -0.1079
 7093TIP3    H242915   5.757   5.686   2.398 -1.3240 -1.0829  0.1325
 7094TIP3   OH242916   4.765   2.013   7.322 -0.0391  0.1869 -0.1263
 7094TIP3    H142917   4.748   1.926   7.357 -0.8221  0.5256  0.3595
 7094TIP3    H242918   4.841   2.044   7.371 -1.1259  0.6584  1.3227
 7095TIP3   OH242919   1.813   3.359   0.126 -0.0035  0.4594  0.1301
 7095TIP3    H142920   1.734   3.313   0.154 -0.1560  0.8062  0.2695
 7095TIP3    H242921   1.801   3.448   0.158  0.3785  0.5475  0.0223
 7096TIP3   OH242922   6.113   5.941   8.511  0.0836 -0.2174 -0.3886
 7096TIP3    H142923   6.122   5.849   8.486 -0.0422 -0.6377  1.0115
 7096TIP3    H242924   6.030   5.944   8.559  1.1013  0.1425  1.4630
 7097TIP3   OH242925   5.508   2.327   8.027 -0.2810  0.6049 -0.0532
 7097TIP3    H142926   5.481   2.288   8.111  1.0778  0.8252  0.5171
 7097TIP3    H242927   5.479   2.418   8.032 -0.9794  0.3927 -0.1989
 7098TIP3   OH242928   6.673   4.034   1.617  0.6023  0.8023  0.1714
 7098TIP3    H142929   6.690   4.127   1.602 -1.3637  0.9021 -2.0788
 7098TIP3    H242930   6.691   4.020   1.710  3.4891  2.7823  0.0318
 7099TIP3   OH242931   5.522   0.311   7.696 -0.0861  0.3290  0.9798
 7099TIP3    H142932   5.472   0.270   7.625 -0.9646 -0.1098  1.8387
 7099TIP3    H242933   5.606   0.333   7.656 -1.3306  2.1929 -0.8800
 7100TIP3   OH242934   0.785   2.185   8.439 -0.4094 -0.2487 -0.4407
 7100TIP3    H142935   0.820   2.235   8.513 -0.6050 -1.7347  0.7127
 7100TIP3    H242936   0.778   2.249   8.368  0.0576  1.1653  0.7295
 7101TIP3   OH242937   5.279   3.044   7.348  0.3146 -0.2053  0.8330
 7101TIP3    H142938   5.308   2.990   7.421  1.2651 -0.4432  0.3034
 7101TIP3    H242939   5.361   3.072   7.305 -0.2192 -0.2905 -0.2822
 7102TIP3   OH242940   0.090   1.684   0.779 -0.2069  0.2102  0.1953
 7102TIP3    H142941   0.041   1.766   0.777  0.6309  0.8651 -4.2677
 7102TIP3    H242942   0.060   1.636   0.702  2.0683 -1.9410  0.4995
 7103TIP3   OH242943   4.798   0.629   1.044  0.2440  0.3970 -0.3669
 7103TIP3    H142944   4.720   0.574   1.047  1.4986 -1.4970 -0.7671
 7103TIP3    H242945   4.815   0.642   0.950  1.2546 -0.5259 -0.3345
 7104TIP3   OH242946   1.086   5.998   8.947 -0.4327  0.2668 -0.3601
 7104TIP3    H142947   1.025   5.953   8.889 -1.4665 -0.5624  1.2973
 7104TIP3    H242948   1.093   5.941   9.024  2.0356  0.5913 -0.2492
 7105TIP3   OH242949   5.287   4.787   0.234  0.4324  0.1962 -0.2042
 7105TIP3    H142950   5.251   4.874   0.249 -0.2525 -0.0845 -0.1486
 7105TIP3    H242951   5.381   4.800   0.222  0.2058  1.0436 -1.1516
 7106TIP3   OH242952   4.441   3.986   7.517 -0.2750 -0.0371 -0.1436
 7106TIP3    H142953   4.357   4.003   7.561  0.3664  1.7109  0.4719
 7106TIP3    H242954   4.483   4.071   7.511  1.6595 -0.9269 -0.0713
 7107TIP3   OH242955   6.354   3.046   0.871 -0.5858  0.0407 -0.1887
 7107TIP3    H142956   6.377   3.065   0.780  0.4182 -0.6764 -0.0961
 7107TIP3    H242957   6.373   2.953   0.882  0.2840  0.3302  1.0407
 7108TIP3   OH242958   1.186   1.094   6.780 -0.1755  0.0523 -0.3518
 7108TIP3    H142959   1.129   1.118   6.707  0.9610 -1.5820 -1.8690
 7108TIP3    H242960   1.214   1.004   6.760  2.3921  0.5535  0.6316
 7109TIP3   OH242961   4.138   3.075   8.625  0.1925 -0.3097  0.1293
 7109TIP3    H142962   4.116   3.153   8.574  0.4418 -0.9112 -0.9355
 7109TIP3    H242963   4.056   3.027   8.633  0.1459 -0.1974  0.3153
 7110TIP3   OH242964   3.230   1.217   2.133  1.0266 -0.2761 -0.0736
 7110TIP3    H142965   3.208   1.201   2.225 -3.2427  2.7566 -0.2152
 7110TIP3    H242966   3.325   1.225   2.132  1.5929 -3.5968  3.3458
 7111TIP3   OH242967   1.508   3.979   8.955  0.7845 -0.5276  0.2232
 7111TIP3    H142968   1.458   3.997   8.876  2.9229  2.5090 -0.6211
 7111TIP3    H242969   1.460   3.909   8.999 -1.2423 -1.3708 -3.0208
 7112TIP3   OH242970   3.618   6.619   0.259 -0.4806  0.3374 -0.0836
 7112TIP3    H142971   3.531   6.641   0.225 -0.6195 -1.1071 -0.6939
 7112TIP3    H242972   3.607   6.622   0.354 -0.9290  1.1527 -0.1474
 7113TIP3   OH242973   1.593   1.395   9.055  0.4650 -0.3441  0.1098
 7113TIP3    H142974   1.688   1.382   9.061  0.5390 -0.7040 -1.4379
 7113TIP3    H242975   1.582   1.477   9.009  0.0329 -0.7189 -0.4687
 7114TIP3   OH242976   6.003   2.262   7.205  0.3052  0.2927 -0.3119
 7114TIP3    H142977   5.952   2.338   7.176  0.8799  1.0032  0.4887
 7114TIP3    H242978   6.024   2.215   7.125  0.7030  1.4599 -0.9105
 7115TIP3   OH242979   3.106   6.557   7.337 -0.0296  0.2743  0.3843
 7115TIP3    H142980   3.128   6.572   7.430 -0.3979  0.8416  0.3894
 7115TIP3    H242981   3.014   6.581   7.331  0.1015  0.6448 -0.2134
 7116TIP3   OH242982   2.721   6.145   7.011  0.2443  0.1244  0.3345
 7116TIP3    H142983   2.659   6.129   6.939 -0.0097 -0.7774  0.7332
 7116TIP3    H242984   2.730   6.240   7.015 -1.5693  0.3186  0.6296
 7117TIP3   OH242985   1.699   5.811   8.099  0.4538  0.3309  0.2375
 7117TIP3    H142986   1.729   5.813   8.008  0.3271  0.6951  0.2035
 7117TIP3    H242987   1.780   5.800   8.150  0.3737 -1.7883  0.0057
 7118TIP3   OH242988   6.676   2.310   7.103  0.2334  0.0494  0.8150
 7118TIP3    H142989   6.609   2.364   7.144 -2.1156 -1.8530 -0.2863
 7118TIP3    H242990   6.690   2.238   7.164 -1.0568 -1.1838 -0.2837
 7119TIP3   OH242991   6.346   1.305   0.577 -0.1733  0.2305  0.5097
 7119TIP3    H142992   6.264   1.283   0.620 -1.2427  0.8771 -1.1027
 7119TIP3    H242993   6.344   1.401   0.569  0.5176  0.2140  0.0464
 7120TIP3   OH242994   3.068   0.407   8.004 -0.6260  0.5204 -0.7264
 7120TIP3    H142995   3.023   0.384   7.922  1.7043  0.5038 -2.0992
 7120TIP3    H242996   3.109   0.491   7.985 -0.1089  0.5568  0.4805
 7121TIP3   OH242997   6.450   5.013   7.324  0.2968 -0.3323  0.1758
 7121TIP3    H142998   6.486   5.077   7.386  0.0263  0.0152 -0.0286
 7121TIP3    H242999   6.395   5.064   7.265 -0.7346 -0.8928  0.6309
 7122TIP3   OH243000   3.408   2.853   0.018  0.0433 -0.0342  0.4368
 7122TIP3    H143001   3.347   2.914   0.060  0.6655  1.3289 -0.5323
 7122TIP3    H243002   3.353   2.779  -0.008 -0.8757  0.3856  1.1023
 7123TIP3   OH243003   0.150   3.565   8.689  0.0684  0.3416 -0.3147
 7123TIP3    H143004   0.129   3.658   8.701  0.2275  0.1558  1.9387
 7123TIP3    H243005   0.226   3.550   8.746  0.1131 -1.1339 -0.7154
 7124TIP3   OH243006   6.593   3.748   0.582 -0.1045 -0.1575 -0.3288
 7124TIP3    H143007   6.663   3.705   0.631  1.9972  0.8884 -2.2153
 7124TIP3    H243008   6.573   3.827   0.632 -0.9703 -1.1327  0.9299
 7125TIP3   OH243009   5.280   5.732   7.487  0.3742 -0.2658  0.5556
 7125TIP3    H143010   5.211   5.671   7.513  1.4028 -1.6641  0.1110
 7125TIP3    H243011   5.360   5.697   7.527  1.2101  0.0573 -0.7421
 7126TIP3   OH243012   5.650   1.989   8.230  0.0921 -0.2360  0.0517
 7126TIP3    H143013   5.719   2.042   8.268  1.0267 -1.7665  0.5636
 7126TIP3    H243014   5.571   2.044   8.235  1.5876  2.4514 -2.5782
 7127TIP3   OH243015   3.785   4.692   2.280  0.0559  0.1075  0.1497
 7127TIP3    H143016   3.692   4.678   2.296 -0.0655 -1.0079 -1.3291
 7127TIP3    H243017   3.792   4.786   2.262 -0.5732  0.4161  1.4204
 7128TIP3   OH243018   1.243   1.859   8.569  0.3280  0.7181  0.0878
 7128TIP3    H143019   1.282   1.796   8.508  0.7195  0.0344  1.0161
 7128TIP3    H243020   1.312   1.923   8.585  0.0311  1.2218 -0.6239
 7129TIP3   OH243021   6.264   4.929   8.666 -0.4434 -0.5381 -0.0755
 7129TIP3    H143022   6.353   4.946   8.696 -0.7847 -0.6766  1.0514
 7129TIP3    H243023   6.267   4.948   8.572  1.2735 -2.5334 -0.4876
 7130TIP3   OH243024   1.053   4.664   0.005 -0.2639 -0.2158  0.3905
 7130TIP3    H143025   0.998   4.701   0.074 -0.6040  0.0213 -0.0002
 7130TIP3    H243026   1.131   4.719   0.004 -0.7583  0.5106 -0.1750
 7131TIP3   OH243027   3.680   2.550   6.401 -0.1365 -0.0305  0.3725
 7131TIP3    H143028   3.749   2.485   6.392  2.5929  2.6809  0.0269
 7131TIP3    H243029   3.638   2.552   6.315  0.9292 -0.1330 -0.1700
 7132TIP3   OH243030   0.977   4.935   0.510  0.0707  0.1993  0.1268
 7132TIP3    H143031   1.014   4.881   0.580  0.6691  1.3323  0.7117
 7132TIP3    H243032   1.023   4.907   0.431  0.6405  0.1114  0.4858
 7133TIP3   OH243033   5.172   2.664   7.506  0.5071 -0.2250 -0.2371
 7133TIP3    H143034   5.081   2.684   7.529  1.0345  1.4335  0.6084
 7133TIP3    H243035   5.172   2.659   7.411 -0.2693  1.0051 -0.3308
 7134TIP3   OH243036   4.524   1.596   7.431  0.2776  0.7396  0.3791
 7134TIP3    H143037   4.429   1.584   7.426  0.3595  0.4977 -0.8794
 7134TIP3    H243038   4.555   1.518   7.477  0.0669 -0.3569 -1.2415
 7135TIP3   OH243039   3.090   5.500   2.514 -0.5918  0.3462  0.4120
 7135TIP3    H143040   3.012   5.517   2.461 -0.9068  2.2463  1.4251
 7135TIP3    H243041   3.059   5.443   2.585 -0.6513 -0.3448 -0.1532
 7136TIP3   OH243042   0.763   5.993   0.755 -0.4032 -0.4611 -0.4387
 7136TIP3    H143043   0.749   5.931   0.683  0.4397 -1.2697  0.0832
 7136TIP3    H243044   0.798   5.940   0.826  0.0755  0.5706  0.1138
 7137TIP3   OH243045   3.465   1.177   9.008 -0.1535  0.5294 -0.1348
 7137TIP3    H143046   3.548   1.130   9.019  0.1488  1.3382  1.3252
 7137TIP3    H243047   3.484   1.266   9.037 -1.8072  0.4427  1.4550
 7138TIP3   OH243048   5.288   3.620   1.457 -1.0138  0.6017  0.1353
 7138TIP3    H143049   5.264   3.558   1.527 -3.3008 -0.9434 -1.8613
 7138TIP3    H243050   5.205   3.642   1.415  0.1003  2.7962 -1.0996
 7139TIP3   OH243051   6.527   5.477   8.928 -0.0515 -0.7875  0.0560
 7139TIP3    H143052   6.545   5.499   8.837  1.1124 -2.4052 -0.1532
 7139TIP3    H243053   6.611   5.489   8.973 -0.4378 -0.6896  0.7731
 7140TIP3   OH243054   5.231   2.158   1.788 -0.3363  0.3123  0.1586
 7140TIP3    H143055   5.192   2.194   1.868  2.4747  4.5972 -0.1294
 7140TIP3    H243056   5.320   2.135   1.813 -0.8233 -3.1183 -0.7356
 7141TIP3   OH243057   3.632   4.427   7.271  1.1068 -0.8586 -0.1662
 7141TIP3    H143058   3.691   4.352   7.281  0.3366 -1.5934 -0.9618
 7141TIP3    H243059   3.677   4.484   7.209  0.4964 -1.9928 -1.7358
 7142TIP3   OH243060   5.691   6.391   2.551 -0.3032 -0.0008  0.2664
 7142TIP3    H143061   5.739   6.427   2.626  0.6100 -0.9052  0.1364
 7142TIP3    H243062   5.752   6.330   2.511 -0.7543  0.5262 -1.2796
 7143TIP3   OH243063   3.881   1.875   1.459 -0.7690 -0.3380  0.0557
 7143TIP3    H143064   3.805   1.878   1.518 -0.8319 -2.1227  0.1192
 7143TIP3    H243065   3.918   1.788   1.472 -0.0471 -0.3281 -1.6428
 7144TIP3   OH243066   3.714   3.488   2.550 -0.4025  0.2549 -0.1036
 7144TIP3    H143067   3.773   3.413   2.536 -2.4151 -1.2354 -1.1351
 7144TIP3    H243068   3.644   3.454   2.605 -1.4544  1.3217 -0.7250
 7145TIP3   OH243069   1.184   0.026   8.032 -0.3637  0.4735 -0.3924
 7145TIP3    H143070   1.198   0.095   7.968 -2.2319  0.5301 -0.7995
 7145TIP3    H243071   1.089   0.018   8.039 -0.2087 -0.4279  1.4195
 7146TIP3   OH243072   3.404   2.820   0.630  0.3193 -0.6510 -0.1969
 7146TIP3    H143073   3.371   2.866   0.553 -0.4453 -0.0352  0.4875
 7146TIP3    H243074   3.451   2.745   0.594  2.6424  1.2404 -1.4161
 7147TIP3   OH243075   0.309   3.629   6.624  0.3928  0.2563  0.4676
 7147TIP3    H143076   0.281   3.538   6.619 -0.2613  0.2677  2.7165
 7147TIP3    H243077   0.384   3.635   6.564 -1.0324 -1.1046 -1.5872
 7148TIP3   OH243078   3.660   0.070   8.421  0.2314 -0.6088 -0.0845
 7148TIP3    H143079   3.692  -0.005   8.370  1.1190 -1.8998  2.1609
 7148TIP3    H243080   3.729   0.084   8.487 -0.8646  0.8710  0.7981
 7149TIP3   OH243081   0.839   3.227   7.559  0.3670 -0.4889  0.0801
 7149TIP3    H143082   0.873   3.141   7.533 -0.0665  0.0731 -2.6345
 7149TIP3    H243083   0.917   3.280   7.576  0.7154 -0.7515 -0.6521
 7150TIP3   OH243084   5.039   5.635   1.468 -0.0486 -0.7493 -0.0903
 7150TIP3    H143085   4.967   5.650   1.407 -1.3090 -0.7191  1.3499
 7150TIP3    H243086   5.023   5.697   1.539 -0.6500 -3.1077  1.9597
 7151TIP3   OH243087   5.900   1.670   7.915  0.1015  0.1049  0.3226
 7151TIP3    H143088   5.930   1.748   7.962 -0.3390  0.4581  0.0352
 7151TIP3    H243089   5.854   1.705   7.838  0.0556 -0.4440  0.0943
 7152TIP3   OH243090   4.149   5.277   2.283  0.4340  0.0589 -0.5329
 7152TIP3    H143091   4.119   5.276   2.374 -0.4169  0.4708 -0.7982
 7152TIP3    H243092   4.114   5.197   2.245  2.1892 -0.9743 -0.0878
 7153TIP3   OH243093   0.195   1.034   9.088  0.0014  0.4277  0.1503
 7153TIP3    H143094   0.109   1.005   9.055 -0.1660  0.1209  0.8386
 7153TIP3    H243095   0.184   1.128   9.102 -0.3790  0.3053  0.6979
 7154TIP3   OH243096   3.836   3.827   7.600  0.5335 -0.2739 -0.6732
 7154TIP3    H143097   3.870   3.879   7.527 -2.0042  1.1620 -0.9497
 7154TIP3    H243098   3.798   3.750   7.559 -0.0506  0.0709 -0.7902
 7155TIP3   OH243099   5.485   6.398   8.822  0.0921 -0.4405  0.1630
 7155TIP3    H143100   5.504   6.336   8.752  0.9555  1.9524 -1.9043
 7155TIP3    H243101   5.535   6.477   8.798 -1.9014  1.4974  1.9044
 7156TIP3   OH243102   1.866   2.972   0.804 -0.6630  0.1167  0.1335
 7156TIP3    H143103   1.926   2.986   0.877 -0.6383  0.5288  0.0349
 7156TIP3    H243104   1.779   2.980   0.843 -0.6840 -1.1690  0.4195
 7157TIP3   OH243105   5.327   6.309   7.592 -0.1904  0.4517 -0.1054
 7157TIP3    H143106   5.360   6.311   7.682 -1.0540  2.0304  0.2097
 7157TIP3    H243107   5.255   6.246   7.594 -0.3507  0.6461  0.3705
 7158TIP3   OH243108   6.335   5.863   8.966 -0.1901  0.0548  0.4711
 7158TIP3    H143109   6.373   5.776   8.980  1.2169  0.4451 -0.7752
 7158TIP3    H243110   6.283   5.879   9.045  0.2190 -1.5491  1.1031
 7159TIP3   OH243111   0.967   2.100   7.719 -0.2191  0.3272 -0.0956
 7159TIP3    H143112   0.925   2.024   7.678 -1.2152  0.5986  0.3951
 7159TIP3    H243113   0.999   2.067   7.803 -1.8680  0.7470  0.7345
 7160TIP3   OH243114   0.970   5.748   0.344 -0.5521  0.0669 -0.5993
 7160TIP3    H143115   0.968   5.659   0.378 -0.6540  0.1368 -0.4262
 7160TIP3    H243116   1.006   5.738   0.255  0.1551 -0.0533 -0.3008
 7161TIP3   OH243117   5.388   5.459   7.652 -0.2016  0.0239  0.2109
 7161TIP3    H143118   5.311   5.445   7.708  0.7890  3.2767  2.6797
 7161TIP3    H243119   5.462   5.455   7.712  1.3799 -0.4491 -1.6671
 7162TIP3   OH243120   4.694   0.482   7.798  0.4915  0.0661  0.2482
 7162TIP3    H143121   4.655   0.406   7.755  0.5370 -0.7414  1.5752
 7162TIP3    H243122   4.788   0.464   7.798  0.3367 -1.2459  2.9174
 7163TIP3   OH243123   3.586   0.004   7.004  0.3308  0.0873  0.0866
 7163TIP3    H143124   3.490   0.015   7.005  0.4996  1.9834 -0.5507
 7163TIP3    H243125   3.603  -0.050   6.926 -0.1610  0.4590 -0.2832
 7164TIP3   OH243126   4.181   5.079   9.083 -0.3686  0.2457  0.1086
 7164TIP3    H143127   4.262   5.077   9.134 -1.0883  0.2349  1.2853
 7164TIP3    H243128   4.201   5.029   9.004  1.3493  1.8364 -0.5286
 7165TIP3   OH243129   5.102   0.201   7.857 -0.3045  0.1431 -0.7750
 7165TIP3    H143130   5.027   0.171   7.908 -0.0166  1.1157  0.2709
 7165TIP3    H243131   5.121   0.128   7.797 -0.3542 -1.2733  0.8425
 7166TIP3   OH243132   4.817   2.974   0.002 -0.6331 -0.1239  0.3813
 7166TIP3    H143133   4.768   3.045   0.042 -1.2523 -0.1596 -0.2799
 7166TIP3    H243134   4.852   3.012  -0.079 -0.6413 -0.4529  0.2194
 7167TIP3   OH243135   4.175   3.427   8.023 -0.3031  0.1611  0.0701
 7167TIP3    H143136   4.258   3.473   8.010  0.9616 -1.4836  1.7084
 7167TIP3    H243137   4.163   3.426   8.118 -2.2578  0.4141 -0.1330
 7168TIP3   OH243138   0.618   3.554   0.797  0.2798 -0.3517 -0.2825
 7168TIP3    H143139   0.681   3.497   0.754  1.5141  1.1865 -0.6170
 7168TIP3    H243140   0.592   3.616   0.729 -1.1825 -0.6037  0.0119
 7169TIP3   OH243141   2.884   4.064   6.204  0.5658  0.6243  0.0557
 7169TIP3    H143142   2.866   4.136   6.265  2.3869  1.2206 -0.0527
 7169TIP3    H243143   2.845   3.987   6.245 -1.8498  1.7084 -0.0502
 7170TIP3   OH243144   2.467   1.100   1.285 -0.3437  0.0344  0.1581
 7170TIP3    H143145   2.497   1.122   1.197  0.1500  0.1829  0.3601
 7170TIP3    H243146   2.534   1.137   1.343 -1.7989  1.9904  0.7189
 7171LIG     C143147   4.290   5.790   8.857 -1.2816  0.2502 -0.5421
 7171LIG     N143148   4.311   5.695   8.740 -0.1289  1.3058 -0.5106
 7171LIG     C243149   4.372   5.572   8.742 -0.4732  1.1237  0.1053
 7171LIG     N243150   4.375   5.520   8.618 -0.2585  1.0180 -0.3942
 7171LIG     C343151   4.302   5.602   8.536  0.3456  0.2789 -0.6238
 7171LIG     C443152   4.271   5.717   8.608 -0.0343  0.1324 -0.2577
 7171LIG     C543153   4.196   5.818   8.551 -0.3551  0.7582 -0.3004
 7171LIG     O143154   4.154   5.925   8.605 -0.2406 -0.5648  0.3077
 7171LIG     N343155   4.137   5.779   8.428  0.1871  0.5910  0.5534
 7171LIG     C643156   4.189   5.675   8.341  0.8842  0.4980 -0.4389
 7171LIG     O243157   4.145   5.661   8.227 -0.5388 -0.2762  0.2027
 7171LIG     N443158   4.274   5.579   8.395  0.0078 -0.2519  0.3779
 7171LIG     C743159   4.336   5.484   8.298 -0.2579  0.2741  0.3412
 7171LIG     C843160   4.021   5.856   8.380  0.2531 -0.6344 -0.0886
 7171LIG     H143161   4.376   5.775   8.926  0.6098 -4.5047 -3.4143
 7171LIG     H243162   4.202   5.764   8.919 -1.5303 -1.2100 -1.4504
 7171LIG     H343163   4.283   5.896   8.824 -0.1349  0.2198 -0.9238
 7171LIG     H443164   4.436   5.531   8.820  3.5711  0.0975 -3.3665
 7171LIG     H543165   4.371   5.388   8.341 -1.3572 -0.6172 -0.6667
 7171LIG     H643166   4.425   5.533   8.252  0.1456 -0.8942 -0.1704
 7171LIG     H743167   4.254   5.448   8.232  0.4647  1.1009 -1.0519
 7171LIG     H843168   3.937   5.860   8.453  1.4085 -1.7699  1.3790
 7171LIG     H943169   3.980   5.809   8.288 -1.5230 -2.4494  1.5364
 7171LIG    H1043170   4.057   5.961   8.371 -0.6691 -0.2326  0.6971
   6.74316   6.74316   9.13122
