PSF EXT CMAP XPLOR

         2 !NTITLE
* GENERATE LIGAND                                                               
*  DATE:     4/17/25      6:44:37      CREATED BY USER: charmm-gui              

        57 !NATOM
         1 LIG      1        LIG      O1       OG301   -0.344000       15.9994           0
         2 LIG      1        LIG      O2       OG302   -0.481000       15.9994           0
         3 LIG      1        LIG      O3       OG311   -0.608000       15.9994           0
         4 LIG      1        LIG      O4       OG2D1   -0.623000       15.9994           0
         5 LIG      1        LIG      N        NG3P0   -0.708000       14.0070           0
         6 LIG      1        LIG      C1       CG324   -0.102000       12.0110           0
         7 LIG      1        LIG      C2       CG324   -0.100000       12.0110           0
         8 LIG      1        LIG      C3       CG324   -0.100000       12.0110           0
         9 LIG      1        LIG      C4       CG324    0.174000       12.0110           0
        10 LIG      1        LIG      C5       CG321    0.850000E-01   12.0110           0
        11 LIG      1        LIG      C6       CG331   -0.270000       12.0110           0
        12 LIG      1        LIG      C7       CG331   -0.270000       12.0110           0
        13 LIG      1        LIG      C8       CG301    0.149000       12.0110           0
        14 LIG      1        LIG      C9       CG2O2    0.908000       12.0110           0
        15 LIG      1        LIG      C10      CG331   -0.930000E-01   12.0110           0
        16 LIG      1        LIG      C11      CG2R61   -0.00000       12.0110           0
        17 LIG      1        LIG      C12      CG2R61   -0.00000       12.0110           0
        18 LIG      1        LIG      C13      CG2R61  -0.120000       12.0110           0
        19 LIG      1        LIG      C14      CG2R61  -0.120000       12.0110           0
        20 LIG      1        LIG      C15      CG2R61  -0.120000       12.0110           0
        21 LIG      1        LIG      C16      CG2R61  -0.120000       12.0110           0
        22 LIG      1        LIG      C17      CG2R61  -0.115000       12.0110           0
        23 LIG      1        LIG      C18      CG2R61  -0.115000       12.0110           0
        24 LIG      1        LIG      C19      CG2R61  -0.115000       12.0110           0
        25 LIG      1        LIG      C20      CG2R61  -0.115000       12.0110           0
        26 LIG      1        LIG      C21      CG2R61  -0.115000       12.0110           0
        27 LIG      1        LIG      C22      CG2R61  -0.115000       12.0110           0
        28 LIG      1        LIG      H1       HGP5     0.250000       1.00800           0
        29 LIG      1        LIG      H2       HGP5     0.250000       1.00800           0
        30 LIG      1        LIG      H3       HGP5     0.250000       1.00800           0
        31 LIG      1        LIG      H4       HGP5     0.250000       1.00800           0
        32 LIG      1        LIG      H5       HGP5     0.250000       1.00800           0
        33 LIG      1        LIG      H6       HGP5     0.250000       1.00800           0
        34 LIG      1        LIG      H7       HGP5     0.250000       1.00800           0
        35 LIG      1        LIG      H8       HGP5     0.250000       1.00800           0
        36 LIG      1        LIG      H9       HGA2     0.900000E-01   1.00800           0
        37 LIG      1        LIG      H10      HGA2     0.900000E-01   1.00800           0
        38 LIG      1        LIG      H11      HGA3     0.900000E-01   1.00800           0
        39 LIG      1        LIG      H12      HGA3     0.900000E-01   1.00800           0
        40 LIG      1        LIG      H13      HGA3     0.900000E-01   1.00800           0
        41 LIG      1        LIG      H14      HGA3     0.900000E-01   1.00800           0
        42 LIG      1        LIG      H15      HGA3     0.900000E-01   1.00800           0
        43 LIG      1        LIG      H16      HGA3     0.900000E-01   1.00800           0
        44 LIG      1        LIG      H17      HGA3     0.900000E-01   1.00800           0
        45 LIG      1        LIG      H18      HGA3     0.900000E-01   1.00800           0
        46 LIG      1        LIG      H19      HGA3     0.900000E-01   1.00800           0
        47 LIG      1        LIG      H20      HGP1     0.413000       1.00800           0
        48 LIG      1        LIG      H21      HGR61    0.115000       1.00800           0
        49 LIG      1        LIG      H22      HGR61    0.115000       1.00800           0
        50 LIG      1        LIG      H23      HGR61    0.115000       1.00800           0
        51 LIG      1        LIG      H24      HGR61    0.115000       1.00800           0
        52 LIG      1        LIG      H25      HGR61    0.115000       1.00800           0
        53 LIG      1        LIG      H26      HGR61    0.115000       1.00800           0
        54 LIG      1        LIG      H27      HGR61    0.115000       1.00800           0
        55 LIG      1        LIG      H28      HGR61    0.115000       1.00800           0
        56 LIG      1        LIG      H29      HGR61    0.115000       1.00800           0
        57 LIG      1        LIG      H30      HGR61    0.115000       1.00800           0

        58 !NBOND: bonds
         1         9         1        15         2        10         2        14
         3        13         3        47         4        14         5         6
         5         7         5         8         5         9         6        10
         6        28         6        29         7        11         7        30
         7        31         8        12         8        32         8        33
         9        34         9        35        10        36        10        37
        11        38        11        39        11        40        12        41
        12        42        12        43        13        14        13        16
        13        17        15        44        15        45        15        46
        16        18        16        20        17        19        17        21
        18        22        18        48        19        23        19        49
        20        24        20        50        21        25        21        51
        22        26        22        52        23        27        23        53
        24        26        24        54        25        27        25        55
        26        56        27        57

       102 !NTHETA: angles
         9         1        15        10         2        14        13         3        47
         6         5         7         6         5         8         6         5         9
         7         5         8         7         5         9         8         5         9
         5         6        10         5         6        28         5         6        29
        10         6        28        10         6        29        28         6        29
         5         7        11         5         7        30         5         7        31
        11         7        30        11         7        31        30         7        31
         5         8        12         5         8        32         5         8        33
        12         8        32        12         8        33        32         8        33
         1         9         5         1         9        34         1         9        35
         5         9        34         5         9        35        34         9        35
         2        10         6         2        10        36         2        10        37
         6        10        36         6        10        37        36        10        37
         7        11        38         7        11        39         7        11        40
        38        11        39        38        11        40        39        11        40
         8        12        41         8        12        42         8        12        43
        41        12        42        41        12        43        42        12        43
         3        13        14         3        13        16         3        13        17
        14        13        16        14        13        17        16        13        17
         2        14         4         2        14        13         4        14        13
         1        15        44         1        15        45         1        15        46
        44        15        45        44        15        46        45        15        46
        13        16        18        13        16        20        18        16        20
        13        17        19        13        17        21        19        17        21
        16        18        22        16        18        48        22        18        48
        17        19        23        17        19        49        23        19        49
        16        20        24        16        20        50        24        20        50
        17        21        25        17        21        51        25        21        51
        18        22        26        18        22        52        26        22        52
        19        23        27        19        23        53        27        23        53
        20        24        26        20        24        54        26        24        54
        21        25        27        21        25        55        27        25        55
        22        26        24        22        26        56        24        26        56
        23        27        25        23        27        57        25        27        57

       143 !NPHI: dihedrals
         1         9         5         6         1         9         5         7
         1         9         5         8         2        10         6         5
         2        10         6        28         2        10         6        29
         2        14        13         3         2        14        13        16
         2        14        13        17         3        13        14         4
         3        13        16        18         3        13        16        20
         3        13        17        19         3        13        17        21
         4        14         2        10         4        14        13        16
         4        14        13        17         5         6        10        36
         5         6        10        37         5         7        11        38
         5         7        11        39         5         7        11        40
         5         8        12        41         5         8        12        42
         5         8        12        43         5         9         1        15
         6         5         7        11         6         5         7        30
         6         5         7        31         6         5         8        12
         6         5         8        32         6         5         8        33
         6         5         9        34         6         5         9        35
         6        10         2        14         7         5         6        10
         7         5         6        28         7         5         6        29
         7         5         8        12         7         5         8        32
         7         5         8        33         7         5         9        34
         7         5         9        35         8         5         6        10
         8         5         6        28         8         5         6        29
         8         5         7        11         8         5         7        30
         8         5         7        31         8         5         9        34
         8         5         9        35         9         1        15        44
         9         1        15        45         9         1        15        46
         9         5         6        10         9         5         6        28
         9         5         6        29         9         5         7        11
         9         5         7        30         9         5         7        31
         9         5         8        12         9         5         8        32
         9         5         8        33        10         2        14        13
        13        16        18        22        13        16        18        48
        13        16        20        24        13        16        20        50
        13        17        19        23        13        17        19        49
        13        17        21        25        13        17        21        51
        14         2        10        36        14         2        10        37
        14        13         3        47        14        13        16        18
        14        13        16        20        14        13        17        19
        14        13        17        21        15         1         9        34
        15         1         9        35        16        13         3        47
        16        13        17        19        16        13        17        21
        16        18        22        26        16        18        22        52
        16        20        24        26        16        20        24        54
        17        13         3        47        17        13        16        18
        17        13        16        20        17        19        23        27
        17        19        23        53        17        21        25        27
        17        21        25        55        18        16        20        24
        18        16        20        50        18        22        26        24
        18        22        26        56        19        17        21        25
        19        17        21        51        19        23        27        25
        19        23        27        57        20        16        18        22
        20        16        18        48        20        24        26        22
        20        24        26        56        21        17        19        23
        21        17        19        49        21        25        27        23
        21        25        27        57        22        26        24        54
        23        27        25        55        24        26        22        52
        25        27        23        53        26        22        18        48
        26        24        20        50        27        23        19        49
        27        25        21        51        28         6        10        36
        28         6        10        37        29         6        10        36
        29         6        10        37        30         7        11        38
        30         7        11        39        30         7        11        40
        31         7        11        38        31         7        11        39
        31         7        11        40        32         8        12        41
        32         8        12        42        32         8        12        43
        33         8        12        41        33         8        12        42
        33         8        12        43        48        18        22        52
        49        19        23        53        50        20        24        54
        51        21        25        55        52        22        26        56
        53        23        27        57        54        24        26        56
        55        25        27        57

         1 !NIMPHI: impropers
        14        13         4         2

         0 !NDON: donors


         0 !NACC: acceptors


         0 !NNB

         0         0         0         0         0         0         0         0
         0         0         0         0         0         0         0         0
         0         0         0         0         0         0         0         0
         0         0         0         0         0         0         0         0
         0         0         0         0         0         0         0         0
         0         0         0         0         0         0         0         0
         0         0         0         0         0         0         0         0
         0

         1         0 !NGRP NST2
         0         2         0

         0         0 !NUMLP NUMLPH

         0 !NCRTERM: cross-terms

