* GENERATE LIGAND
*  DATE:     4/17/25      6:44:37      CREATED BY USER: charmm-gui
*
        57  EXT
         1         1  LIG       O1             -3.8205344761        0.9252398311        1.8333080052  LIG       1               0.0000000000
         2         1  LIG       O2             -0.5227986995       -0.1991012633       -0.5562874471  LIG       1               0.0000000000
         3         1  LIG       O3              1.7207022427       -0.4999642139       -2.1803249376  LIG       1               0.0000000000
         4         1  LIG       O4              0.5022825882       -1.7481267569        0.7404763814  LIG       1               0.0000000000
         5         1  LIG       N              -4.2696955615       -0.3896884667       -0.1747345971  LIG       1               0.0000000000
         6         1  LIG       C1             -2.8787605083        0.0473326718       -0.6259965134  LIG       1               0.0000000000
         7         1  LIG       C2             -5.3133280920        0.5080366875       -0.8220119165  LIG       1               0.0000000000
         8         1  LIG       C3             -4.5091045328       -1.8267384775       -0.5994829463  LIG       1               0.0000000000
         9         1  LIG       C4             -4.3473715988       -0.2937420672        1.3468867612  LIG       1               0.0000000000
        10         1  LIG       C5             -1.7233794565       -0.7775300169       -0.0548404558  LIG       1               0.0000000000
        11         1  LIG       C6             -5.3255499583        0.4435673021       -2.3607778974  LIG       1               0.0000000000
        12         1  LIG       C7             -5.8523573095       -2.3918927405       -0.1219195271  LIG       1               0.0000000000
        13         1  LIG       C8              1.8643544727       -0.2656627407       -0.7571805431  LIG       1               0.0000000000
        14         1  LIG       C9              0.5703948755       -0.8463844681       -0.0838885636  LIG       1               0.0000000000
        15         1  LIG       C10            -3.8180065005        0.9172923858        3.2576147366  LIG       1               0.0000000000
        16         1  LIG       C11             3.1188265426       -0.9578703564       -0.1620030882  LIG       1               0.0000000000
        17         1  LIG       C12             1.9279202810        1.2449096870       -0.4306450154  LIG       1               0.0000000000
        18         1  LIG       C13             3.4665586311       -0.8495849721        1.2072527049  LIG       1               0.0000000000
        19         1  LIG       C14             2.4666224025        2.1462348296       -1.3745459540  LIG       1               0.0000000000
        20         1  LIG       C15             3.9969434795       -1.6935747024       -0.9958339095  LIG       1               0.0000000000
        21         1  LIG       C16             1.4275405682        1.7786303804        0.7822422563  LIG       1               0.0000000000
        22         1  LIG       C17             4.6382766034       -1.4355681790        1.7076191828  LIG       1               0.0000000000
        23         1  LIG       C18             2.4864802406        3.5210122343       -1.1348564241  LIG       1               0.0000000000
        24         1  LIG       C19             5.1645780045       -2.2744398164       -0.4990647692  LIG       1               0.0000000000
        25         1  LIG       C20             1.4505264961        3.1587361464        1.0240637669  LIG       1               0.0000000000
        26         1  LIG       C21             5.4875630961       -2.1455969649        0.8522747836  LIG       1               0.0000000000
        27         1  LIG       C22             1.9769206818        4.0286782542        0.0625294552  LIG       1               0.0000000000
        28         1  LIG       H1             -2.7025767421        1.0852942827       -0.3406801743  LIG       1               0.0000000000
        29         1  LIG       H2             -2.8000791626        0.0324378729       -1.7111289865  LIG       1               0.0000000000
        30         1  LIG       H3             -5.1733919456        1.5402190710       -0.4972333959  LIG       1               0.0000000000
        31         1  LIG       H4             -6.3037195198        0.2179153867       -0.4685276908  LIG       1               0.0000000000
        32         1  LIG       H5             -3.6987968001       -2.4656270966       -0.2460266919  LIG       1               0.0000000000
        33         1  LIG       H6             -4.4613489465       -1.8871825325       -1.6894605693  LIG       1               0.0000000000
        34         1  LIG       H7             -5.3679635477       -0.4042169578        1.6891654064  LIG       1               0.0000000000
        35         1  LIG       H8             -3.7658931993       -1.0955264706        1.7891003052  LIG       1               0.0000000000
        36         1  LIG       H9             -1.7206367040       -0.7362202260        1.0569781946  LIG       1               0.0000000000
        37         1  LIG       H10            -1.7868720797       -1.8372843357       -0.3876653171  LIG       1               0.0000000000
        38         1  LIG       H11            -5.5130469937       -0.5854653488       -2.7339465736  LIG       1               0.0000000000
        39         1  LIG       H12            -4.3748078860        0.8086630877       -2.8008785360  LIG       1               0.0000000000
        40         1  LIG       H13            -6.1442037982        1.0796701949       -2.7625752807  LIG       1               0.0000000000
        41         1  LIG       H14            -6.7055458548       -1.8176898696       -0.5416878918  LIG       1               0.0000000000
        42         1  LIG       H15            -5.9399719401       -2.4004843328        0.9837596526  LIG       1               0.0000000000
        43         1  LIG       H16            -5.9623714584       -3.4425973941       -0.4680461247  LIG       1               0.0000000000
        44         1  LIG       H17            -3.2381845966        0.0536585224        3.6561420461  LIG       1               0.0000000000
        45         1  LIG       H18            -4.8597532521        0.8634252868        3.6435879119  LIG       1               0.0000000000
        46         1  LIG       H19            -3.3517384002        1.8509316637        3.6432986984  LIG       1               0.0000000000
        47         1  LIG       H20             2.5154482486       -0.1343603766       -2.5832916996  LIG       1               0.0000000000
        48         1  LIG       H21             2.8336348264       -0.3098513966        1.8951894700  LIG       1               0.0000000000
        49         1  LIG       H22             2.8645449108        1.7786003946       -2.3067408616  LIG       1               0.0000000000
        50         1  LIG       H23             3.7809013499       -1.8179823118       -2.0448653740  LIG       1               0.0000000000
        51         1  LIG       H24             1.0075470564        1.1311886676        1.5388926017  LIG       1               0.0000000000
        52         1  LIG       H25             4.8929670192       -1.3396726621        2.7534877370  LIG       1               0.0000000000
        53         1  LIG       H26             2.8952222332        4.1876133072       -1.8810250579  LIG       1               0.0000000000
        54         1  LIG       H27             5.8157014463       -2.8214432358       -1.1666600057  LIG       1               0.0000000000
        55         1  LIG       H28             1.0619238251        3.5576355375        1.9503898345  LIG       1               0.0000000000
        56         1  LIG       H29             6.3916088701       -2.5985615180        1.2335799198  LIG       1               0.0000000000
        57         1  LIG       H30             1.9940539364        5.0938602505        0.2435818623  LIG       1               0.0000000000
