* GENERATED BY CHARMM-GUI (HTTP://WWW.CHARMM-GUI.ORG)
*
        27  EXT
         1         1  LIG       O1             -3.7163000000        0.8990000000        1.8833000000  LIG       1               0.0000000000
         2         1  LIG       O2             -0.5285000000       -0.2369000000       -0.5704000000  LIG       1               0.0000000000
         3         1  LIG       O3              1.6907000000       -0.5294000000       -2.0268000000  LIG       1               0.0000000000
         4         1  LIG       O4              0.5295000000       -1.8699000000        0.6551000000  LIG       1               0.0000000000
         5         1  LIG       N              -4.2408000000       -0.3806000000       -0.2163000000  LIG       1               0.0000000000
         6         1  LIG       C1             -2.8971000000        0.1193000000       -0.7273000000  LIG       1               0.0000000000
         7         1  LIG       C2             -5.3537000000        0.4795000000       -0.8027000000  LIG       1               0.0000000000
         8         1  LIG       C3             -4.4437000000       -1.8264000000       -0.6462000000  LIG       1               0.0000000000
         9         1  LIG       C4             -4.2803000000       -0.2854000000        1.3181000000  LIG       1               0.0000000000
        10         1  LIG       C5             -1.7885000000       -0.7215000000       -0.1253000000  LIG       1               0.0000000000
        11         1  LIG       C6             -5.3128000000        0.3859000000       -2.3123000000  LIG       1               0.0000000000
        12         1  LIG       C7             -5.7842000000       -2.3132000000       -0.1407000000  LIG       1               0.0000000000
        13         1  LIG       C8              1.8636000000       -0.2623000000       -0.6200000000  LIG       1               0.0000000000
        14         1  LIG       C9              0.5757000000       -0.9074000000       -0.1017000000  LIG       1               0.0000000000
        15         1  LIG       C10            -3.8058000000        0.8953000000        3.3014000000  LIG       1               0.0000000000
        16         1  LIG       C11             3.1431000000       -0.9281000000       -0.1080000000  LIG       1               0.0000000000
        17         1  LIG       C12             1.9033000000        1.2492000000       -0.3846000000  LIG       1               0.0000000000
        18         1  LIG       C13             3.4902000000       -0.8272000000        1.2392000000  LIG       1               0.0000000000
        19         1  LIG       C14             2.4353000000        2.0929000000       -1.3597000000  LIG       1               0.0000000000
        20         1  LIG       C15             3.9618000000       -1.6355000000       -0.9881000000  LIG       1               0.0000000000
        21         1  LIG       C16             1.4076000000        1.7833000000        0.8047000000  LIG       1               0.0000000000
        22         1  LIG       C17             4.6564000000       -1.4338000000        1.7063000000  LIG       1               0.0000000000
        23         1  LIG       C18             2.4717000000        3.4709000000       -1.1455000000  LIG       1               0.0000000000
        24         1  LIG       C19             5.1277000000       -2.2421000000       -0.5212000000  LIG       1               0.0000000000
        25         1  LIG       C20             1.4439000000        3.1611000000        1.0190000000  LIG       1               0.0000000000
        26         1  LIG       C21             5.4751000000       -2.1413000000        0.8260000000  LIG       1               0.0000000000
        27         1  LIG       C22             1.9759000000        4.0049000000        0.0439000000  LIG       1               0.0000000000
