Title
42779
    1SAPS     N    1   5.166   1.525   7.478  0.7597 -0.2423 -0.6198
    1SAPS   HN1    2   5.201   1.596   7.545 -0.2464  0.6462 -0.9975
    1SAPS   HN2    3   5.242   1.484   7.420  0.3226 -1.7209 -0.1793
    1SAPS   HN3    4   5.101   1.565   7.407 -0.0571 -1.3267 -0.5171
    1SAPS   C12    5   5.090   1.416   7.536  0.2106  0.7514  0.3076
    1SAPS  H12A    6   5.162   1.362   7.595 -1.5601 -1.2510  0.7897
    1SAPS   C13    7   4.974   1.464   7.615 -0.7376  1.2143 -0.6515
    1SAPS  O13A    8   4.937   1.582   7.621 -0.1678  0.2457 -0.1156
    1SAPS  O13B    9   4.906   1.377   7.682  0.0071 -0.0055 -0.4061
    1SAPS   C11   10   5.046   1.305   7.432  0.5220 -0.4406 -0.1096
    1SAPS  H11A   11   4.989   1.365   7.358  1.6035  0.6234 -0.1118
    1SAPS  H11B   12   4.968   1.241   7.477  0.7011  1.0898  2.5634
    1SAPS     P   13   5.140   1.107   7.294 -0.4135  0.1098 -0.1641
    1SAPS   O13   14   5.266   1.089   7.216 -0.0660 -0.7896 -0.7686
    1SAPS   O14   15   5.088   0.993   7.368 -0.2805 -0.1017 -0.1501
    1SAPS   O12   16   5.157   1.227   7.398  0.0891  0.1347  0.0366
    1SAPS   O11   17   5.030   1.163   7.197  0.0777 -0.3430 -0.2203
    1SAPS    C1   18   5.076   1.250   7.084 -0.8018  0.5361 -0.0676
    1SAPS    HA   19   5.002   1.333   7.079  0.2338  1.5759  1.2848
    1SAPS    HB   20   5.172   1.300   7.110 -0.3724 -0.4652  0.3094
    1SAPS    C2   21   5.082   1.173   6.950  0.4245 -0.1495  0.0527
    1SAPS    HS   22   5.155   1.089   6.953  2.0466  1.2275  1.1653
    1SAPS   O21   23   5.114   1.261   6.839 -0.5619  0.5822 -0.5277
    1SAPS   C21   24   5.168   1.210   6.732  0.0669  0.6181  0.1563
    1SAPS   O22   25   5.216   1.097   6.724  0.3264 -0.2539 -0.3189
    1SAPS   C22   26   5.162   1.303   6.619 -0.1001 -0.5779 -0.3082
    1SAPS   H2R   27   5.076   1.373   6.630 -0.3360 -1.0016  0.6095
    1SAPS   H2S   28   5.259   1.357   6.620 -0.5667  0.3072  1.6057
    1SAPS    C3   29   4.940   1.123   6.923 -0.1904 -0.0762 -0.2206
    1SAPS    HX   30   4.869   1.208   6.911  1.5624  1.5966  0.8152
    1SAPS    HY   31   4.904   1.063   7.009  0.4018 -2.1211 -1.3399
    1SAPS   O31   32   4.927   1.048   6.797 -0.6463 -0.0299 -0.3146
    1SAPS   C31   33   4.967   0.924   6.807 -0.8226 -0.3011 -0.2288
    1SAPS   O32   34   5.018   0.866   6.902 -0.3686  0.4391  0.3030
    1SAPS   C32   35   4.938   0.851   6.672 -0.1260  0.3580  0.1103
    1SAPS   H2X   36   4.840   0.896   6.645  0.2207  1.3451  0.4828
    1SAPS   H2Y   37   4.924   0.742   6.692  1.4038 -0.3558 -2.3904
    1SAPS   C23   38   5.140   1.224   6.485 -0.2387 -0.3022  0.5683
    1SAPS   H3R   39   5.036   1.185   6.481 -0.0356 -0.9389 -3.7059
    1SAPS   H3S   40   5.210   1.137   6.482  1.0837  0.7423 -0.6301
    1SAPS   C24   41   5.160   1.310   6.359 -0.1749  0.2828 -0.0738
    1SAPS   H4R   42   5.077   1.383   6.350 -0.5318  0.1420  1.6894
    1SAPS   H4S   43   5.149   1.247   6.267  0.3714  1.8066 -1.2196
    1SAPS   C25   44   5.292   1.377   6.342  0.7324  0.0884  0.0225
    1SAPS   H5R   45   5.347   1.393   6.436 -1.3866 -1.6432  1.6526
    1SAPS   C26   46   5.344   1.421   6.228 -0.0748 -0.2255 -0.9357
    1SAPS   H6R   47   5.451   1.446   6.238 -0.2583  0.6899 -1.1480
    1SAPS   C27   48   5.287   1.425   6.089  0.5913  0.2422 -0.4900
    1SAPS   H7R   49   5.184   1.384   6.091  0.4245  0.5452  2.7307
    1SAPS   H7S   50   5.337   1.351   6.024  2.2354 -0.7164  1.7215
    1SAPS   C28   51   5.307   1.560   6.023 -0.0333  0.3861 -0.8367
    1SAPS   H8R   52   5.270   1.640   6.088  2.8944  0.8290  0.4592
    1SAPS   C29   53   5.372   1.592   5.916 -0.2000 -0.3558  0.0977
    1SAPS   H9R   54   5.378   1.698   5.887  1.6307 -0.6896 -0.8984
    1SAPS  C210   55   5.445   1.497   5.828 -0.1189  0.2084  0.1233
    1SAPS  H10R   56   5.467   1.397   5.872 -1.1530  0.1607  0.5562
    1SAPS  H10S   57   5.541   1.548   5.808 -0.3446  0.8238  0.5982
    1SAPS  C211   58   5.377   1.479   5.696  0.3064  0.3013 -0.0522
    1SAPS  H11R   59   5.273   1.514   5.688  0.0733 -0.1764  0.8438
    1SAPS  C212   60   5.432   1.421   5.588 -0.2829  0.1902 -0.1430
    1SAPS  H12R   61   5.374   1.425   5.495  1.8349  2.1620 -1.4676
    1SAPS  C213   62   5.569   1.358   5.571 -0.2077 -0.0130  0.8236
    1SAPS  H13R   63   5.579   1.272   5.639 -1.6424 -0.6456  0.2728
    1SAPS  H13S   64   5.650   1.429   5.597  0.7105 -0.6305 -0.2235
    1SAPS  C214   65   5.611   1.322   5.428  0.3457  1.0156  0.3596
    1SAPS  H14R   66   5.705   1.373   5.401  0.9049  0.1495  0.6450
    1SAPS  C215   67   5.547   1.248   5.333  0.6749  0.1907 -1.2326
    1SAPS  H15R   68   5.602   1.231   5.239  1.6359  1.0631 -0.8553
    1SAPS  C216   69   5.422   1.157   5.342  0.2355 -0.0508 -0.7555
    1SAPS  H16R   70   5.378   1.171   5.443  0.0556  0.1950 -0.8662
    1SAPS  H16S   71   5.441   1.047   5.336 -1.7308 -0.4374 -0.5010
    1SAPS  C217   72   5.305   1.214   5.253  0.0534 -0.7659  0.2178
    1SAPS  H17R   73   5.278   1.319   5.277  0.2688 -0.9048  1.0826
    1SAPS  H17S   74   5.213   1.152   5.261  0.8301 -2.2760 -1.5959
    1SAPS  C218   75   5.331   1.207   5.102 -1.4631  0.5018  0.0339
    1SAPS  H18R   76   5.340   1.099   5.080 -1.6905  0.3437  0.6880
    1SAPS  H18S   77   5.430   1.252   5.082 -0.8477 -1.6337 -2.1237
    1SAPS  C219   78   5.223   1.261   5.012 -0.5668 -1.3642 -0.1380
    1SAPS  H19R   79   5.123   1.221   5.040 -1.7329  2.2117  1.3916
    1SAPS  H19S   80   5.248   1.236   4.907 -0.6983  1.3431 -0.8799
    1SAPS  C220   81   5.206   1.410   5.025 -0.0078  0.2320  0.1750
    1SAPS  H20R   82   5.295   1.461   4.983  0.3890 -1.8758 -1.7170
    1SAPS  H20S   83   5.192   1.454   5.126  1.0549  0.5489  0.2010
    1SAPS  H20T   84   5.116   1.445   4.972  0.8774  1.7378 -0.3792
    1SAPS   C33   85   5.048   0.881   6.572 -0.6986  0.0716 -0.4321
    1SAPS   H3X   86   5.148   0.877   6.620 -1.4800 -0.7746  1.2065
    1SAPS   H3Y   87   5.038   0.984   6.530 -0.3720  0.1963 -0.2103
    1SAPS   C34   88   5.045   0.787   6.454 -0.3719 -0.2493 -0.1639
    1SAPS   H4X   89   4.948   0.789   6.398  1.8166  0.3687 -4.3593
    1SAPS   H4Y   90   5.064   0.683   6.488  1.8421  0.1676 -0.0202
    1SAPS   C35   91   5.152   0.816   6.344  0.3026 -0.2810  0.2039
    1SAPS   H5X   92   5.251   0.816   6.395  1.3443  0.5987 -1.7072
    1SAPS   H5Y   93   5.147   0.916   6.296  1.5713 -0.5338 -0.5212
    1SAPS   C36   94   5.143   0.713   6.237 -0.3776  0.2184  0.2836
    1SAPS   H6X   95   5.040   0.689   6.203 -0.1356 -2.3823  1.1847
    1SAPS   H6Y   96   5.179   0.620   6.286 -2.3279 -1.0782 -0.5990
    1SAPS   C37   97   5.227   0.737   6.112  0.8393 -0.3035 -0.0961
    1SAPS   H7X   98   5.227   0.639   6.059 -0.3428 -0.5448  0.3354
    1SAPS   H7Y   99   5.321   0.785   6.148 -0.3564  1.6102  0.5976
    1SAPS   C38  100   5.161   0.843   6.016  0.1518 -0.1457 -0.3107
    1SAPS   H8X  101   5.145   0.940   6.067  0.3711  0.2393 -0.9602
    1SAPS   H8Y  102   5.068   0.796   5.980 -0.9667  0.5990  1.4389
    1SAPS   C39  103   5.249   0.872   5.896 -0.1305  0.6774 -0.4666
    1SAPS   H9X  104   5.288   0.773   5.863  1.3043  0.8199  0.6678
    1SAPS   H9Y  105   5.339   0.918   5.943  1.4985 -2.4122 -0.2852
    1SAPS  C310  106   5.190   0.955   5.787  0.0154 -0.8301 -0.1618
    1SAPS  H10X  107   5.191   1.058   5.827  0.5596 -0.8088 -0.2330
    1SAPS  H10Y  108   5.089   0.923   5.753 -0.4944  0.7990 -0.2727
    1SAPS  C311  109   5.278   0.966   5.667 -0.6580  0.0683 -0.0344
    1SAPS  H11X  110   5.383   0.987   5.696 -0.4648  0.4848 -0.9833
    1SAPS  H11Y  111   5.241   1.055   5.611  0.9046  0.5337 -0.3811
    1SAPS  C312  112   5.282   0.842   5.568  0.9285  0.0215  0.1838
    1SAPS  H12X  113   5.237   0.749   5.609 -2.1621  1.2560 -0.1072
    1SAPS  H12Y  114   5.386   0.819   5.537  0.7490 -3.1288  1.5477
    1SAPS  C313  115   5.202   0.879   5.443  0.0690  0.0274 -0.4485
    1SAPS  H13X  116   5.254   0.966   5.396 -2.1501  1.0103 -1.2414
    1SAPS  H13Y  117   5.109   0.919   5.487  0.3658 -0.0351  0.2417
    1SAPS  C314  118   5.172   0.772   5.339  0.5807 -0.3611 -0.3037
    1SAPS  H14X  119   5.264   0.737   5.287  0.3820 -1.3240 -0.0286
    1SAPS  H14Y  120   5.111   0.838   5.274 -1.7149 -0.2410  1.8344
    1SAPS  C315  121   5.084   0.657   5.386 -0.5316  0.6997 -1.3054
    1SAPS  H15X  122   4.988   0.698   5.424 -1.4513 -1.7910 -0.7371
    1SAPS  H15Y  123   5.141   0.600   5.463 -0.3061  4.4867  1.6232
    1SAPS  C316  124   5.041   0.569   5.269 -0.7081 -0.2648  0.2337
    1SAPS  H16X  125   4.990   0.474   5.298  0.2056 -0.6967  0.4963
    1SAPS  H16Y  126   5.142   0.554   5.223 -0.1220 -1.8943  1.8815
    1SAPS  C317  127   4.944   0.634   5.166  0.2287  0.2673 -0.0781
    1SAPS  H17X  128   4.999   0.696   5.092  1.8473 -1.1557 -0.1277
    1SAPS  H17Y  129   4.870   0.694   5.223 -0.4208  2.2212 -2.7842
    1SAPS  C318  130   4.876   0.533   5.081  0.1094  0.4785 -0.2314
    1SAPS  H18X  131   4.943   0.480   5.010 -0.6805 -0.6331 -0.1809
    1SAPS  H18Y  132   4.799   0.585   5.020 -0.9037 -2.2508 -1.4576
    1SAPS  H18Z  133   4.823   0.459   5.144  2.6582  0.1253  1.6311
    2SAPS     N  134   6.587   3.727   6.771 -0.1047  0.3098  0.8859
    2SAPS   HN1  135   6.647   3.810   6.786 -2.3291  2.0727  0.5533
    2SAPS   HN2  136   6.646   3.641   6.779  0.6408  0.6250 -0.8550
    2SAPS   HN3  137   6.540   3.723   6.678  0.9952 -0.0380  0.3326
    2SAPS   C12  138   6.485   3.730   6.865 -0.3108  0.4631 -0.2052
    2SAPS  H12A  139   6.408   3.669   6.819 -0.0939  0.7243 -0.9310
    2SAPS   C13  140   6.510   3.687   7.011 -0.1363  0.2295  0.6914
    2SAPS  O13A  141   6.628   3.673   7.048 -0.3581  0.0967 -0.2504
    2SAPS  O13B  142   6.412   3.678   7.088  0.2489 -0.1846 -0.3127
    2SAPS   C11  143   6.426   3.882   6.879  0.6495  0.6529 -0.6291
    2SAPS  H11A  144   6.477   3.954   6.945 -2.6985  2.0269  0.6878
    2SAPS  H11B  145   6.326   3.874   6.927 -0.8699  1.5260 -3.4066
    2SAPS     P  146   6.337   4.077   6.745 -0.6030 -0.4707 -0.0367
    2SAPS   O13  147   6.199   4.064   6.698  0.1962 -0.5419 -0.1183
    2SAPS   O14  148   6.354   4.138   6.881  0.2728  1.1232  0.5305
    2SAPS   O12  149   6.404   3.936   6.750  0.3646  0.0823 -0.2964
    2SAPS   O11  150   6.431   4.148   6.640  0.6009  0.4930  0.2052
    2SAPS    C1  151   6.514   4.072   6.552  0.7909 -0.1471 -0.2032
    2SAPS    HA  152   6.600   4.132   6.517 -0.3983  1.8467  0.1626
    2SAPS    HB  153   6.565   3.990   6.607 -0.0652 -0.7392 -0.2760
    2SAPS    C2  154   6.447   4.012   6.418 -0.3044 -0.4376  0.1782
    2SAPS    HS  155   6.376   3.932   6.449 -0.0934 -1.1263 -1.0249
    2SAPS   O21  156   6.555   3.960   6.338 -0.0006  0.1112  0.1043
    2SAPS   C21  157   6.603   3.846   6.384  0.2430  0.2913 -0.5492
    2SAPS   O22  158   6.567   3.788   6.488 -0.1661  0.2038  0.4058
    2SAPS   C22  159   6.700   3.784   6.289 -0.6135  0.2230  0.7491
    2SAPS   H2R  160   6.739   3.862   6.221  0.4434 -0.2545  0.7706
    2SAPS   H2S  161   6.791   3.763   6.350  0.7172  0.5181 -1.0296
    2SAPS    C3  162   6.371   4.123   6.349 -0.5393 -0.2917 -0.1889
    2SAPS    HX  163   6.444   4.199   6.314 -0.1756 -0.3513  0.4361
    2SAPS    HY  164   6.301   4.174   6.418  0.3575  1.2471 -0.3839
    2SAPS   O31  165   6.302   4.072   6.231  0.0682 -0.2768  0.4256
    2SAPS   C31  166   6.170   4.089   6.224  0.1545 -0.6242  0.0685
    2SAPS   O32  167   6.095   4.142   6.305 -0.5783 -0.0875 -0.4780
    2SAPS   C32  168   6.122   4.005   6.106 -0.3473 -0.4143 -0.1048
    2SAPS   H2X  169   6.015   3.977   6.116 -0.0463 -1.6682 -0.1940
    2SAPS   H2Y  170   6.185   3.914   6.118  0.7436  0.5013  1.4186
    2SAPS   C23  171   6.630   3.671   6.216  0.2560 -0.0792  0.2810
    2SAPS   H3R  172   6.588   3.600   6.290  2.2271 -2.4362 -0.7216
    2SAPS   H3S  173   6.710   3.614   6.165  0.5039 -0.0729  0.6624
    2SAPS   C24  174   6.510   3.708   6.128  0.5362  0.3651  0.8302
    2SAPS   H4R  175   6.429   3.757   6.186 -0.4244  3.1411 -2.5302
    2SAPS   H4S  176   6.473   3.614   6.082  0.6251 -0.0407  1.5758
    2SAPS   C25  177   6.540   3.816   6.018  0.2882  0.1695 -0.3761
    2SAPS   H5R  178   6.538   3.920   6.052 -0.8824  0.0617 -0.0719
    2SAPS   C26  179   6.585   3.784   5.897  0.0812  0.4153 -0.6920
    2SAPS   H6R  180   6.594   3.873   5.834  0.7629  1.0052  0.2133
    2SAPS   C27  181   6.603   3.655   5.831  0.2551  0.2139 -0.7328
    2SAPS   H7R  182   6.513   3.596   5.801  1.4673 -0.5027 -3.2858
    2SAPS   H7S  183   6.656   3.591   5.904 -0.6335 -0.3918 -0.6048
    2SAPS   C28  184   6.681   3.669   5.708  0.0236  0.1624  0.0570
    2SAPS   H8R  185   6.787   3.674   5.739  0.0558 -0.2223  0.0083
    2SAPS   C29  186   6.649   3.674   5.580 -0.5753  0.6210 -0.6875
    2SAPS   H9R  187   6.730   3.680   5.506 -0.8471 -1.2502 -1.1705
    2SAPS  C210  188   6.506   3.649   5.530  0.4902  0.0205 -0.1115
    2SAPS  H10R  189   6.431   3.683   5.604  0.4612 -0.4311  0.0642
    2SAPS  H10S  190   6.488   3.540   5.522 -1.1828  0.2904 -0.3604
    2SAPS  C211  191   6.464   3.722   5.404 -0.1940 -0.3898  0.0391
    2SAPS  H11R  192   6.495   3.827   5.398  2.0912 -1.0241 -0.6370
    2SAPS  C212  193   6.403   3.663   5.301 -0.0666  0.7136  0.1450
    2SAPS  H12R  194   6.368   3.737   5.227 -0.5697  1.2130  0.8643
    2SAPS  C213  195   6.349   3.517   5.286 -0.4650 -0.4178 -0.3901
    2SAPS  H13R  196   6.238   3.523   5.275 -0.4633 -0.2472 -0.3268
    2SAPS  H13S  197   6.359   3.460   5.381  0.3913 -1.6305 -1.1893
    2SAPS  C214  198   6.419   3.426   5.188  0.1511  0.0602 -0.7343
    2SAPS  H14R  199   6.524   3.455   5.174 -0.4257  2.3382 -0.7174
    2SAPS  C215  200   6.374   3.313   5.133  0.2732 -0.5796 -0.4512
    2SAPS  H15R  201   6.432   3.254   5.060 -1.3797 -0.4598 -1.9286
    2SAPS  C216  202   6.242   3.248   5.161  0.3093  0.9161  0.5096
    2SAPS  H16R  203   6.190   3.242   5.063 -0.3693 -1.0518  0.9276
    2SAPS  H16S  204   6.178   3.301   5.235  0.7545 -0.1763  1.7194
    2SAPS  C217  205   6.255   3.109   5.210 -0.0051  1.0258 -0.1460
    2SAPS  H17R  206   6.311   3.103   5.306  1.8577 -1.1471 -1.2805
    2SAPS  H17S  207   6.312   3.039   5.145  0.9601  0.2307  1.4862
    2SAPS  C218  208   6.114   3.045   5.234 -0.2096  0.1054  0.7240
    2SAPS  H18R  209   6.132   2.935   5.241  0.6725 -0.0008 -1.9065
    2SAPS  H18S  210   6.065   3.059   5.135 -0.3053  0.5193  0.8305
    2SAPS  C219  211   6.023   3.084   5.356 -0.2237  0.0615  0.1465
    2SAPS  H19R  212   5.992   3.190   5.352  0.4850  0.2939  0.6776
    2SAPS  H19S  213   6.092   3.066   5.441  1.4130 -2.0703 -1.4810
    2SAPS  C220  214   5.899   3.000   5.367  0.8509  0.8258  0.4369
    2SAPS  H20R  215   5.845   3.023   5.461 -0.2032 -1.9438  0.6116
    2SAPS  H20S  216   5.939   2.896   5.360 -1.1237  0.0192  0.4303
    2SAPS  H20T  217   5.828   3.016   5.283 -0.3440 -0.8531  1.0678
    2SAPS   C33  218   6.156   4.068   5.966 -0.7593  0.2201 -0.4065
    2SAPS   H3X  219   6.132   4.175   5.980 -0.0251  0.1771  1.5250
    2SAPS   H3Y  220   6.090   4.012   5.895 -1.1817 -0.9141  0.8346
    2SAPS   C34  221   6.293   4.046   5.910 -0.0305 -0.5510  0.2669
    2SAPS   H4X  222   6.307   3.938   5.890  2.6470 -0.2233 -0.0165
    2SAPS   H4Y  223   6.373   4.071   5.983 -0.9799  2.0012  0.5572
    2SAPS   C35  224   6.334   4.124   5.780  0.2031  0.5180 -0.2163
    2SAPS   H5X  225   6.289   4.225   5.768  0.5273  0.5872 -0.8510
    2SAPS   H5Y  226   6.304   4.071   5.687  2.5621 -2.3191  0.4809
    2SAPS   C36  227   6.486   4.142   5.771  0.3096 -0.2291  0.7821
    2SAPS   H6X  228   6.534   4.046   5.801 -2.2050 -2.1339 -0.8212
    2SAPS   H6Y  229   6.504   4.214   5.853 -0.6820  0.9653 -0.0163
    2SAPS   C37  230   6.541   4.198   5.636 -0.1951  0.0636 -0.4025
    2SAPS   H7X  231   6.649   4.221   5.648  0.5709 -3.0717 -0.2738
    2SAPS   H7Y  232   6.481   4.287   5.608  0.9101  0.6631 -0.9377
    2SAPS   C38  233   6.537   4.098   5.520  0.0537  0.3085 -0.3508
    2SAPS   H8X  234   6.429   4.074   5.514 -0.8546  2.7469  3.1525
    2SAPS   H8Y  235   6.588   4.000   5.530  0.7856  0.6923 -0.2644
    2SAPS   C39  236   6.585   4.159   5.388  0.0142 -0.4429  0.8013
    2SAPS   H9X  237   6.694   4.175   5.402  0.1003  1.5851 -1.5331
    2SAPS   H9Y  238   6.536   4.258   5.373  0.4658 -0.4969 -1.2206
    2SAPS  C310  239   6.577   4.066   5.263  0.3328 -0.3141 -0.1839
    2SAPS  H10X  240   6.475   4.023   5.257  1.4371 -3.0998 -0.6063
    2SAPS  H10Y  241   6.633   3.971   5.279  1.5825 -0.1173 -2.8062
    2SAPS  C311  242   6.617   4.149   5.142  0.1611  0.0538  0.3941
    2SAPS  H11X  243   6.707   4.206   5.172 -0.2932  1.2077 -0.3914
    2SAPS  H11Y  244   6.542   4.230   5.135  1.0867  1.0102  1.1904
    2SAPS  C312  245   6.623   4.065   5.012  0.2189  0.0022  0.4426
    2SAPS  H12X  246   6.647   3.958   5.026  1.0584  0.3184  1.5740
    2SAPS  H12Y  247   6.700   4.114   4.948 -0.0534 -1.1995 -0.8628
    2SAPS  C313  248   6.492   4.069   4.934 -0.0005  0.0626 -0.2639
    2SAPS  H13X  249   6.467   4.177   4.920  1.9763  0.5507 -0.2963
    2SAPS  H13Y  250   6.419   4.003   4.986  0.5250 -0.6916 -0.4689
    2SAPS  C314  251   6.510   4.019   4.795  0.7737 -0.3856  0.0918
    2SAPS  H14X  252   6.576   4.092   4.745 -2.3282  1.1532 -2.0795
    2SAPS  H14Y  253   6.409   4.027   4.750  1.3245 -2.7307 -1.7349
    2SAPS  C315  254   6.556   3.870   4.780 -0.6160 -0.4072 -0.3820
    2SAPS  H15X  255   6.667   3.867   4.787 -0.1687  0.1655 -4.6221
    2SAPS  H15Y  256   6.513   3.829   4.686  1.1528  1.0675 -1.9235
    2SAPS  C316  257   6.475   3.777   4.866  0.0117 -0.0768 -0.1956
    2SAPS  H16X  258   6.370   3.808   4.878 -0.0077  0.7955 -2.2075
    2SAPS  H16Y  259   6.524   3.790   4.965  1.6733  1.0008 -1.1027
    2SAPS  C317  260   6.476   3.622   4.838 -0.3633  0.0026  0.1450
    2SAPS  H17X  261   6.419   3.604   4.744 -1.9897 -0.0923  1.1118
    2SAPS  H17Y  262   6.419   3.569   4.917 -0.4230 -1.1457 -0.6387
    2SAPS  C318  263   6.619   3.568   4.818  0.0689 -0.2838 -0.2177
    2SAPS  H18X  264   6.660   3.596   4.718 -1.3489  1.6100 -0.3336
    2SAPS  H18Y  265   6.615   3.458   4.830 -0.0869 -0.0021  3.4081
    2SAPS  H18Z  266   6.682   3.602   4.903  1.0439 -2.2939 -0.0869
    3SAPS     N  267   5.110   2.475   7.106 -0.4433 -0.5156 -1.0078
    3SAPS   HN1  268   5.169   2.501   7.024  0.8351  0.5532  0.1930
    3SAPS   HN2  269   5.052   2.393   7.078 -1.1387  0.2335 -1.8214
    3SAPS   HN3  270   5.043   2.552   7.124 -1.1821 -1.3818  0.1022
    3SAPS   C12  271   5.199   2.448   7.224  0.0050  0.7905 -0.8488
    3SAPS  H12A  272   5.270   2.527   7.242  1.9696 -1.3135  1.3352
    3SAPS   C13  273   5.117   2.424   7.354 -0.0226  0.1920  0.4238
    3SAPS  O13A  274   4.990   2.413   7.340 -0.0671 -0.2320 -0.1240
    3SAPS  O13B  275   5.172   2.425   7.465 -0.8344  0.2878 -0.0724
    3SAPS   C11  276   5.300   2.337   7.182 -0.5387  0.2725  0.0577
    3SAPS  H11A  277   5.254   2.242   7.145  0.6361  0.3009 -1.5683
    3SAPS  H11B  278   5.366   2.314   7.269  2.0209 -1.6065 -2.2282
    3SAPS     P  279   5.534   2.316   7.056  0.2019 -0.1465  0.1066
    3SAPS   O13  280   5.631   2.426   7.063 -0.4798 -0.4647 -0.1771
    3SAPS   O14  281   5.552   2.197   7.138 -0.5441 -0.1513 -0.1004
    3SAPS   O12  282   5.385   2.379   7.074 -0.1491  0.2306 -0.6321
    3SAPS   O11  283   5.514   2.270   6.906 -0.2628  0.7176 -0.6509
    3SAPS    C1  284   5.413   2.167   6.884 -0.8013  0.3356 -0.1853
    3SAPS    HA  285   5.462   2.067   6.878 -0.9244  0.2500  0.2078
    3SAPS    HB  286   5.336   2.148   6.963  0.9166 -1.4604  1.1673
    3SAPS    C2  287   5.332   2.191   6.758 -0.2135 -0.6153 -0.1654
    3SAPS    HS  288   5.271   2.100   6.739 -2.6594  0.0247  3.5756
    3SAPS   O21  289   5.409   2.228   6.640  0.0629  0.0745  0.0204
    3SAPS   C21  290   5.490   2.137   6.604 -0.7425 -0.1639  0.3465
    3SAPS   O22  291   5.511   2.024   6.646  0.2929 -0.0265 -0.0525
    3SAPS   C22  292   5.556   2.186   6.466 -0.2400 -0.1778 -0.4960
    3SAPS   H2R  293   5.462   2.213   6.413 -0.6957  0.2448  0.5177
    3SAPS   H2S  294   5.627   2.269   6.489  0.8814 -1.2530 -0.0219
    3SAPS    C3  295   5.232   2.310   6.785 -0.2065  0.1614  0.0409
    3SAPS    HX  296   5.282   2.398   6.832  0.2943 -0.2849  0.3525
    3SAPS    HY  297   5.153   2.282   6.858 -0.8150 -0.0593 -0.6894
    3SAPS   O31  298   5.159   2.349   6.667  0.0733 -0.4878  0.6834
    3SAPS   C31  299   5.215   2.436   6.585 -0.0806 -0.0444  0.2445
    3SAPS   O32  300   5.317   2.502   6.605  0.4224  0.1985 -0.7665
    3SAPS   C32  301   5.135   2.454   6.459 -0.5694  0.0110 -0.4724
    3SAPS   H2X  302   5.079   2.549   6.469  1.2525  1.0150  0.9169
    3SAPS   H2Y  303   5.070   2.365   6.445  0.2215 -0.4003 -1.7565
    3SAPS   C23  304   5.629   2.090   6.367  0.3751 -0.2359 -0.0712
    3SAPS   H3R  305   5.555   2.008   6.364 -0.3232  0.3718  0.2872
    3SAPS   H3S  306   5.730   2.064   6.406  1.9265  1.6661 -2.5437
    3SAPS   C24  307   5.654   2.168   6.235 -0.6547  0.9414  0.5208
    3SAPS   H4R  308   5.716   2.259   6.253  2.3819 -0.5074 -1.5974
    3SAPS   H4S  309   5.559   2.211   6.197  0.2199  1.6283 -1.0004
    3SAPS   C25  310   5.714   2.083   6.125  0.1977 -0.0589 -0.3097
    3SAPS   H5R  311   5.731   1.983   6.168  1.6591  0.1204 -0.3989
    3SAPS   C26  312   5.752   2.115   5.997  0.5073 -0.2569 -0.3438
    3SAPS   H6R  313   5.792   2.033   5.935  1.0471  0.6998 -1.3005
    3SAPS   C27  314   5.748   2.252   5.930 -0.0895 -0.1397  0.3082
    3SAPS   H7R  315   5.744   2.331   6.008  2.5532  0.2918  0.0745
    3SAPS   H7S  316   5.657   2.263   5.867 -1.1644  0.1961  1.8613
    3SAPS   C28  317   5.873   2.280   5.856 -1.1235  0.4127  0.4886
    3SAPS   H8R  318   5.959   2.213   5.869 -2.3851 -1.3210  0.2519
    3SAPS   C29  319   5.892   2.359   5.747 -0.2126 -0.3449 -0.9416
    3SAPS   H9R  320   5.995   2.359   5.707 -0.0207 -0.2305 -0.4501
    3SAPS  C210  321   5.788   2.441   5.676  0.1714 -0.3576  0.4336
    3SAPS  H10R  322   5.819   2.546   5.659  1.3565 -0.7643 -0.0490
    3SAPS  H10S  323   5.692   2.437   5.733 -0.6458 -0.0030 -0.8746
    3SAPS  C211  324   5.769   2.364   5.550 -0.1441  0.4021  0.1020
    3SAPS  H11R  325   5.696   2.284   5.568  0.7585 -0.3850  0.3207
    3SAPS  C212  326   5.806   2.404   5.428 -0.6553  0.5343 -0.2079
    3SAPS  H12R  327   5.794   2.329   5.348 -0.2199  2.9700 -2.7316
    3SAPS  C213  328   5.899   2.519   5.395 -0.5476 -0.5668 -0.5738
    3SAPS  H13R  329   5.886   2.598   5.472  0.7229  0.1201 -1.0443
    3SAPS  H13S  330   5.873   2.573   5.302  3.3204  0.9181 -0.9648
    3SAPS  C214  331   6.046   2.480   5.389  0.0789  0.1810  0.5928
    3SAPS  H14R  332   6.091   2.393   5.438  1.3976 -1.0380 -2.5113
    3SAPS  C215  333   6.141   2.548   5.325 -0.1636 -0.5519 -0.1713
    3SAPS  H15R  334   6.248   2.531   5.342 -0.0538  0.8450  0.6391
    3SAPS  C216  335   6.113   2.675   5.255 -0.5189  0.2435 -0.7399
    3SAPS  H16R  336   6.145   2.764   5.313 -1.0404  2.3021 -3.4324
    3SAPS  H16S  337   6.009   2.691   5.220 -0.7946 -0.3918 -0.2327
    3SAPS  C217  338   6.211   2.677   5.132 -0.5968 -0.3421 -0.0419
    3SAPS  H17R  339   6.312   2.689   5.176 -0.7493 -1.4157  0.6431
    3SAPS  H17S  340   6.190   2.769   5.073 -1.8084  0.0776  1.0137
    3SAPS  C218  341   6.213   2.566   5.025 -0.3893  0.2747 -0.9641
    3SAPS  H18R  342   6.112   2.527   5.001 -0.1535 -0.2124 -1.1724
    3SAPS  H18S  343   6.252   2.476   5.076 -1.1541  0.9989  1.0092
    3SAPS  C219  344   6.296   2.590   4.903  0.2064  0.0352 -0.2656
    3SAPS  H19R  345   6.223   2.624   4.826  1.4256  0.4410 -1.2764
    3SAPS  H19S  346   6.371   2.671   4.914  0.9530 -0.6858 -0.0188
    3SAPS  C220  347   6.360   2.461   4.837 -0.6231 -0.4099 -0.1289
    3SAPS  H20R  348   6.409   2.469   4.738 -1.4446  0.3642 -0.4786
    3SAPS  H20S  349   6.285   2.380   4.823 -0.4067 -0.5511 -0.4972
    3SAPS  H20T  350   6.435   2.427   4.912 -0.2176 -0.3135 -0.4856
    3SAPS   C33  351   5.231   2.477   6.337 -0.3669 -0.1850  0.0573
    3SAPS   H3X  352   5.309   2.400   6.320  1.0894  1.2447  0.0092
    3SAPS   H3Y  353   5.285   2.572   6.353 -1.1473 -0.2141  3.5296
    3SAPS   C34  354   5.147   2.490   6.208  0.0386  1.1836  0.3831
    3SAPS   H4X  355   5.060   2.557   6.224  0.5312  2.0283 -0.3615
    3SAPS   H4Y  356   5.106   2.388   6.191 -0.0400  1.0394  1.4106
    3SAPS   C35  357   5.223   2.532   6.083  0.0312 -0.7940 -0.2012
    3SAPS   H5X  358   5.144   2.538   6.005  0.1805  1.1698 -0.2411
    3SAPS   H5Y  359   5.270   2.631   6.100 -0.9055 -0.5298  0.9566
    3SAPS   C36  360   5.328   2.432   6.032  1.0832 -0.4647 -0.3490
    3SAPS   H6X  361   5.286   2.329   6.029 -1.6803  0.5729 -0.7264
    3SAPS   H6Y  362   5.410   2.440   6.107 -0.6273 -1.8466  1.7746
    3SAPS   C37  363   5.390   2.455   5.895 -0.2935  0.4172  0.3973
    3SAPS   H7X  364   5.476   2.385   5.892 -0.8075 -0.2418  0.8382
    3SAPS   H7Y  365   5.424   2.561   5.893 -0.4589  0.4640 -0.5426
    3SAPS   C38  366   5.304   2.421   5.773 -1.2936 -0.5624  0.5796
    3SAPS   H8X  367   5.277   2.510   5.713 -0.0914  0.1243  1.0311
    3SAPS   H8Y  368   5.209   2.372   5.805 -1.3223 -1.9532 -1.4371
    3SAPS   C39  369   5.373   2.340   5.662 -0.5313  0.2916 -0.0823
    3SAPS   H9X  370   5.418   2.244   5.695  0.6219  0.5976 -0.6987
    3SAPS   H9Y  371   5.460   2.397   5.622  0.6592  0.9390  3.1417
    3SAPS  C310  372   5.269   2.301   5.555 -0.5510  0.8542 -0.6820
    3SAPS  H10X  373   5.217   2.389   5.512 -0.9587  1.3618  0.7917
    3SAPS  H10Y  374   5.199   2.239   5.615  1.3093 -1.4783 -0.7806
    3SAPS  C311  375   5.325   2.199   5.454 -0.2786  0.0461  0.1850
    3SAPS  H11X  376   5.248   2.132   5.410 -1.6661  1.2210  0.7301
    3SAPS  H11Y  377   5.401   2.133   5.500 -0.2894 -0.8497 -1.0346
    3SAPS  C312  378   5.394   2.276   5.333  0.7251 -0.1247  0.1728
    3SAPS  H12X  379   5.471   2.353   5.352 -0.9522  1.6561  0.0580
    3SAPS  H12Y  380   5.308   2.335   5.295  1.2982  0.9784  0.5355
    3SAPS  C313  381   5.458   2.171   5.231  0.1337 -0.2782  0.4015
    3SAPS  H13X  382   5.375   2.107   5.194  1.4414 -0.9220 -1.5600
    3SAPS  H13Y  383   5.528   2.109   5.291  0.0305  0.5006  1.3573
    3SAPS  C314  384   5.547   2.233   5.124  0.6598 -0.3997 -0.5180
    3SAPS  H14X  385   5.622   2.300   5.170  1.4664  0.5052 -2.9648
    3SAPS  H14Y  386   5.473   2.289   5.062 -2.0648 -0.1386  2.6854
    3SAPS  C315  387   5.609   2.131   5.036  0.7992 -0.3465  1.0335
    3SAPS  H15X  388   5.676   2.069   5.100  0.4671 -0.5408  1.1905
    3SAPS  H15Y  389   5.684   2.172   4.964  0.4253  0.4026  1.0618
    3SAPS  C316  390   5.516   2.035   4.956  0.2836 -0.6283  0.2844
    3SAPS  H16X  391   5.454   1.976   5.026 -0.3419  0.0769  0.3238
    3SAPS  H16Y  392   5.580   1.962   4.901 -0.8966  0.2348 -2.3648
    3SAPS  C317  393   5.419   2.108   4.857  0.1287 -0.1300  0.3697
    3SAPS  H17X  394   5.358   2.182   4.913  0.9105  0.2988  0.6802
    3SAPS  H17Y  395   5.337   2.039   4.827 -0.0675 -0.2066  1.0481
    3SAPS  C318  396   5.503   2.176   4.746 -0.2066  0.0165  0.1379
    3SAPS  H18X  397   5.438   2.225   4.670  1.4957  0.9701 -0.7460
    3SAPS  H18Y  398   5.552   2.090   4.696 -0.3210 -0.1150  0.2517
    3SAPS  H18Z  399   5.579   2.251   4.776  2.3279 -1.2834 -2.6002
    4SAPS     N  400   4.505   6.650   7.840  0.2283  0.1207  0.1381
    4SAPS   HN1  401   4.439   6.571   7.855  0.0415  0.4364  1.0893
    4SAPS   HN2  402   4.525   6.702   7.928 -2.6296 -0.0405  0.9823
    4SAPS   HN3  403   4.465   6.717   7.772  1.4298 -1.5066 -2.2783
    4SAPS   C12  404   4.638   6.607   7.782  0.6981 -0.4288  0.1237
    4SAPS  H12A  405   4.719   6.665   7.823  1.2070  0.8594 -2.5030
    4SAPS   C13  406   4.678   6.457   7.790 -0.2251 -0.5657  0.1368
    4SAPS  O13A  407   4.589   6.380   7.831  0.3017  0.6326  0.0609
    4SAPS  O13B  408   4.798   6.433   7.817 -0.2307  0.0490  0.0987
    4SAPS   C11  409   4.626   6.650   7.637 -0.1033 -0.1883 -0.1417
    4SAPS  H11A  410   4.532   6.606   7.597 -0.4608 -0.7998  1.3093
    4SAPS  H11B  411   4.708   6.611   7.573  0.4132  1.2234 -0.3854
    4SAPS     P  412   4.755   6.876   7.608  0.2063  0.1469 -0.5949
    4SAPS   O13  413   4.736   6.989   7.699  0.0548 -0.4491  0.8280
    4SAPS   O14  414   4.871   6.791   7.632  0.1374  0.3790  0.4471
    4SAPS   O12  415   4.619   6.791   7.628  0.2133  0.1638 -0.5182
    4SAPS   O11  416   4.752   6.930   7.462  0.6079  0.0249  0.2298
    4SAPS    C1  417   4.646   7.004   7.410  0.0442 -0.0572  0.4378
    4SAPS    HA  418   4.555   6.941   7.399 -0.4708  1.0336 -2.3652
    4SAPS    HB  419   4.610   7.087   7.474  3.0236  0.7323  1.2354
    4SAPS    C2  420   4.675   7.063   7.265  0.1393 -0.0425  0.0978
    4SAPS    HS  421   4.593   7.134   7.240 -0.0347  0.7386  2.6501
    4SAPS   O21  422   4.683   6.970   7.154 -0.1949  0.0576  0.7814
    4SAPS   C21  423   4.572   6.906   7.119  0.2413 -0.9203 -0.2240
    4SAPS   O22  424   4.464   6.920   7.179 -0.2078 -0.2214  0.8019
    4SAPS   C22  425   4.608   6.812   7.006  0.8187  0.0939  0.8222
    4SAPS   H2R  426   4.688   6.862   6.946 -0.2638 -1.5201 -2.1986
    4SAPS   H2S  427   4.653   6.725   7.059  1.3033  1.2424  2.3416
    4SAPS    C3  428   4.805   7.147   7.267 -0.6247 -0.7756 -0.3726
    4SAPS    HX  429   4.889   7.085   7.303  0.2004  0.4278 -0.1471
    4SAPS    HY  430   4.779   7.219   7.348 -0.8812 -0.8031 -0.4278
    4SAPS   O31  431   4.818   7.224   7.148  0.0634  0.4755  0.1753
    4SAPS   C31  432   4.932   7.203   7.077  0.5246 -0.3015 -0.6314
    4SAPS   O32  433   5.035   7.149   7.117  0.3171  0.2298  0.0320
    4SAPS   C32  434   4.905   7.268   6.939  0.6090  0.2808  0.4996
    4SAPS   H2X  435   4.937   7.374   6.930 -1.7746  0.8828 -2.2664
    4SAPS   H2Y  436   4.796   7.271   6.918  0.2507  1.5948  2.2192
    4SAPS   C23  437   4.485   6.771   6.919  0.0122 -0.4919  0.1856
    4SAPS   H3R  438   4.407   6.722   6.982 -0.2143  0.0563  0.3408
    4SAPS   H3S  439   4.510   6.694   6.844  0.1665  1.4865 -1.9250
    4SAPS   C24  440   4.422   6.893   6.856  0.1926 -0.5396 -0.0205
    4SAPS   H4R  441   4.388   6.962   6.935 -2.7805 -0.1650 -1.4752
    4SAPS   H4S  442   4.326   6.858   6.812  0.2836 -0.4763 -0.2730
    4SAPS   C25  443   4.508   6.959   6.752 -0.0334 -0.0545 -0.8719
    4SAPS   H5R  444   4.557   7.049   6.791  1.1757 -1.0713  0.0383
    4SAPS   C26  445   4.521   6.933   6.622 -0.0075  0.4287  0.3542
    4SAPS   H6R  446   4.604   6.980   6.566 -0.3121 -0.3681 -0.7980
    4SAPS   C27  447   4.454   6.821   6.549 -0.4442 -0.1326 -0.1856
    4SAPS   H7R  448   4.387   6.869   6.475 -2.3328  2.8384  3.1471
    4SAPS   H7S  449   4.385   6.756   6.608 -0.9575 -2.4102 -3.0606
    4SAPS   C28  450   4.563   6.738   6.491 -0.3033 -0.1757  0.4119
    4SAPS   H8R  451   4.588   6.653   6.557 -2.4961 -0.3164  1.1532
    4SAPS   C29  452   4.614   6.741   6.363  0.1687 -0.3229 -0.8287
    4SAPS   H9R  453   4.693   6.666   6.345  0.5951  0.1188 -0.8073
    4SAPS  C210  454   4.560   6.838   6.260  0.2959  0.2283  0.4760
    4SAPS  H10R  455   4.513   6.925   6.312 -0.5472 -0.7908  1.4656
    4SAPS  H10S  456   4.477   6.787   6.206 -0.3731 -1.0110  2.5767
    4SAPS  C211  457   4.667   6.894   6.169 -0.3185  0.3338  0.2628
    4SAPS  H11R  458   4.732   6.964   6.224  1.2905 -2.2357  1.8746
    4SAPS  C212  459   4.692   6.869   6.039 -0.9959 -0.6543 -0.3629
    4SAPS  H12R  460   4.771   6.926   5.988 -2.0357  0.3225 -0.9253
    4SAPS  C213  461   4.610   6.787   5.945 -0.4709  0.1385 -0.0228
    4SAPS  H13R  462   4.503   6.814   5.958 -0.7905 -0.1442 -1.8326
    4SAPS  H13S  463   4.612   6.679   5.974 -2.7960 -0.2531 -1.0916
    4SAPS  C214  464   4.650   6.785   5.799 -0.6196  0.1904 -0.1032
    4SAPS  H14R  465   4.687   6.882   5.762 -1.7575  0.9997  0.8218
    4SAPS  C215  466   4.639   6.687   5.706 -0.2411 -0.0165 -0.5471
    4SAPS  H15R  467   4.673   6.703   5.603 -0.5106  0.4249 -0.5665
    4SAPS  C216  468   4.575   6.556   5.741  0.0377 -0.0780  0.2405
    4SAPS  H16R  469   4.528   6.544   5.841  1.0493 -1.7649  0.5500
    4SAPS  H16S  470   4.651   6.475   5.747  0.3856  0.2717  0.6207
    4SAPS  C217  471   4.479   6.497   5.634 -0.0421 -0.1973  0.0369
    4SAPS  H17R  472   4.423   6.582   5.591 -1.9839 -1.1964  0.5031
    4SAPS  H17S  473   4.403   6.436   5.685 -2.2565  2.0533 -0.3857
    4SAPS  C218  474   4.551   6.415   5.522  0.5018  0.7059 -0.4634
    4SAPS  H18R  475   4.592   6.321   5.566 -0.6628  0.8968  1.1156
    4SAPS  H18S  476   4.628   6.482   5.478  0.7563  0.2612 -0.7036
    4SAPS  C219  477   4.449   6.381   5.413  0.1717 -0.7250 -0.1259
    4SAPS  H19R  478   4.406   6.474   5.370  3.6159  0.2046 -1.9398
    4SAPS  H19S  479   4.362   6.330   5.459  0.0020  1.1034  1.7481
    4SAPS  C220  480   4.518   6.303   5.305  0.3398 -0.0198  0.3271
    4SAPS  H20R  481   4.606   6.363   5.271 -0.3986  1.5917  1.1567
    4SAPS  H20S  482   4.450   6.279   5.220 -0.0977  0.0802  0.6463
    4SAPS  H20T  483   4.556   6.209   5.350 -1.8016 -1.1372 -0.0917
    4SAPS   C33  484   4.980   7.185   6.838 -0.0576  0.2765 -0.7123
    4SAPS   H3X  485   5.082   7.155   6.870 -0.5697 -0.6602  0.1111
    4SAPS   H3Y  486   5.000   7.249   6.750 -0.2442  0.2303 -0.7897
    4SAPS   C34  487   4.896   7.070   6.790 -0.3465 -0.1221 -0.7797
    4SAPS   H4X  488   4.805   7.111   6.742 -0.1161 -0.7883 -1.8043
    4SAPS   H4Y  489   4.863   7.009   6.877  0.6676 -0.4087 -0.5910
    4SAPS   C35  490   4.958   6.994   6.674 -0.2533 -0.8969 -0.6408
    4SAPS   H5X  491   4.905   6.896   6.666 -2.0599 -0.0152 -0.1387
    4SAPS   H5Y  492   5.062   6.975   6.705  0.2621 -1.3363 -2.5338
    4SAPS   C36  493   4.957   7.072   6.541 -0.2225  0.1992  0.0231
    4SAPS   H6X  494   5.020   7.164   6.546 -0.4996  0.5419 -1.9323
    4SAPS   H6Y  495   4.854   7.111   6.522 -0.3171  0.8957  1.7568
    4SAPS   C37  496   5.020   6.976   6.436 -0.1901 -0.0163 -0.6520
    4SAPS   H7X  497   4.969   6.878   6.434 -2.2526  0.9952 -1.3590
    4SAPS   H7Y  498   5.121   6.952   6.475 -0.5773 -0.7754 -0.1064
    4SAPS   C38  499   5.037   7.039   6.304  0.2939  0.1178 -0.9280
    4SAPS   H8X  500   5.123   7.109   6.303  0.6080 -0.1583  1.1932
    4SAPS   H8Y  501   4.944   7.091   6.275 -0.0136 -0.3072 -0.7276
    4SAPS   C39  502   5.060   6.938   6.189 -1.0314 -0.2945  0.1149
    4SAPS   H9X  503   4.962   6.891   6.167 -1.2402  0.4136 -0.5205
    4SAPS   H9Y  504   5.124   6.853   6.222  2.3245  1.3562 -1.6201
    4SAPS  C310  505   5.123   6.993   6.053  0.2410  1.0630 -0.0895
    4SAPS  H10X  506   5.104   6.909   5.984  3.3109  1.8886 -2.1797
    4SAPS  H10Y  507   5.232   7.009   6.069 -0.1243  3.8698  0.1409
    4SAPS  C311  508   5.055   7.118   5.997  0.6385  0.2416 -0.3969
    4SAPS  H11X  509   5.096   7.199   6.061 -0.0530 -0.6752  1.2365
    4SAPS  H11Y  510   4.946   7.104   6.012  0.7783  2.1130  3.6816
    4SAPS  C312  511   5.078   7.151   5.852  0.0652  0.3084 -0.0348
    4SAPS  H12X  512   5.185   7.172   5.831  0.9499 -1.1790  2.5969
    4SAPS  H12Y  513   5.032   7.252   5.838 -1.7604 -0.0196  2.6698
    4SAPS  C313  514   5.016   7.063   5.739 -0.4450 -0.2848 -1.0816
    4SAPS  H13X  515   4.958   7.134   5.676 -0.8415  0.6908  0.3392
    4SAPS  H13Y  516   4.946   6.995   5.790  1.2118 -0.7657  0.6826
    4SAPS  C314  517   5.131   6.986   5.656  0.2708 -0.0722  0.8519
    4SAPS  H14X  518   5.203   6.938   5.726  0.7122 -0.2972  0.2474
    4SAPS  H14Y  519   5.183   7.063   5.595  0.3099 -0.8969 -0.1852
    4SAPS  C315  520   5.065   6.875   5.566 -0.5848  0.4040 -0.0724
    4SAPS  H15X  521   5.000   6.820   5.638  0.4930  1.6562  1.9489
    4SAPS  H15Y  522   5.150   6.822   5.519 -1.2825  0.2602 -1.2147
    4SAPS  C316  523   4.974   6.941   5.465  0.2421  0.2722 -0.6778
    4SAPS  H16X  524   5.021   7.033   5.425  0.8725  1.0173  1.6354
    4SAPS  H16Y  525   4.872   6.955   5.505  0.3861 -1.0867  0.2177
    4SAPS  C317  526   4.943   6.848   5.337  0.2291 -0.3370  0.5187
    4SAPS  H17X  527   5.039   6.797   5.311 -0.3274 -0.5169 -1.3055
    4SAPS  H17Y  528   4.901   6.916   5.261  1.2228 -0.6933 -0.3813
    4SAPS  C318  529   4.836   6.744   5.369  0.5895 -0.1623 -0.1184
    4SAPS  H18X  530   4.742   6.799   5.389  0.6394  0.2976 -1.1302
    4SAPS  H18Y  531   4.867   6.680   5.455 -1.2247 -0.8861  0.0430
    4SAPS  H18Z  532   4.812   6.686   5.278  2.0303 -1.2948  0.1954
    5SAPS     N  533   6.192   3.572   7.211  0.2561 -0.6612 -0.4925
    5SAPS   HN1  534   6.128   3.558   7.131  0.6960 -1.0302 -0.7837
    5SAPS   HN2  535   6.146   3.631   7.284 -0.9594 -2.4637  0.2847
    5SAPS   HN3  536   6.279   3.611   7.171  2.4100 -2.7230  1.8488
    5SAPS   C12  537   6.235   3.443   7.271 -0.7249  0.0878  0.2846
    5SAPS  H12A  538   6.308   3.396   7.207 -1.8673 -1.3931  0.0273
    5SAPS   C13  539   6.290   3.439   7.415 -0.1511 -0.0377  0.1290
    5SAPS  O13A  540   6.298   3.542   7.483  0.5610 -0.1851 -0.3906
    5SAPS  O13B  541   6.343   3.332   7.452  0.2878  0.5935 -0.3181
    5SAPS   C11  542   6.110   3.339   7.257 -0.3635 -0.7591  0.3195
    5SAPS  H11A  543   6.024   3.374   7.319  0.7799  1.1794  0.9009
    5SAPS  H11B  544   6.137   3.242   7.302  0.4136 -1.5909 -1.8017
    5SAPS     P  545   6.021   3.181   7.062 -0.4108  0.2212 -0.0581
    5SAPS   O13  546   6.132   3.100   7.000 -0.1915  0.2247  0.5588
    5SAPS   O14  547   5.946   3.116   7.171 -0.1519  0.2075  0.1460
    5SAPS   O12  548   6.072   3.322   7.120  0.1960 -0.0278 -0.0290
    5SAPS   O11  549   5.916   3.234   6.956 -0.1287 -0.1542 -0.1817
    5SAPS    C1  550   5.828   3.349   6.984  0.0575  0.0300 -0.3174
    5SAPS    HA  551   5.861   3.421   7.062 -0.9163  0.2601 -0.1052
    5SAPS    HB  552   5.828   3.402   6.886  2.6974 -0.4874 -0.6933
    5SAPS    C2  553   5.686   3.313   7.021 -0.0925  0.9006  0.3176
    5SAPS    HS  554   5.686   3.274   7.125  0.5586 -1.5564 -0.5395
    5SAPS   O21  555   5.637   3.215   6.926 -0.0532  0.4430 -0.3617
    5SAPS   C21  556   5.611   3.096   6.961 -0.2024 -0.8160 -0.0473
    5SAPS   O22  557   5.630   3.049   7.075 -0.1373 -0.4332 -0.3467
    5SAPS   C22  558   5.550   3.018   6.843  0.1361  0.9656 -0.1343
    5SAPS   H2R  559   5.444   2.998   6.871  0.1891 -2.1629 -1.7191
    5SAPS   H2S  560   5.541   3.082   6.752 -0.7481  1.3953  0.2371
    5SAPS    C3  561   5.592   3.436   7.027  0.5758 -0.6174  0.0093
    5SAPS    HX  562   5.621   3.504   6.944  0.8682  0.4953  1.0040
    5SAPS    HY  563   5.610   3.486   7.124 -3.2214 -1.1220  1.1202
    5SAPS   O31  564   5.456   3.394   7.012 -0.3589 -0.2527  0.1166
    5SAPS   C31  565   5.385   3.439   6.905 -0.3177 -0.7204  0.8940
    5SAPS   O32  566   5.426   3.511   6.810 -0.0518  0.6719  0.3016
    5SAPS   C32  567   5.244   3.382   6.929 -0.1096  0.0631 -0.6136
    5SAPS   H2X  568   5.191   3.446   7.003  1.9622  0.2147  0.8053
    5SAPS   H2Y  569   5.255   3.284   6.981  0.8227  1.2761  1.6376
    5SAPS   C23  570   5.608   2.879   6.819 -0.5153 -0.0425  0.2160
    5SAPS   H3R  571   5.537   2.831   6.748 -0.9036  1.5405 -0.5016
    5SAPS   H3S  572   5.608   2.834   6.920  0.8083  1.3330  0.8662
    5SAPS   C24  573   5.743   2.881   6.747  0.1121 -0.3182  1.1480
    5SAPS   H4R  574   5.774   2.774   6.757 -1.3600 -0.6937  1.9210
    5SAPS   H4S  575   5.822   2.940   6.799  1.3881  0.0654 -1.1234
    5SAPS   C25  576   5.726   2.918   6.599  0.5997  0.6284 -1.0303
    5SAPS   H5R  577   5.708   3.025   6.582  0.8001  0.9381  0.5815
    5SAPS   C26  578   5.732   2.844   6.487 -0.3108 -0.1608  0.3904
    5SAPS   H6R  579   5.705   2.895   6.393 -0.5964 -1.0514 -0.0184
    5SAPS   C27  580   5.756   2.694   6.482 -0.6940 -0.6430 -0.3944
    5SAPS   H7R  581   5.736   2.648   6.582 -2.0183 -3.7351 -1.9433
    5SAPS   H7S  582   5.864   2.673   6.468 -0.6610  0.1311 -1.3946
    5SAPS   C28  583   5.677   2.620   6.383 -0.0997  0.1178 -0.3708
    5SAPS   H8R  584   5.588   2.566   6.418 -0.4684  1.0551  0.1741
    5SAPS   C29  585   5.698   2.618   6.248 -0.0417 -0.0258 -0.2912
    5SAPS   H9R  586   5.625   2.566   6.185  0.9315 -1.5176 -0.2486
    5SAPS  C210  587   5.810   2.696   6.180 -0.1847  0.4812  0.3415
    5SAPS  H10R  588   5.871   2.753   6.254 -0.3563  0.2640  0.6479
    5SAPS  H10S  589   5.772   2.785   6.124 -1.7124 -1.4017 -1.8081
    5SAPS  C211  590   5.897   2.612   6.086  0.9504  0.3354  0.0742
    5SAPS  H11R  591   5.922   2.509   6.116  0.8094  0.0483 -0.7670
    5SAPS  C212  592   5.945   2.648   5.965  0.3228  0.7638 -0.0852
    5SAPS  H12R  593   5.985   2.568   5.901 -1.3924  2.2979 -3.3486
    5SAPS  C213  594   5.931   2.782   5.896  0.1564  0.1603  0.0193
    5SAPS  H13R  595   5.911   2.868   5.963 -1.2162  1.4588 -1.9557
    5SAPS  H13S  596   5.835   2.780   5.839  0.7131 -0.9537 -0.9119
    5SAPS  C214  597   6.049   2.806   5.804  0.1008  0.1671  0.5998
    5SAPS  H14R  598   6.059   2.742   5.715  1.7875  1.3669 -0.1259
    5SAPS  C215  599   6.147   2.900   5.816  0.6201 -0.6005  0.3693
    5SAPS  H15R  600   6.231   2.897   5.745 -1.6239 -0.8917 -2.4548
    5SAPS  C216  601   6.156   3.011   5.916 -0.3409  0.2198  0.2057
    5SAPS  H16R  602   6.211   2.995   6.011 -1.9056  2.0078  1.5018
    5SAPS  H16S  603   6.055   3.045   5.948 -0.7221  0.1152 -0.8392
    5SAPS  C217  604   6.220   3.124   5.836  0.2702 -0.3020  0.7251
    5SAPS  H17R  605   6.301   3.096   5.765  0.4261  0.0276  0.7717
    5SAPS  H17S  606   6.258   3.199   5.909 -2.3411  0.0663  1.8206
    5SAPS  C218  607   6.124   3.200   5.750 -0.2475  0.8931  0.0851
    5SAPS  H18R  608   6.056   3.267   5.807  0.5845  0.7200  1.3003
    5SAPS  H18S  609   6.055   3.130   5.697  0.4684  0.5151 -0.3580
    5SAPS  C219  610   6.197   3.292   5.655  0.1226  0.1372  0.2037
    5SAPS  H19R  611   6.268   3.235   5.592 -1.0921 -1.0020 -0.1685
    5SAPS  H19S  612   6.259   3.369   5.706 -1.9568  1.2247  1.2447
    5SAPS  C220  613   6.094   3.366   5.563 -0.1335  0.3898 -0.0481
    5SAPS  H20R  614   6.128   3.408   5.467 -1.5870 -1.3870 -1.4061
    5SAPS  H20S  615   6.046   3.443   5.628 -1.0195  0.0803 -0.3149
    5SAPS  H20T  616   6.014   3.293   5.537  0.8692 -0.6592 -0.2743
    5SAPS   C33  617   5.173   3.363   6.793 -0.1329 -0.8775 -0.9738
    5SAPS   H3X  618   5.176   3.453   6.729  1.2966 -1.1029 -1.2599
    5SAPS   H3Y  619   5.064   3.345   6.805 -0.7143 -0.2790 -4.2384
    5SAPS   C34  620   5.225   3.242   6.716  0.4917  0.6836 -0.3135
    5SAPS   H4X  621   5.219   3.156   6.784 -0.5286 -1.0445 -2.4603
    5SAPS   H4Y  622   5.331   3.257   6.687  0.3201  0.4178 -1.1049
    5SAPS   C35  623   5.140   3.205   6.595 -0.3404  0.4865 -0.0684
    5SAPS   H5X  624   5.030   3.194   6.605 -0.3687  0.3809 -0.4810
    5SAPS   H5Y  625   5.170   3.099   6.581  3.3409  1.1976  1.3154
    5SAPS   C36  626   5.182   3.265   6.460 -0.1745  0.2936  1.3123
    5SAPS   H6X  627   5.278   3.218   6.432 -1.1733 -0.3177 -1.3853
    5SAPS   H6Y  628   5.196   3.375   6.469  1.3620  0.2400 -0.0904
    5SAPS   C37  629   5.066   3.233   6.358 -0.7699  0.6345 -0.7033
    5SAPS   H7X  630   4.978   3.288   6.397  1.3415  2.6511  1.5853
    5SAPS   H7Y  631   5.054   3.124   6.339 -0.9509  0.3804  0.7397
    5SAPS   C38  632   5.097   3.308   6.235  0.2087  0.0054  0.2547
    5SAPS   H8X  633   5.205   3.323   6.214  0.1900  1.7939  1.2825
    5SAPS   H8Y  634   5.052   3.409   6.234 -1.6155 -0.7614 -1.0345
    5SAPS   C39  635   5.050   3.229   6.107  0.5537  0.4838 -0.3043
    5SAPS   H9X  636   4.939   3.239   6.111  0.5644  0.5182 -0.0748
    5SAPS   H9Y  637   5.067   3.119   6.108  0.6909  0.4855 -1.3876
    5SAPS  C310  638   5.105   3.289   5.979 -0.1382  0.7516  0.4021
    5SAPS  H10X  639   5.215   3.287   5.964 -0.2393 -0.3515 -0.3150
    5SAPS  H10Y  640   5.071   3.395   5.974  2.0571  1.5126  0.6070
    5SAPS  C311  641   5.048   3.228   5.846 -1.2192 -0.1360  0.5146
    5SAPS  H11X  642   5.071   3.119   5.847  0.2726  0.1453  0.1450
    5SAPS  H11Y  643   5.112   3.276   5.769 -0.9302  0.7668  1.2793
    5SAPS  C312  644   4.896   3.238   5.829  0.3944 -0.7472 -0.2951
    5SAPS  H12X  645   4.836   3.205   5.917 -2.7972  2.5437 -1.0120
    5SAPS  H12Y  646   4.867   3.175   5.743  2.3045 -0.9867 -0.8165
    5SAPS  C313  647   4.847   3.384   5.794  0.5141 -0.3243  0.1569
    5SAPS  H13X  648   4.880   3.441   5.884 -0.0863 -2.2378  1.6554
    5SAPS  H13Y  649   4.736   3.393   5.794  0.5486  0.3189 -0.9381
    5SAPS  C314  650   4.911   3.434   5.659  0.3133 -0.2453 -0.3154
    5SAPS  H14X  651   5.019   3.409   5.651  0.3276 -0.7046  1.1033
    5SAPS  H14Y  652   4.902   3.544   5.645  0.3180 -0.3941 -1.5687
    5SAPS  C315  653   4.840   3.378   5.535  0.2686 -0.9738  0.4822
    5SAPS  H15X  654   4.730   3.380   5.555  0.4468 -0.7268  1.4952
    5SAPS  H15Y  655   4.854   3.269   5.521  1.3051 -0.8986  0.8331
    5SAPS  C316  656   4.880   3.440   5.399  0.2315  0.1604  0.7011
    5SAPS  H16X  657   4.985   3.414   5.373 -0.1190 -0.4869 -0.0891
    5SAPS  H16Y  658   4.862   3.550   5.399 -1.5902 -0.1078  0.6782
    5SAPS  C317  659   4.784   3.374   5.294 -1.0496 -0.2193  0.2637
    5SAPS  H17X  660   4.680   3.404   5.321 -0.6681 -0.3015  1.8842
    5SAPS  H17Y  661   4.790   3.263   5.294  0.9859 -0.1731  1.6740
    5SAPS  C318  662   4.814   3.430   5.160  0.5191 -0.7398  0.5048
    5SAPS  H18X  663   4.913   3.395   5.124  2.1194  1.1823  2.7148
    5SAPS  H18Y  664   4.817   3.541   5.155  3.1796 -0.7849 -0.4093
    5SAPS  H18Z  665   4.734   3.399   5.090  0.2999  2.1826 -0.6590
    6SAPS     N  666   3.164   3.261   7.467 -0.0978  0.2120  0.1103
    6SAPS   HN1  667   3.146   3.160   7.483 -1.9365  0.4989  0.1120
    6SAPS   HN2  668   3.107   3.319   7.533 -0.1141  0.5509 -0.1998
    6SAPS   HN3  669   3.124   3.288   7.375 -0.0962 -0.2927 -0.0384
    6SAPS   C12  670   3.308   3.305   7.484  0.1943  0.7041  0.3118
    6SAPS  H12A  671   3.317   3.408   7.452 -0.3078  0.7836  0.4138
    6SAPS   C13  672   3.370   3.303   7.624  0.0559  1.0455 -0.0646
    6SAPS  O13A  673   3.292   3.268   7.721 -0.4735 -0.0884  0.3672
    6SAPS  O13B  674   3.491   3.335   7.640  0.1242  0.3918  0.1982
    6SAPS   C11  675   3.390   3.216   7.383 -0.3299 -0.0869  0.1560
    6SAPS  H11A  676   3.403   3.120   7.438  0.1138  0.5636  1.2227
    6SAPS  H11B  677   3.490   3.259   7.363 -0.4628  0.4660  0.6421
    6SAPS     P  678   3.272   3.072   7.205  0.1468 -0.0930 -0.2276
    6SAPS   O13  679   3.388   3.006   7.144 -0.1986 -0.2156 -0.7754
    6SAPS   O14  680   3.200   2.990   7.308 -0.4978 -0.3040  0.4296
    6SAPS   O12  681   3.319   3.209   7.262 -0.1950 -0.0685 -0.2151
    6SAPS   O11  682   3.179   3.118   7.083 -0.5894  0.1672 -0.3530
    6SAPS    C1  683   3.210   3.245   7.022 -0.0788 -0.1872  0.6272
    6SAPS    HA  684   3.143   3.321   7.066 -0.5245 -1.0548  1.4873
    6SAPS    HB  685   3.316   3.273   7.034 -0.8499  2.6448  1.4970
    6SAPS    C2  686   3.172   3.226   6.872  0.3453  0.1132 -0.0182
    6SAPS    HS  687   3.192   3.320   6.818  0.1644 -0.0694 -0.4112
    6SAPS   O21  688   3.026   3.188   6.871 -0.3446 -0.5075 -0.1438
    6SAPS   C21  689   2.965   3.224   6.762  0.1361 -0.0387 -0.1184
    6SAPS   O22  690   3.006   3.290   6.673  0.5225  0.7413 -0.1679
    6SAPS   C22  691   2.815   3.194   6.785 -0.1454 -0.1928 -0.4901
    6SAPS   H2R  692   2.802   3.098   6.839  0.4595 -0.1970 -0.3406
    6SAPS   H2S  693   2.780   3.266   6.862  1.1173  0.2488 -0.2986
    6SAPS    C3  694   3.253   3.115   6.795 -0.4929  0.2706 -0.1886
    6SAPS    HX  695   3.222   3.017   6.836 -1.5591 -0.1506 -1.9016
    6SAPS    HY  696   3.363   3.112   6.812 -0.3923  1.6943 -0.4053
    6SAPS   O31  697   3.235   3.117   6.655  0.0132  0.8914  0.1404
    6SAPS   C31  698   3.289   3.221   6.587  0.2360  0.1172  0.6057
    6SAPS   O32  699   3.355   3.307   6.636 -0.1095  0.0187  0.4572
    6SAPS   C32  700   3.256   3.201   6.437  0.3926 -0.1117 -0.2081
    6SAPS   H2X  701   3.148   3.225   6.425  0.5599  1.0695  0.4079
    6SAPS   H2Y  702   3.262   3.091   6.426 -2.7409 -0.5182  1.0464
    6SAPS   C23  703   2.721   3.200   6.666 -0.1174  0.5141  0.8580
    6SAPS   H3R  704   2.748   3.295   6.615 -0.9557 -0.3953 -1.3934
    6SAPS   H3S  705   2.616   3.204   6.702 -0.3415  0.0487  0.2741
    6SAPS   C24  706   2.737   3.073   6.592  0.8231  0.2822 -0.0975
    6SAPS   H4R  707   2.712   2.985   6.656 -1.5804 -0.3308 -1.7076
    6SAPS   H4S  708   2.840   3.056   6.556  0.7108  1.8888 -1.2774
    6SAPS   C25  709   2.649   3.071   6.473 -0.3802  0.2404 -0.5143
    6SAPS   H5R  710   2.549   3.031   6.493 -1.8594  3.8044 -0.1254
    6SAPS   C26  711   2.681   3.105   6.347 -0.1129  0.4950  0.4781
    6SAPS   H6R  712   2.598   3.090   6.276  0.5969  1.1055 -0.4888
    6SAPS   C27  713   2.804   3.176   6.293  0.3685  0.4337  0.2784
    6SAPS   H7R  714   2.885   3.175   6.369 -0.9197  0.1700  1.6980
    6SAPS   H7S  715   2.779   3.284   6.286  0.6867  0.5084  0.2576
    6SAPS   C28  716   2.846   3.124   6.157  0.5729  0.0501  0.2825
    6SAPS   H8R  717   2.895   3.026   6.165 -3.0358 -2.1092 -1.2834
    6SAPS   C29  718   2.844   3.183   6.037 -0.6395 -0.1170 -0.1638
    6SAPS   H9R  719   2.864   3.122   5.947  0.0320  1.1746 -0.9211
    6SAPS  C210  720   2.787   3.322   6.015  1.4880 -0.1078  0.2146
    6SAPS  H10R  721   2.700   3.357   6.075  0.4042 -1.6361 -0.3835
    6SAPS  H10S  722   2.740   3.314   5.915  0.9099  0.5462  0.4270
    6SAPS  C211  723   2.902   3.416   6.014 -0.6408  0.2166 -0.4300
    6SAPS  H11R  724   2.941   3.451   6.110  2.3204  0.8895 -1.7667
    6SAPS  C212  725   2.978   3.460   5.914 -0.6859  0.2500  0.9222
    6SAPS  H12R  726   3.061   3.530   5.933 -1.0878  1.6442 -1.8744
    6SAPS  C213  727   2.961   3.427   5.761  0.5356 -0.1202 -0.1166
    6SAPS  H13R  728   2.959   3.522   5.704 -0.2912  0.4891  0.8931
    6SAPS  H13S  729   2.857   3.395   5.744  1.0334 -0.8808 -1.9602
    6SAPS  C214  730   3.065   3.325   5.724  0.2283 -0.4428  0.4546
    6SAPS  H14R  731   3.067   3.232   5.782  1.4742 -1.2269 -0.7709
    6SAPS  C215  732   3.151   3.335   5.623 -0.6039  0.1256  0.1890
    6SAPS  H15R  733   3.221   3.251   5.610  1.9736  1.6265  3.0808
    6SAPS  C216  734   3.159   3.452   5.525 -0.0976  0.2227  0.5557
    6SAPS  H16R  735   3.220   3.423   5.436 -0.1081 -1.7459  1.1606
    6SAPS  H16S  736   3.211   3.533   5.581 -0.5861  0.0162  1.3181
    6SAPS  C217  737   3.039   3.514   5.449  0.4256  0.4597 -0.1548
    6SAPS  H17R  738   2.987   3.580   5.522 -0.6374 -1.1991  0.6650
    6SAPS  H17S  739   2.961   3.438   5.426  0.0792  0.3213  1.3824
    6SAPS  C218  740   3.072   3.595   5.316 -0.4712 -0.0205  0.1506
    6SAPS  H18R  741   2.978   3.637   5.275  0.6372  2.2856 -0.2062
    6SAPS  H18S  742   3.123   3.527   5.244  1.0182  1.2508 -0.0440
    6SAPS  C219  743   3.162   3.708   5.349 -0.1318  0.8971 -0.2387
    6SAPS  H19R  744   3.260   3.661   5.368 -0.9998 -0.5822  0.8452
    6SAPS  H19S  745   3.116   3.763   5.434 -0.4366  0.6260 -0.2238
    6SAPS  C220  746   3.170   3.825   5.245 -0.0186  0.5545  0.5218
    6SAPS  H20R  747   3.198   3.779   5.148 -2.9004  1.3624 -0.8082
    6SAPS  H20S  748   3.247   3.891   5.290  0.5366 -1.9342  3.5637
    6SAPS  H20T  749   3.074   3.875   5.220  0.3971  0.4039 -1.5379
    6SAPS   C33  750   3.349   3.280   6.351  0.0419 -0.2260 -0.0394
    6SAPS   H3X  751   3.445   3.225   6.340  0.4816  0.8453 -2.0375
    6SAPS   H3Y  752   3.370   3.383   6.387 -1.7177  1.0395 -2.3705
    6SAPS   C34  753   3.302   3.304   6.210 -0.0396  0.3805  0.2093
    6SAPS   H4X  754   3.201   3.346   6.194  0.5756  1.1679 -1.9417
    6SAPS   H4Y  755   3.307   3.203   6.163 -0.7796  0.3589  0.1577
    6SAPS   C35  756   3.407   3.386   6.130  0.5008 -0.6706 -0.0261
    6SAPS   H5X  757   3.511   3.351   6.150  0.2176 -1.1060  0.7364
    6SAPS   H5Y  758   3.405   3.494   6.157 -1.1004 -0.6053 -0.3126
    6SAPS   C36  759   3.398   3.372   5.976  0.4648 -0.2284 -0.3692
    6SAPS   H6X  760   3.311   3.435   5.949 -0.1873  0.2380  2.4929
    6SAPS   H6Y  761   3.375   3.266   5.950 -1.1167  0.0280 -0.0958
    6SAPS   C37  762   3.526   3.420   5.911  0.6123 -0.4232 -0.3187
    6SAPS   H7X  763   3.623   3.371   5.936  0.1530 -0.7469  0.8807
    6SAPS   H7Y  764   3.555   3.525   5.929  1.3602 -0.0155 -3.2579
    6SAPS   C38  765   3.523   3.411   5.758 -0.6569 -0.8912  0.0510
    6SAPS   H8X  766   3.593   3.486   5.715 -1.5921  0.6887  1.1495
    6SAPS   H8Y  767   3.417   3.432   5.734 -0.0280  1.7294 -0.8180
    6SAPS   C39  768   3.567   3.270   5.707  0.1451  0.1346  0.2506
    6SAPS   H9X  769   3.510   3.187   5.753 -0.0292  0.2396  0.2266
    6SAPS   H9Y  770   3.674   3.249   5.731 -0.1198 -1.4994  0.1153
    6SAPS  C310  771   3.544   3.270   5.553  0.7990 -0.0804 -0.4624
    6SAPS  H10X  772   3.569   3.372   5.517  2.3673 -0.3253 -0.1605
    6SAPS  H10Y  773   3.435   3.256   5.541  0.0474  4.0444  0.1501
    6SAPS  C311  774   3.622   3.169   5.480  0.3057 -0.1905  0.8728
    6SAPS  H11X  775   3.591   3.063   5.489  1.4145 -0.8216 -1.7822
    6SAPS  H11Y  776   3.727   3.185   5.516  0.7913 -0.9970 -0.1470
    6SAPS  C312  777   3.609   3.191   5.328  0.1768  0.6181  0.6204
    6SAPS  H12X  778   3.658   3.284   5.291  1.5694 -0.2210  0.3193
    6SAPS  H12Y  779   3.500   3.187   5.305  0.4273 -2.2367 -0.4355
    6SAPS  C313  780   3.670   3.085   5.242 -0.3707 -0.0577  0.1065
    6SAPS  H13X  781   3.625   2.993   5.284  0.1440  0.6743  2.4632
    6SAPS  H13Y  782   3.780   3.082   5.253 -0.4544 -2.4057  0.6821
    6SAPS  C314  783   3.622   3.095   5.095  0.1866 -0.2391  0.4589
    6SAPS  H14X  784   3.655   3.184   5.037  0.7617  0.4551  1.8175
    6SAPS  H14Y  785   3.511   3.090   5.094  0.2037 -0.7172 -0.0703
    6SAPS  C315  786   3.669   2.981   5.008 -0.5097  0.1801  0.0477
    6SAPS  H15X  787   3.740   2.914   5.061  0.3005 -1.1893 -2.6077
    6SAPS  H15Y  788   3.735   3.026   4.931  1.2547 -1.9527  0.2244
    6SAPS  C316  789   3.563   2.884   4.944 -0.8938  0.1658  0.4188
    6SAPS  H16X  790   3.601   2.809   4.872  0.9067  1.5318 -0.1300
    6SAPS  H16Y  791   3.506   2.962   4.889 -1.3998 -0.9203 -0.6458
    6SAPS  C317  792   3.459   2.820   5.036 -0.0243 -0.2502 -0.6700
    6SAPS  H17X  793   3.382   2.777   4.968 -1.0299  0.2826  0.1138
    6SAPS  H17Y  794   3.416   2.885   5.115 -3.5578 -2.1965 -0.7730
    6SAPS  C318  795   3.521   2.698   5.102 -0.4563 -0.7860  0.0685
    6SAPS  H18X  796   3.449   2.618   5.127 -0.9583  0.0584  1.4312
    6SAPS  H18Y  797   3.570   2.725   5.199 -2.4279  0.5331  0.7707
    6SAPS  H18Z  798   3.606   2.661   5.040  0.2504 -0.4930  0.8346
    7SAPS     N  799   4.592   3.741   7.741  0.8077 -0.5422 -0.0024
    7SAPS   HN1  800   4.506   3.686   7.720  0.6430  0.2999 -1.7656
    7SAPS   HN2  801   4.643   3.718   7.828 -1.7181  2.6847  2.6343
    7SAPS   HN3  802   4.556   3.837   7.757  3.0638  0.5012 -0.7670
    7SAPS   C12  803   4.677   3.741   7.620 -0.0504 -0.8452  0.9058
    7SAPS  H12A  804   4.738   3.829   7.633 -2.0136  1.0842 -1.7972
    7SAPS   C13  805   4.764   3.617   7.604 -0.5936 -0.2197 -0.3356
    7SAPS  O13A  806   4.748   3.517   7.681  0.4194 -1.0218  0.1488
    7SAPS  O13B  807   4.850   3.621   7.515 -0.1192  0.3855 -0.0580
    7SAPS   C11  808   4.596   3.757   7.487  0.3759  0.2776  0.6080
    7SAPS  H11A  809   4.521   3.675   7.479  0.1375  0.4932  0.6395
    7SAPS  H11B  810   4.672   3.745   7.406  2.4953  1.1133  2.3652
    7SAPS     P  811   4.587   4.012   7.397 -0.0954  0.0169 -0.1980
    7SAPS   O13  812   4.476   4.109   7.380  0.2022  0.0866  0.3869
    7SAPS   O14  813   4.702   4.065   7.477  1.1114  0.4187 -0.0639
    7SAPS   O12  814   4.533   3.880   7.468 -0.1525 -0.6796 -0.1425
    7SAPS   O11  815   4.636   3.961   7.262  0.2262  0.1587  0.3661
    7SAPS    C1  816   4.533   3.917   7.170  0.3911 -0.2829  0.0692
    7SAPS    HA  817   4.518   3.809   7.190  1.5763 -0.2444  1.2387
    7SAPS    HB  818   4.438   3.973   7.188  0.7779  0.2997  0.3052
    7SAPS    C2  819   4.581   3.942   7.027  0.8769 -0.3271 -0.7142
    7SAPS    HS  820   4.493   3.953   6.960  0.1238  1.7858  0.5253
    7SAPS   O21  821   4.666   3.833   6.974 -0.3230  0.5134 -0.9078
    7SAPS   C21  822   4.603   3.722   6.949  0.2433  0.2813 -0.3800
    7SAPS   O22  823   4.481   3.714   6.949 -0.2277  0.1798  0.1617
    7SAPS   C22  824   4.698   3.605   6.914 -0.6068 -0.4081  0.1848
    7SAPS   H2R  825   4.800   3.650   6.904 -0.7310 -0.4052 -1.3526
    7SAPS   H2S  826   4.696   3.537   7.001  4.6336  0.9033  1.6928
    7SAPS    C3  827   4.658   4.073   7.008 -0.0833 -0.3145 -0.6332
    7SAPS    HX  828   4.753   4.071   7.066 -0.5173  0.6163  0.1478
    7SAPS    HY  829   4.591   4.151   7.051  0.4224  1.0585 -2.2170
    7SAPS   O31  830   4.678   4.112   6.871  0.5066  1.1239  0.5458
    7SAPS   C31  831   4.783   4.059   6.804 -0.2891 -0.2904 -0.0498
    7SAPS   O32  832   4.882   4.011   6.851  0.1287  0.4565 -0.1946
    7SAPS   C32  833   4.768   4.104   6.657  0.2255  0.2330  0.7069
    7SAPS   H2X  834   4.787   4.214   6.658  2.0339 -0.0552  1.8179
    7SAPS   H2Y  835   4.660   4.082   6.639  0.2047 -0.0496  1.1535
    7SAPS   C23  836   4.655   3.523   6.799 -0.3196  0.9930 -0.7088
    7SAPS   H3R  837   4.552   3.483   6.812  0.3072 -0.3647  0.4272
    7SAPS   H3S  838   4.725   3.436   6.798 -0.8951  0.4082  1.7631
    7SAPS   C24  839   4.656   3.589   6.666 -0.0396 -0.5283 -0.0748
    7SAPS   H4R  840   4.615   3.691   6.685 -1.6470 -0.9840 -0.9376
    7SAPS   H4S  841   4.571   3.559   6.601 -0.0816  0.4023 -0.4660
    7SAPS   C25  842   4.789   3.612   6.599  0.2900 -0.5741 -0.1023
    7SAPS   H5R  843   4.879   3.596   6.660 -0.2639 -0.6559  0.7083
    7SAPS   C26  844   4.814   3.648   6.471  0.2928  0.2978  0.0802
    7SAPS   H6R  845   4.918   3.659   6.439  0.1595 -1.0963 -0.9360
    7SAPS   C27  846   4.724   3.681   6.360  0.2292 -0.6254  0.2331
    7SAPS   H7R  847   4.746   3.780   6.316 -2.6153  0.3370  0.7567
    7SAPS   H7S  848   4.621   3.693   6.399  0.1624  1.0413 -0.3652
    7SAPS   C28  849   4.732   3.562   6.257  0.6969 -0.1640 -0.3142
    7SAPS   H8R  850   4.762   3.463   6.294  0.7103 -0.0104  0.0874
    7SAPS   C29  851   4.724   3.579   6.122  0.4889  0.0106  0.1142
    7SAPS   H9R  852   4.726   3.483   6.070 -3.3299  0.5737 -1.3821
    7SAPS  C210  853   4.677   3.697   6.047 -0.5595  0.0993  0.3262
    7SAPS  H10R  854   4.754   3.750   5.987  2.0724 -0.1661  3.1720
    7SAPS  H10S  855   4.627   3.773   6.111 -2.6421 -0.2046 -0.8626
    7SAPS  C211  856   4.565   3.647   5.953 -0.0383 -0.4206 -0.3041
    7SAPS  H11R  857   4.488   3.583   5.998  0.0735 -0.5595 -0.3119
    7SAPS  C212  858   4.567   3.669   5.816  1.2134  0.2151 -0.4856
    7SAPS  H12R  859   4.488   3.610   5.765  0.4615  0.1935  0.6635
    7SAPS  C213  860   4.661   3.744   5.731  0.2479  0.0943  0.1393
    7SAPS  H13R  861   4.769   3.727   5.753  0.7916  0.5600 -1.9680
    7SAPS  H13S  862   4.647   3.853   5.753  1.3114  0.0196  1.3146
    7SAPS  C214  863   4.639   3.710   5.586 -0.0360  1.0970  1.1176
    7SAPS  H14R  864   4.668   3.609   5.551 -0.8995  0.1984  2.8426
    7SAPS  C215  865   4.587   3.782   5.487  0.3489 -0.1051  0.2383
    7SAPS  H15R  866   4.574   3.737   5.388  3.1707 -1.5841  0.4369
    7SAPS  C216  867   4.527   3.919   5.511 -0.2618 -0.1296  0.2270
    7SAPS  H16R  868   4.533   3.961   5.613  1.2653  1.1686 -0.3635
    7SAPS  H16S  869   4.420   3.889   5.502 -0.5534 -0.0729  2.8603
    7SAPS  C217  870   4.557   4.019   5.398 -0.6991 -0.2822  0.7945
    7SAPS  H17R  871   4.666   4.023   5.377 -0.8090 -0.0890  0.2300
    7SAPS  H17S  872   4.531   4.123   5.425  0.9179  0.2169  0.5242
    7SAPS  C218  873   4.495   3.981   5.260 -0.0884 -0.0953 -0.4425
    7SAPS  H18R  874   4.515   3.874   5.239 -0.3373 -0.0109 -1.1306
    7SAPS  H18S  875   4.556   4.029   5.181  1.9391 -2.1277 -0.1859
    7SAPS  C219  876   4.349   4.005   5.240  0.1516  0.0404  0.5013
    7SAPS  H19R  877   4.329   4.114   5.242  2.6330  0.5841 -0.1936
    7SAPS  H19S  878   4.301   3.945   5.319 -2.4836  0.5222 -0.6320
    7SAPS  C220  879   4.306   3.940   5.102 -0.0511 -0.2503  0.2694
    7SAPS  H20R  880   4.374   3.964   5.017  0.1520 -0.4444  0.3770
    7SAPS  H20S  881   4.208   3.974   5.063  1.0976  3.1599  0.0203
    7SAPS  H20T  882   4.289   3.831   5.111 -1.1830 -0.1519 -0.4315
    7SAPS   C33  883   4.867   4.038   6.563 -0.6566 -1.0262 -0.5423
    7SAPS   H3X  884   4.864   3.928   6.546  1.3765 -1.0434 -1.1070
    7SAPS   H3Y  885   4.969   4.064   6.600 -0.9205  0.1455 -0.6264
    7SAPS   C34  886   4.844   4.088   6.414 -0.2628 -0.4076 -0.1310
    7SAPS   H4X  887   4.842   4.199   6.409  3.4980 -0.0811  2.2901
    7SAPS   H4Y  888   4.741   4.055   6.388 -0.5479 -0.4163  0.9768
    7SAPS   C35  889   4.960   4.031   6.324  0.7609  0.2275 -0.1076
    7SAPS   H5X  890   4.978   3.925   6.351 -1.5452 -0.1479  0.0829
    7SAPS   H5Y  891   5.048   4.096   6.346 -0.1515  1.0926  1.0905
    7SAPS   C36  892   4.934   4.057   6.173 -0.1994  0.4327 -0.6369
    7SAPS   H6X  893   4.902   4.163   6.166  0.3357  0.4980 -2.7337
    7SAPS   H6Y  894   4.848   3.997   6.138 -0.8188  1.8813 -1.7181
    7SAPS   C37  895   5.057   4.043   6.088  0.4221  0.0081  0.2658
    7SAPS   H7X  896   5.082   3.937   6.066  2.8219  0.9051 -1.8326
    7SAPS   H7Y  897   5.141   4.098   6.136  1.7151 -1.2708 -0.4480
    7SAPS   C38  898   5.036   4.093   5.946  0.4395  0.1006  0.1410
    7SAPS   H8X  899   5.131   4.085   5.889  0.7728  2.1092  0.3343
    7SAPS   H8Y  900   5.011   4.201   5.948  2.2559  0.5561  1.6112
    7SAPS   C39  901   4.913   4.031   5.871  0.3093  0.1589  0.0457
    7SAPS   H9X  902   4.828   4.044   5.941  0.5660 -0.6136  0.5176
    7SAPS   H9Y  903   4.933   3.922   5.878 -0.7221  0.0022  0.8026
    7SAPS  C310  904   4.892   4.071   5.723 -0.1746  0.0052 -0.2192
    7SAPS  H10X  905   4.822   4.007   5.666  1.3911 -0.3121 -1.8811
    7SAPS  H10Y  906   4.988   4.050   5.670  0.9972 -2.7640  2.6813
    7SAPS  C311  907   4.837   4.215   5.720 -0.1810  0.2953 -0.3208
    7SAPS  H11X  908   4.889   4.281   5.793  1.1777  0.1534 -1.1346
    7SAPS  H11Y  909   4.733   4.219   5.759 -0.4280 -0.8400 -0.8341
    7SAPS  C312  910   4.833   4.286   5.586 -0.4702 -0.2872 -0.1642
    7SAPS  H12X  911   4.799   4.222   5.501 -0.5336 -0.7013  0.1675
    7SAPS  H12Y  912   4.927   4.324   5.542 -1.5161  0.3847 -1.9005
    7SAPS  C313  913   4.730   4.398   5.595  0.1607 -0.1047 -0.4052
    7SAPS  H13X  914   4.739   4.452   5.692 -1.7677 -0.7145  0.1640
    7SAPS  H13Y  915   4.626   4.361   5.607  0.0216  0.8542  1.8911
    7SAPS  C314  916   4.748   4.492   5.474 -0.4707  0.1037 -0.0096
    7SAPS  H14X  917   4.702   4.443   5.386 -0.9590  1.1801 -0.3662
    7SAPS  H14Y  918   4.854   4.511   5.445 -0.5196 -0.0394 -0.2897
    7SAPS  C315  919   4.680   4.629   5.490 -0.5143 -0.3230  0.4187
    7SAPS  H15X  920   4.733   4.697   5.560  2.0381  0.1074 -1.7477
    7SAPS  H15Y  921   4.581   4.596   5.528 -1.6807 -0.9005 -2.7593
    7SAPS  C316  922   4.662   4.705   5.356 -0.3957  0.1493 -0.0518
    7SAPS  H16X  923   4.585   4.784   5.362  1.5140  2.6382 -3.9386
    7SAPS  H16Y  924   4.633   4.637   5.273 -1.7038  0.3842  0.1959
    7SAPS  C317  925   4.783   4.785   5.300  0.0408 -0.5124  0.2081
    7SAPS  H17X  926   4.865   4.714   5.274  1.1200  0.3392  1.1465
    7SAPS  H17Y  927   4.813   4.848   5.387 -0.1535  0.2395 -0.2530
    7SAPS  C318  928   4.755   4.881   5.186  0.3219  0.5341  0.4531
    7SAPS  H18X  929   4.830   4.962   5.179 -0.5321  1.4508  1.4345
    7SAPS  H18Y  930   4.661   4.937   5.205 -0.4107 -0.7834  0.9211
    7SAPS  H18Z  931   4.746   4.833   5.087 -0.5660  1.6388 -0.0226
    8SAPS     N  932   3.720   5.227   7.537  0.2801 -0.5353 -0.2616
    8SAPS   HN1  933   3.724   5.124   7.551 -1.9479 -0.9498 -2.0569
    8SAPS   HN2  934   3.679   5.260   7.626  0.9743 -3.6493  1.3466
    8SAPS   HN3  935   3.664   5.239   7.450 -0.3095 -1.3915 -0.0178
    8SAPS   C12  936   3.855   5.272   7.510 -0.3114  0.4286  0.2064
    8SAPS  H12A  937   3.847   5.377   7.483 -0.3336  0.9587  2.0828
    8SAPS   C13  938   3.937   5.265   7.646  0.2144 -0.0759  0.0129
    8SAPS  O13A  939   3.895   5.207   7.749 -0.6213  0.5563  0.1398
    8SAPS  O13B  940   4.038   5.335   7.659 -0.6646 -0.3143 -0.1284
    8SAPS   C11  941   3.914   5.171   7.406 -0.2725 -0.2870  0.0375
    8SAPS  H11A  942   3.923   5.072   7.456 -2.2424 -0.0605  0.9262
    8SAPS  H11B  943   4.015   5.204   7.373  0.0870  0.9131  2.1465
    8SAPS     P  944   3.771   5.039   7.208 -0.1956 -0.4762  0.0447
    8SAPS   O13  945   3.671   4.970   7.294 -0.4352 -0.1530 -0.2497
    8SAPS   O14  946   3.732   5.078   7.074 -0.2009 -0.5647 -0.2262
    8SAPS   O12  947   3.831   5.163   7.291 -0.1974 -0.1441  0.8358
    8SAPS   O11  948   3.890   4.941   7.199  0.2106  0.9678  0.3613
    8SAPS    C1  949   4.028   4.975   7.195 -0.1955  0.0362 -0.5353
    8SAPS    HA  950   4.053   5.078   7.163 -0.7016  0.1592 -0.5430
    8SAPS    HB  951   4.077   4.967   7.295 -0.2201 -0.5045 -0.5595
    8SAPS    C2  952   4.110   4.884   7.095  0.5738 -0.4713  0.3221
    8SAPS    HS  953   4.219   4.901   7.106  0.6771  0.1052 -1.3778
    8SAPS   O21  954   4.064   4.898   6.966  0.2841 -0.5893 -0.3159
    8SAPS   C21  955   4.045   5.013   6.906  1.1329  0.4478  0.0089
    8SAPS   O22  956   4.097   5.119   6.939  0.1217 -0.1042  0.2972
    8SAPS   C22  957   3.933   5.001   6.803 -0.1221  0.2661  0.2466
    8SAPS   H2R  958   3.932   4.898   6.763 -0.9435  0.8146 -1.2116
    8SAPS   H2S  959   3.843   5.026   6.863 -0.2719  0.8431 -0.2127
    8SAPS    C3  960   4.085   4.726   7.137  0.5755 -0.5283  0.3443
    8SAPS    HX  961   3.976   4.706   7.138  0.9292 -2.9327  2.3996
    8SAPS    HY  962   4.129   4.711   7.238  3.0780  0.0877 -0.5876
    8SAPS   O31  963   4.134   4.632   7.048 -0.3818 -0.6441 -0.1102
    8SAPS   C31  964   4.264   4.628   7.036  0.9506 -0.3366  0.1913
    8SAPS   O32  965   4.344   4.691   7.106  0.0502  1.0858  0.1872
    8SAPS   C32  966   4.294   4.524   6.928 -0.4539 -0.2249  0.5475
    8SAPS   H2X  967   4.245   4.570   6.840 -0.1202 -0.1909  0.3789
    8SAPS   H2Y  968   4.239   4.428   6.941 -0.9567  0.0093  0.2162
    8SAPS   C23  969   3.945   5.106   6.687 -0.1684 -0.3250  0.3430
    8SAPS   H3R  970   4.011   5.079   6.602  1.5343  0.1672  1.4636
    8SAPS   H3S  971   3.980   5.204   6.724 -2.8805  1.3001 -1.0574
    8SAPS   C24  972   3.805   5.145   6.625  0.6364 -0.3139  0.7078
    8SAPS   H4R  973   3.747   5.184   6.711  1.9364  0.1112  1.4028
    8SAPS   H4S  974   3.760   5.053   6.580 -2.5358  1.6441 -0.4684
    8SAPS   C25  975   3.800   5.261   6.529 -0.0388  0.2066  0.1255
    8SAPS   H5R  976   3.805   5.354   6.587 -0.8620  0.4641 -0.1915
    8SAPS   C26  977   3.805   5.254   6.389  0.1675 -0.0424 -0.8789
    8SAPS   H6R  978   3.794   5.346   6.329 -0.4503  0.0718 -0.6010
    8SAPS   C27  979   3.784   5.131   6.302 -0.2021 -0.3880 -0.2686
    8SAPS   H7R  980   3.692   5.150   6.243 -0.2622  1.9642  0.4667
    8SAPS   H7S  981   3.767   5.038   6.360  0.6793 -1.4334 -1.6181
    8SAPS   C28  982   3.907   5.093   6.228 -0.4998 -0.4916 -0.1490
    8SAPS   H8R  983   3.981   5.053   6.300  0.4733  0.0176 -0.8403
    8SAPS   C29  984   3.937   5.096   6.097  0.5366 -0.0980 -0.4790
    8SAPS   H9R  985   4.033   5.056   6.062  0.7093 -0.0872 -0.0296
    8SAPS  C210  986   3.838   5.149   5.991  0.3431  1.0197 -0.7070
    8SAPS  H10R  987   3.747   5.086   6.006 -0.3461  1.9700 -0.8475
    8SAPS  H10S  988   3.886   5.126   5.893 -0.0967  1.3972 -1.0139
    8SAPS  C211  989   3.806   5.295   5.998 -0.0330 -0.6083 -0.5947
    8SAPS  H11R  990   3.791   5.335   6.099  2.0663 -1.2018  0.0222
    8SAPS  C212  991   3.790   5.381   5.899  0.1877  0.5754  0.6367
    8SAPS  H12R  992   3.755   5.485   5.912 -1.6387  0.3554 -1.8118
    8SAPS  C213  993   3.788   5.336   5.753 -0.8967  0.7169 -0.3697
    8SAPS  H13R  994   3.731   5.418   5.703 -0.2717  1.8598  0.7519
    8SAPS  H13S  995   3.740   5.239   5.726  0.6251  0.2246 -1.4078
    8SAPS  C214  996   3.925   5.322   5.685 -0.7540  0.0181 -0.0164
    8SAPS  H14R  997   3.973   5.421   5.687  1.4481 -0.9947  0.9805
    8SAPS  C215  998   3.980   5.218   5.621  0.7546 -0.9754  0.3152
    8SAPS  H15R  999   4.074   5.231   5.564 -0.1987  1.3261 -0.8643
    8SAPS  C216 1000   3.921   5.080   5.597 -0.8398 -0.9174 -0.4211
    8SAPS  H16R 1001   3.828   5.064   5.656  0.4335 -0.4278  1.8408
    8SAPS  H16S 1002   3.993   5.001   5.625 -0.4567 -0.8608 -1.2414
    8SAPS  C217 1003   3.902   5.068   5.444 -0.0291 -0.5530 -0.1765
    8SAPS  H17R 1004   3.872   4.965   5.416  2.2781 -1.0422 -1.0296
    8SAPS  H17S 1005   4.001   5.086   5.397  0.2006  0.6183  0.7072
    8SAPS  C218 1006   3.805   5.174   5.395 -0.1738  0.2507  0.4051
    8SAPS  H18R 1007   3.843   5.275   5.422 -1.4948  0.5442  1.2739
    8SAPS  H18S 1008   3.712   5.152   5.452 -0.0352 -1.8057 -0.1016
    8SAPS  C219 1009   3.763   5.164   5.244  0.1337  0.2703 -0.3903
    8SAPS  H19R 1010   3.723   5.065   5.214  1.7238  0.3744 -3.2072
    8SAPS  H19S 1011   3.856   5.181   5.187  0.8222  1.2729  0.9767
    8SAPS  C220 1012   3.662   5.271   5.218  0.4543 -0.3089  0.1678
    8SAPS  H20R 1013   3.618   5.280   5.116 -0.7604 -0.4701  0.6631
    8SAPS  H20S 1014   3.706   5.370   5.242  2.9747 -1.4101  0.3493
    8SAPS  H20T 1015   3.578   5.269   5.291 -0.9065 -2.1434 -1.3326
    8SAPS   C33 1016   4.443   4.496   6.912  0.3182 -0.0544  0.4564
    8SAPS   H3X 1017   4.490   4.477   7.011  2.3445  3.4912  0.3238
    8SAPS   H3Y 1018   4.499   4.586   6.877 -1.1165  0.7514  0.1668
    8SAPS   C34 1019   4.475   4.386   6.811  0.6579 -0.1702  0.5923
    8SAPS   H4X 1020   4.440   4.286   6.845  1.9088 -0.4543  1.1346
    8SAPS   H4Y 1021   4.586   4.384   6.807  0.6938  0.0517  1.2218
    8SAPS   C35 1022   4.421   4.414   6.666  0.3626 -0.6457  0.0739
    8SAPS   H5X 1023   4.443   4.516   6.628 -1.4661  0.3370  1.5035
    8SAPS   H5Y 1024   4.313   4.400   6.647  0.5295 -0.0830 -1.4522
    8SAPS   C36 1025   4.483   4.313   6.569 -0.3103  0.0058  0.6918
    8SAPS   H6X 1026   4.465   4.206   6.594  0.8556 -0.4336 -0.2313
    8SAPS   H6Y 1027   4.594   4.321   6.564 -0.1358 -1.8837  0.5901
    8SAPS   C37 1028   4.448   4.345   6.424 -0.0166  0.0315  0.9216
    8SAPS   H7X 1029   4.417   4.450   6.403 -0.3854 -0.4892 -1.4903
    8SAPS   H7Y 1030   4.356   4.290   6.394  0.0259  0.5868 -0.3098
    8SAPS   C38 1031   4.559   4.315   6.318  0.3564  0.5901 -0.0388
    8SAPS   H8X 1032   4.563   4.205   6.300 -1.6340 -0.4001  4.2965
    8SAPS   H8Y 1033   4.656   4.341   6.364  0.5661  1.0384 -0.7189
    8SAPS   C39 1034   4.547   4.396   6.189 -0.0545  0.1368  0.2448
    8SAPS   H9X 1035   4.457   4.391   6.124  0.9428 -2.6632 -1.1237
    8SAPS   H9Y 1036   4.632   4.358   6.128 -0.9295  0.2748 -1.0944
    8SAPS  C310 1037   4.586   4.545   6.216  0.4496  0.4971 -0.9305
    8SAPS  H10X 1038   4.677   4.544   6.279  0.1472 -1.5708 -0.4496
    8SAPS  H10Y 1039   4.508   4.599   6.273 -0.4298 -0.6244 -1.0290
    8SAPS  C311 1040   4.609   4.624   6.086  0.0310  0.0023  0.2855
    8SAPS  H11X 1041   4.515   4.614   6.026  1.5152  2.1384 -2.6585
    8SAPS  H11Y 1042   4.688   4.580   6.022  0.4270 -0.7724  1.2725
    8SAPS  C312 1043   4.636   4.770   6.104 -0.1234  0.2797  0.4261
    8SAPS  H12X 1044   4.724   4.779   6.171 -0.5720  0.9421  0.9432
    8SAPS  H12Y 1045   4.552   4.829   6.147 -1.4425  0.0956 -1.7313
    8SAPS  C313 1046   4.665   4.849   5.975 -0.7899 -0.0532 -0.0977
    8SAPS  H13X 1047   4.765   4.818   5.938 -1.9246 -2.1257 -1.6101
    8SAPS  H13Y 1048   4.676   4.954   6.012  2.0334 -0.4495  0.4428
    8SAPS  C314 1049   4.561   4.838   5.858  0.1657  0.2179  0.6444
    8SAPS  H14X 1050   4.456   4.852   5.892 -0.4068 -0.9688 -0.5244
    8SAPS  H14Y 1051   4.569   4.739   5.808  0.4186  0.6104 -0.1028
    8SAPS  C315 1052   4.604   4.941   5.751  0.1533  0.4369 -0.5525
    8SAPS  H15X 1053   4.704   4.915   5.711  0.4490  2.4876 -1.2483
    8SAPS  H15Y 1054   4.629   5.040   5.793  2.3185 -1.0825  2.1337
    8SAPS  C316 1055   4.510   4.937   5.631  0.6580 -0.3435  0.2921
    8SAPS  H16X 1056   4.403   4.942   5.659  0.6290 -0.7351  0.2697
    8SAPS  H16Y 1057   4.515   4.832   5.593  1.2475 -0.8743  1.7398
    8SAPS  C317 1058   4.517   5.042   5.517 -0.0324  0.1783 -0.2160
    8SAPS  H17X 1059   4.606   5.014   5.456 -0.3837 -2.6439  0.4302
    8SAPS  H17Y 1060   4.539   5.137   5.570  2.2610 -0.3373 -0.1215
    8SAPS  C318 1061   4.394   5.043   5.434  0.5255 -0.3514 -0.0969
    8SAPS  H18X 1062   4.335   4.950   5.445  0.7406 -0.5040 -0.2242
    8SAPS  H18Y 1063   4.420   5.070   5.329 -0.4964  0.3856 -0.1746
    8SAPS  H18Z 1064   4.334   5.126   5.476 -0.9435 -1.1901 -0.4707
    9SAPS     N 1065   1.803   3.620   7.242 -0.2153 -0.2269 -0.9569
    9SAPS   HN1 1066   1.835   3.672   7.327 -0.5916  0.9430 -1.5175
    9SAPS   HN2 1067   1.885   3.592   7.185  0.4457 -1.7175  0.6376
    9SAPS   HN3 1068   1.733   3.679   7.193 -2.3070 -0.3073  1.7021
    9SAPS   C12 1069   1.720   3.501   7.277  0.5462  0.8484  0.7233
    9SAPS  H12A 1070   1.787   3.428   7.319 -0.1664  0.3008  0.9338
    9SAPS   C13 1071   1.614   3.529   7.387  0.5620 -0.1523 -0.8794
    9SAPS  O13A 1072   1.579   3.647   7.419 -0.4061  0.5246  0.3799
    9SAPS  O13B 1073   1.556   3.432   7.441 -0.3312 -0.3279  0.2349
    9SAPS   C11 1074   1.646   3.436   7.153  0.1535  0.4751 -0.3293
    9SAPS  H11A 1075   1.579   3.508   7.102  1.7159 -0.4084 -3.9363
    9SAPS  H11B 1076   1.579   3.357   7.195 -0.4876  1.3818  0.3853
    9SAPS     P 1077   1.682   3.272   6.954 -0.5339 -0.5826  0.0550
    9SAPS   O13 1078   1.790   3.189   6.906 -0.2305  0.0434  0.6463
    9SAPS   O14 1079   1.570   3.203   7.018 -0.1493 -0.0807  0.1283
    9SAPS   O12 1080   1.743   3.373   7.058 -0.3463 -1.2564 -0.2225
    9SAPS   O11 1081   1.629   3.364   6.828 -0.7588 -0.2202  0.0346
    9SAPS    C1 1082   1.665   3.501   6.804  0.0461 -0.7093 -0.5028
    9SAPS    HA 1083   1.587   3.576   6.829 -0.0930 -0.4825 -1.5714
    9SAPS    HB 1084   1.759   3.521   6.860 -0.0182  1.8692 -1.2038
    9SAPS    C2 1085   1.698   3.513   6.648  0.1689 -0.2661  0.6423
    9SAPS    HS 1086   1.760   3.604   6.630 -0.0400 -0.5935 -2.3454
    9SAPS   O21 1087   1.578   3.499   6.565 -0.2712 -0.1467  0.5156
    9SAPS   C21 1088   1.510   3.612   6.570  0.0640  0.1165  0.1966
    9SAPS   O22 1089   1.537   3.711   6.640 -0.2311  0.2626  0.0230
    9SAPS   C22 1090   1.402   3.611   6.456  0.5644  0.9103 -0.1540
    9SAPS   H2R 1091   1.318   3.543   6.479  0.4163  0.5761 -1.6008
    9SAPS   H2S 1092   1.348   3.708   6.462  0.9563  1.1606 -0.6146
    9SAPS    C3 1093   1.802   3.413   6.606 -0.6599 -0.3284  0.0271
    9SAPS    HX 1094   1.791   3.309   6.644  1.4581 -0.3353  0.7947
    9SAPS    HY 1095   1.903   3.434   6.648 -1.2574  1.3450  0.7413
    9SAPS   O31 1096   1.807   3.405   6.459  0.1220 -0.3663 -0.3338
    9SAPS   C31 1097   1.874   3.495   6.399 -0.9069 -0.6594 -0.0205
    9SAPS   O32 1098   1.939   3.580   6.455 -0.0194 -0.2425 -0.3649
    9SAPS   C32 1099   1.849   3.500   6.248  0.8179  0.9655 -0.5368
    9SAPS   H2X 1100   1.845   3.608   6.223  0.5372  0.6036 -2.1636
    9SAPS   H2Y 1101   1.745   3.464   6.236  1.6435 -1.5316 -0.7761
    9SAPS   C23 1102   1.462   3.588   6.317  0.5896 -0.1634 -0.5587
    9SAPS   H3R 1103   1.468   3.479   6.293  1.8638 -0.0092 -1.0423
    9SAPS   H3S 1104   1.561   3.638   6.320 -1.0388  3.2754 -0.0470
    9SAPS   C24 1105   1.373   3.659   6.217 -0.0863  0.3101  0.0495
    9SAPS   H4R 1106   1.419   3.667   6.116  1.1368  0.5480  0.6051
    9SAPS   H4S 1107   1.362   3.768   6.236 -0.7051  0.4619 -1.0853
    9SAPS   C25 1108   1.239   3.591   6.198 -0.1106 -0.5119  0.1709
    9SAPS   H5R 1109   1.190   3.585   6.296  0.5702  1.7087  0.6914
    9SAPS   C26 1110   1.184   3.538   6.090 -1.2272  0.2206  0.1369
    9SAPS   H6R 1111   1.079   3.505   6.100 -0.4700 -2.2413  0.6369
    9SAPS   C27 1112   1.260   3.539   5.953 -0.6592 -0.5773 -0.0368
    9SAPS   H7R 1113   1.330   3.625   5.945  0.9147 -1.5917  1.8038
    9SAPS   H7S 1114   1.192   3.565   5.870  0.2414 -0.0716 -0.6287
    9SAPS   C28 1115   1.344   3.415   5.924  0.2279  0.5027  0.1936
    9SAPS   H8R 1116   1.346   3.342   6.006 -1.1481 -0.0385 -0.2131
    9SAPS   C29 1117   1.410   3.402   5.809  0.1916  0.1406  0.0551
    9SAPS   H9R 1118   1.459   3.304   5.797  0.0020 -0.2851  2.2507
    9SAPS  C210 1119   1.427   3.507   5.710 -0.2603 -0.1045 -0.5003
    9SAPS  H10R 1120   1.537   3.515   5.691 -0.2801 -0.3259 -0.7140
    9SAPS  H10S 1121   1.382   3.602   5.747  1.8344  0.2277  1.4128
    9SAPS  C211 1122   1.367   3.481   5.580  0.4034  0.4217  0.5710
    9SAPS  H11R 1123   1.258   3.466   5.587  0.5132  0.2402  2.3620
    9SAPS  C212 1124   1.428   3.468   5.462  0.4879 -0.7938 -0.0801
    9SAPS  H12R 1125   1.363   3.463   5.374  0.1645  0.1165  0.0990
    9SAPS  C213 1126   1.573   3.472   5.434  0.0031  0.1765 -0.3901
    9SAPS  H13R 1127   1.593   3.385   5.367 -0.2266  1.0799 -1.6740
    9SAPS  H13S 1128   1.634   3.448   5.524 -0.0876 -1.1106 -0.6487
    9SAPS  C214 1129   1.620   3.602   5.372 -0.1117 -0.1051  0.2277
    9SAPS  H14R 1130   1.646   3.676   5.449 -0.5861  0.2866  0.0178
    9SAPS  C215 1131   1.620   3.639   5.242 -0.2697 -0.2330  0.0564
    9SAPS  H15R 1132   1.660   3.740   5.222  0.1413 -0.2372  0.8132
    9SAPS  C216 1133   1.581   3.552   5.125 -0.3399 -0.3016  0.7440
    9SAPS  H16R 1134   1.511   3.605   5.056  2.3541  1.5764 -0.6987
    9SAPS  H16S 1135   1.526   3.458   5.148  0.3572 -1.9854 -3.4975
    9SAPS  C217 1136   1.706   3.516   5.046 -0.4504 -0.0968  0.3469
    9SAPS  H17R 1137   1.768   3.444   5.105  0.1047  0.4278  0.4154
    9SAPS  H17S 1138   1.761   3.610   5.026 -2.0589  0.8918  0.4127
    9SAPS  C218 1139   1.687   3.451   4.905 -0.0205  0.3458  0.4345
    9SAPS  H18R 1140   1.595   3.495   4.861  0.8265 -0.1785 -2.0304
    9SAPS  H18S 1141   1.657   3.346   4.928  0.9677 -0.1367 -0.3619
    9SAPS  C219 1142   1.803   3.472   4.797  0.0254  0.2324 -0.9086
    9SAPS  H19R 1143   1.888   3.405   4.822 -0.6862 -0.1626  0.5794
    9SAPS  H19S 1144   1.840   3.576   4.811 -0.7294  0.5733 -1.3605
    9SAPS  C220 1145   1.751   3.449   4.654 -0.0196 -0.0689  0.5481
    9SAPS  H20R 1146   1.712   3.345   4.649  1.6273 -0.6726 -0.2887
    9SAPS  H20S 1147   1.829   3.468   4.578  0.4337 -0.1775  0.9847
    9SAPS  H20T 1148   1.660   3.509   4.632 -0.6293 -1.5971 -1.4780
    9SAPS   C33 1149   1.946   3.401   6.169  0.1827 -0.4255 -0.2888
    9SAPS   H3X 1150   1.939   3.293   6.191 -0.1790 -0.3016  0.2305
    9SAPS   H3Y 1151   2.052   3.425   6.195 -0.3712 -1.3321  3.4335
    9SAPS   C34 1152   1.930   3.405   6.019 -0.1772  0.1296  0.3361
    9SAPS   H4X 1153   1.972   3.499   5.978  1.8208 -1.3971 -1.3138
    9SAPS   H4Y 1154   1.820   3.400   6.003 -0.4835  1.1785  1.9053
    9SAPS   C35 1155   1.999   3.297   5.946 -0.0460 -0.3977  0.4778
    9SAPS   H5X 1156   1.957   3.202   5.986 -2.4953  0.7636  0.8751
    9SAPS   H5Y 1157   2.107   3.305   5.970 -0.2000  0.6071  0.8978
    9SAPS   C36 1158   1.984   3.302   5.790 -0.0959 -0.1650  0.0937
    9SAPS   H6X 1159   2.063   3.232   5.754 -0.7144 -2.1888  2.3697
    9SAPS   H6Y 1160   1.999   3.402   5.744 -1.2071  0.7290  1.5989
    9SAPS   C37 1161   1.851   3.240   5.747 -0.6890  0.2325 -0.4148
    9SAPS   H7X 1162   1.772   3.307   5.788 -2.5041 -1.2623 -1.3183
    9SAPS   H7Y 1163   1.837   3.145   5.802 -0.9411  0.9484  0.8089
    9SAPS   C38 1164   1.826   3.224   5.596  0.2674 -0.7804  0.7649
    9SAPS   H8X 1165   1.840   3.319   5.540  0.0963 -1.8915 -1.2349
    9SAPS   H8Y 1166   1.716   3.213   5.590  0.1958 -0.9185  2.0114
    9SAPS   C39 1167   1.888   3.100   5.542 -0.2590  0.0666  0.0365
    9SAPS   H9X 1168   1.869   3.013   5.608  0.8827 -0.6623 -0.5498
    9SAPS   H9Y 1169   1.997   3.122   5.537  0.8211 -3.6681  2.7712
    9SAPS  C310 1170   1.841   3.053   5.407  1.0796  0.4018  0.3960
    9SAPS  H10X 1171   1.783   3.134   5.357  0.1011  0.3856  1.4680
    9SAPS  H10Y 1172   1.765   2.973   5.419  0.1716  1.2190  0.2667
    9SAPS  C311 1173   1.953   3.010   5.310 -0.4567  0.4494  0.3122
    9SAPS  H11X 1174   2.007   2.918   5.344  0.1281  1.5261  2.5072
    9SAPS  H11Y 1175   2.020   3.098   5.319 -2.6262  2.2321 -0.1456
    9SAPS  C312 1176   1.897   2.991   5.171 -0.3253 -0.2606  0.0568
    9SAPS  H12X 1177   1.796   3.035   5.172 -1.6152 -2.9226  2.2455
    9SAPS  H12Y 1178   1.878   2.883   5.149 -4.9838  0.6805 -1.5043
    9SAPS  C313 1179   1.992   3.052   5.068  0.4620  0.0589  0.0887
    9SAPS  H13X 1180   2.091   3.005   5.088  0.0817 -0.2210  1.4511
    9SAPS  H13Y 1181   2.005   3.157   5.102 -0.0616 -0.3390  1.6181
    9SAPS  C314 1182   1.942   3.048   4.924 -0.1005 -0.4222  0.0641
    9SAPS  H14X 1183   1.853   3.110   4.902 -1.2634 -1.3543  1.9003
    9SAPS  H14Y 1184   1.919   2.941   4.904 -0.7945 -0.5288  1.3115
    9SAPS  C315 1185   2.044   3.101   4.820 -0.7962 -0.2606 -0.5085
    9SAPS  H15X 1186   2.137   3.059   4.865 -1.9641 -0.1857  2.1582
    9SAPS  H15Y 1187   2.055   3.210   4.835 -0.6706 -0.3526  0.1012
    9SAPS  C316 1188   2.014   3.075   4.672 -0.1968 -0.3498 -0.4445
    9SAPS  H16X 1189   1.943   3.154   4.640 -0.1471 -1.0321 -2.3643
    9SAPS  H16Y 1190   1.970   2.974   4.658 -1.9011 -0.0271  1.9425
    9SAPS  C317 1191   2.136   3.079   4.582  0.2089 -0.7394  0.4376
    9SAPS  H17X 1192   2.187   3.177   4.591 -0.3212 -0.6330  2.7032
    9SAPS  H17Y 1193   2.100   3.067   4.477 -1.3070 -1.2738  1.0005
    9SAPS  C318 1194   2.230   2.967   4.630  0.3747  0.1789 -0.5603
    9SAPS  H18X 1195   2.311   2.947   4.556  1.4001 -2.7068  1.1506
    9SAPS  H18Y 1196   2.184   2.872   4.667  0.9610  0.1523  0.1237
    9SAPS  H18Z 1197   2.295   3.003   4.712  2.0712 -0.9965 -1.2982
   10SAPS     N 1198   1.276   4.421   7.147  1.1087 -0.2140  0.3243
   10SAPS   HN1 1199   1.213   4.360   7.204  0.1061  0.8087  0.3582
   10SAPS   HN2 1200   1.229   4.513   7.135 -0.2767 -0.7890  1.0063
   10SAPS   HN3 1201   1.281   4.368   7.057 -3.8993 -1.5847  0.4965
   10SAPS   C12 1202   1.406   4.422   7.222  0.3871  0.3289  0.2827
   10SAPS  H12A 1203   1.483   4.467   7.160  0.4739  2.4644  1.8421
   10SAPS   C13 1204   1.391   4.522   7.343  0.0374  0.3235  0.4539
   10SAPS  O13A 1205   1.284   4.589   7.363  0.2530 -0.0100  1.2492
   10SAPS  O13B 1206   1.489   4.544   7.420 -0.4194  0.1530  0.1795
   10SAPS   C11 1207   1.447   4.281   7.265 -0.7563  0.6057 -0.9732
   10SAPS  H11A 1208   1.376   4.258   7.348  0.3109 -1.3185 -0.5326
   10SAPS  H11B 1209   1.550   4.277   7.305 -0.4495 -1.5755 -1.8128
   10SAPS     P 1210   1.549   4.168   7.055 -0.1677 -0.1349 -0.4182
   10SAPS   O13 1211   1.618   4.058   7.126 -0.4072 -0.4672  0.0012
   10SAPS   O14 1212   1.505   4.148   6.914 -0.0368  0.1892  0.4478
   10SAPS   O12 1213   1.426   4.194   7.151  0.6244  0.0612 -0.8208
   10SAPS   O11 1214   1.635   4.296   7.054  0.0819 -0.1669  0.2694
   10SAPS    C1 1215   1.775   4.308   7.085 -0.2182  0.2189  0.7613
   10SAPS    HA 1216   1.792   4.343   7.188  2.9711 -0.4043  0.5321
   10SAPS    HB 1217   1.819   4.208   7.062 -2.2199 -0.5030 -0.2269
   10SAPS    C2 1218   1.836   4.419   6.994 -0.3356 -0.1837  0.0464
   10SAPS    HS 1219   1.793   4.513   7.034 -0.8989 -1.5766  2.9512
   10SAPS   O21 1220   1.807   4.384   6.862  0.4472  0.2696 -0.1183
   10SAPS   C21 1221   1.695   4.431   6.811  0.4755  0.3633 -0.3870
   10SAPS   O22 1222   1.624   4.517   6.863 -0.6148  0.1974  0.3986
   10SAPS   C22 1223   1.667   4.361   6.679 -0.2231  0.5269  0.5531
   10SAPS   H2R 1224   1.760   4.347   6.619  0.5331 -1.1894  2.0321
   10SAPS   H2S 1225   1.644   4.257   6.712  1.2999 -0.6745 -1.8672
   10SAPS    C3 1226   2.001   4.427   6.997  0.6559  0.4274  0.0759
   10SAPS    HX 1227   2.035   4.324   6.974 -3.8768 -1.1725 -0.3898
   10SAPS    HY 1228   2.028   4.441   7.104 -2.0714  0.4090  0.8329
   10SAPS   O31 1229   2.058   4.532   6.914 -0.1712  0.4797  0.0973
   10SAPS   C31 1230   2.128   4.486   6.810  0.3051 -0.1481  0.1061
   10SAPS   O32 1231   2.161   4.374   6.783 -0.3527  0.4045  0.1469
   10SAPS   C32 1232   2.159   4.605   6.718 -0.6463 -0.4483 -0.0124
   10SAPS   H2X 1233   2.247   4.584   6.653 -1.4503 -1.3717 -0.8333
   10SAPS   H2Y 1234   2.190   4.690   6.783 -0.1285 -0.4026 -0.3098
   10SAPS   C23 1235   1.541   4.408   6.603 -0.3542  0.0915  0.3830
   10SAPS   H3R 1236   1.566   4.515   6.587 -0.8019  0.0096 -1.0031
   10SAPS   H3S 1237   1.450   4.414   6.666 -1.1566  1.0999 -0.8401
   10SAPS   C24 1238   1.524   4.328   6.472 -0.4858 -0.6491  0.5943
   10SAPS   H4R 1239   1.414   4.327   6.454 -0.8726  1.4204  2.4087
   10SAPS   H4S 1240   1.551   4.221   6.487  0.4296 -0.1474  2.9734
   10SAPS   C25 1241   1.618   4.386   6.361  0.6175 -1.1119  0.2077
   10SAPS   H5R 1242   1.721   4.351   6.371  1.4842  1.3277  0.6161
   10SAPS   C26 1243   1.587   4.467   6.262 -0.3901 -0.4432  0.4019
   10SAPS   H6R 1244   1.657   4.498   6.184 -1.1810 -1.9156 -0.9538
   10SAPS   C27 1245   1.453   4.541   6.230 -0.7114  0.1276  0.3472
   10SAPS   H7R 1246   1.464   4.633   6.169  0.3048  0.1152  0.4951
   10SAPS   H7S 1247   1.408   4.588   6.320 -3.9985 -0.2069 -0.9815
   10SAPS   C28 1248   1.365   4.440   6.162  0.1761  0.3920  0.1934
   10SAPS   H8R 1249   1.316   4.366   6.228 -0.8589  0.3601 -0.5693
   10SAPS   C29 1250   1.321   4.447   6.038 -0.9748  0.2177 -0.1333
   10SAPS   H9R 1251   1.263   4.364   5.995 -1.8342 -0.0104  1.4148
   10SAPS  C210 1252   1.373   4.548   5.943 -0.9551 -0.8296  0.3264
   10SAPS  H10R 1253   1.476   4.586   5.961 -1.3711  1.4911 -1.7161
   10SAPS  H10S 1254   1.312   4.639   5.926  1.2442  0.5810 -0.3651
   10SAPS  C211 1255   1.378   4.486   5.799  0.1720 -0.6907 -0.2894
   10SAPS  H11R 1256   1.309   4.402   5.784 -2.5934  1.1156  1.4062
   10SAPS  C212 1257   1.450   4.530   5.694  0.7540 -0.3356  0.4521
   10SAPS  H12R 1258   1.449   4.477   5.598 -0.7046  2.6344 -1.2926
   10SAPS  C213 1259   1.544   4.652   5.681  0.2356  0.4742  0.1153
   10SAPS  H13R 1260   1.579   4.667   5.786  0.5047  0.5805  0.0110
   10SAPS  H13S 1261   1.494   4.748   5.659  0.5173 -0.1560 -4.0595
   10SAPS  C214 1262   1.660   4.634   5.582 -0.5457  0.4027 -0.0307
   10SAPS  H14R 1263   1.750   4.610   5.640 -1.7493 -0.8451  1.4212
   10SAPS  C215 1264   1.646   4.662   5.454  0.2845  0.0931 -0.0006
   10SAPS  H15R 1265   1.732   4.669   5.386 -1.2212  1.9720 -1.8479
   10SAPS  C216 1266   1.518   4.700   5.379 -0.1732 -0.1693  0.6609
   10SAPS  H16R 1267   1.493   4.808   5.377  0.9222  0.1020  0.7768
   10SAPS  H16S 1268   1.429   4.662   5.433 -1.2484 -0.8523 -1.4711
   10SAPS  C217 1269   1.507   4.640   5.236 -0.2847 -0.0711  0.6280
   10SAPS  H17R 1270   1.506   4.529   5.233  2.1426 -0.1183 -1.0207
   10SAPS  H17S 1271   1.595   4.671   5.176  0.9162  0.5706  2.6082
   10SAPS  C218 1272   1.383   4.675   5.156 -1.1726 -0.0707 -0.4014
   10SAPS  H18R 1273   1.392   4.784   5.138  0.1720  0.4339  2.7830
   10SAPS  H18S 1274   1.291   4.669   5.218 -0.7158 -0.0283  0.2960
   10SAPS  C219 1275   1.357   4.594   5.035 -0.2739 -0.5927  0.0237
   10SAPS  H19R 1276   1.248   4.600   5.017 -0.5279  1.4194  1.7306
   10SAPS  H19S 1277   1.363   4.488   5.067  2.6425 -0.5390 -0.0229
   10SAPS  C220 1278   1.449   4.631   4.916 -0.0379  0.6682 -1.4431
   10SAPS  H20R 1279   1.401   4.575   4.833  0.6076 -2.1762 -0.0331
   10SAPS  H20S 1280   1.552   4.595   4.932  0.2371  2.2175  0.8942
   10SAPS  H20T 1281   1.441   4.735   4.877 -1.4173  0.5486 -1.5403
   10SAPS   C33 1282   2.038   4.617   6.621  0.1845 -0.4498 -0.5282
   10SAPS   H3X 1283   2.062   4.701   6.553 -0.1089 -0.1759 -0.2978
   10SAPS   H3Y 1284   1.946   4.640   6.679  0.1041  0.5904 -1.0449
   10SAPS   C34 1285   1.998   4.494   6.527  0.0527 -0.2546 -0.4160
   10SAPS   H4X 1286   1.896   4.505   6.484  0.2689  2.8748 -0.3659
   10SAPS   H4Y 1287   2.014   4.401   6.585  1.9146  0.1565 -0.1947
   10SAPS   C35 1288   2.092   4.485   6.405 -0.8221 -0.7122 -0.6568
   10SAPS   H5X 1289   2.197   4.477   6.442 -1.0593 -2.7348 -0.3181
   10SAPS   H5Y 1290   2.098   4.583   6.353 -0.1407 -0.5073 -0.2103
   10SAPS   C36 1291   2.068   4.369   6.307  0.3625 -0.3368  0.3450
   10SAPS   H6X 1292   2.028   4.277   6.353 -1.1006 -0.4447 -1.0309
   10SAPS   H6Y 1293   2.167   4.349   6.260 -0.1824  2.3316 -2.2699
   10SAPS   C37 1294   1.980   4.416   6.190  0.4661  0.1555  0.5656
   10SAPS   H7X 1295   2.010   4.512   6.143 -0.3111 -0.4045 -1.1411
   10SAPS   H7Y 1296   1.877   4.429   6.231 -1.5172 -0.5761 -3.6861
   10SAPS   C38 1297   1.968   4.308   6.084 -0.7113  0.4966 -0.7707
   10SAPS   H8X 1298   1.925   4.218   6.132  2.1984 -0.0037  1.1585
   10SAPS   H8Y 1299   2.059   4.285   6.025 -0.3481  2.2641 -0.9652
   10SAPS   C39 1300   1.873   4.359   5.974 -0.6222 -0.6602  0.7711
   10SAPS   H9X 1301   1.937   4.432   5.920  2.4244 -0.9823  3.6641
   10SAPS   H9Y 1302   1.783   4.416   6.007 -1.8243 -1.5923 -0.7491
   10SAPS  C310 1303   1.836   4.245   5.872  0.0688  0.6451  0.0693
   10SAPS  H10X 1304   1.785   4.155   5.912  0.3276  0.4018 -0.1521
   10SAPS  H10Y 1305   1.936   4.208   5.842 -0.6303  0.2250 -1.9223
   10SAPS  C311 1306   1.762   4.291   5.748 -0.0859 -0.5404  1.0162
   10SAPS  H11X 1307   1.806   4.380   5.698 -1.3689 -0.2793  0.3111
   10SAPS  H11Y 1308   1.661   4.326   5.774  0.0104  0.6912 -0.1640
   10SAPS  C312 1309   1.737   4.182   5.644  0.0613 -0.2500  0.3774
   10SAPS  H12X 1310   1.691   4.093   5.693  1.2225 -1.0704  0.0134
   10SAPS  H12Y 1311   1.835   4.139   5.616  0.9522  1.2331  1.1388
   10SAPS  C313 1312   1.646   4.229   5.521 -0.4879  0.4903 -0.6012
   10SAPS  H13X 1313   1.587   4.317   5.557 -1.4013 -0.3280 -0.0377
   10SAPS  H13Y 1314   1.570   4.149   5.507  1.3976 -1.3933 -0.4080
   10SAPS  C314 1315   1.729   4.227   5.395 -0.5864 -0.4726 -0.3485
   10SAPS  H14X 1316   1.788   4.132   5.400 -0.5801 -0.5393 -1.4197
   10SAPS  H14Y 1317   1.799   4.313   5.384  0.1447 -1.1324 -0.9564
   10SAPS  C315 1318   1.649   4.215   5.263 -0.6427  0.0273 -0.3150
   10SAPS  H15X 1319   1.584   4.304   5.254  1.6343  1.7311 -0.8515
   10SAPS  H15Y 1320   1.580   4.128   5.272  0.2678 -0.7720 -0.9235
   10SAPS  C316 1321   1.719   4.213   5.131  0.1684  0.5448 -0.9293
   10SAPS  H16X 1322   1.727   4.108   5.095 -0.0741  0.2898 -0.2480
   10SAPS  H16Y 1323   1.821   4.249   5.156  0.8085 -1.6072 -0.2081
   10SAPS  C317 1324   1.653   4.293   5.020  0.3628 -0.8014 -0.5427
   10SAPS  H17X 1325   1.709   4.283   4.924 -1.2988 -1.2507 -1.5077
   10SAPS  H17Y 1326   1.652   4.400   5.051 -0.0740 -1.2914  1.2446
   10SAPS  C318 1327   1.505   4.253   5.002 -0.1033 -0.2777 -0.7784
   10SAPS  H18X 1328   1.502   4.150   4.960 -0.1257 -1.1947  1.3813
   10SAPS  H18Y 1329   1.457   4.324   4.931  1.3890  1.0960 -0.4852
   10SAPS  H18Z 1330   1.443   4.260   5.093 -0.7825  0.2266 -1.2718
   11SAPS     N 1331   3.358   2.658   2.344 -0.3118 -0.3186 -0.5107
   11SAPS   HN1 1332   3.411   2.738   2.305  0.1565  0.9322  2.4492
   11SAPS   HN2 1333   3.410   2.593   2.406 -0.9122 -2.3290 -1.9801
   11SAPS   HN3 1334   3.320   2.598   2.267  2.5464 -1.1543 -1.3754
   11SAPS   C12 1335   3.233   2.705   2.421 -0.0513 -0.2696  0.3083
   11SAPS  H12A 1336   3.193   2.789   2.366  0.1221 -0.5670 -0.2688
   11SAPS   C13 1337   3.111   2.600   2.431 -0.1310  0.1728  0.2916
   11SAPS  O13A 1338   3.127   2.489   2.380  0.2274 -0.1381  0.1235
   11SAPS  O13B 1339   3.001   2.647   2.458 -0.3752  0.4275 -0.0876
   11SAPS   C11 1340   3.284   2.742   2.558 -0.2182 -0.6631  0.5802
   11SAPS  H11A 1341   3.358   2.663   2.584 -1.9212 -2.1758  1.0756
   11SAPS  H11B 1342   3.207   2.745   2.638 -1.2628  2.1298 -0.4171
   11SAPS     P 1343   3.278   3.004   2.579 -0.1784  0.2420  0.4055
   11SAPS   O13 1344   3.287   3.084   2.456 -0.6054 -0.0542 -0.5117
   11SAPS   O14 1345   3.142   2.973   2.619 -0.2335 -0.5369  0.0030
   11SAPS   O12 1346   3.355   2.868   2.553 -0.1199  0.7764 -0.5810
   11SAPS   O11 1347   3.355   3.074   2.700 -0.7143 -0.0825  0.3343
   11SAPS    C1 1348   3.394   3.000   2.818 -0.1186 -0.6258 -0.1934
   11SAPS    HA 1349   3.387   2.890   2.804  1.2851 -0.6109 -1.2061
   11SAPS    HB 1350   3.500   3.019   2.844 -0.6775 -0.5674  2.3168
   11SAPS    C2 1351   3.305   3.047   2.933  0.8299  0.9310  0.2603
   11SAPS    HS 1352   3.349   3.012   3.029 -2.3840  0.5985  1.7276
   11SAPS   O21 1353   3.176   2.982   2.909  0.4300 -0.7392 -0.0166
   11SAPS   C21 1354   3.164   2.862   2.961 -0.7720 -0.1075  0.8914
   11SAPS   O22 1355   3.253   2.797   3.016 -0.0290  0.4515 -0.0796
   11SAPS   C22 1356   3.024   2.811   2.952  0.3872  0.3500  0.2997
   11SAPS   H2R 1357   2.963   2.883   2.895 -0.3144 -1.3400 -1.1685
   11SAPS   H2S 1358   3.019   2.710   2.905 -1.6964 -0.0984  1.3524
   11SAPS    C3 1359   3.289   3.203   2.930  0.0822 -0.8023 -0.7095
   11SAPS    HX 1360   3.222   3.235   2.847 -3.0535  2.2567  2.6082
   11SAPS    HY 1361   3.387   3.251   2.911  0.2802 -1.0511 -0.3255
   11SAPS   O31 1362   3.241   3.252   3.056 -0.1235  0.3940 -0.5377
   11SAPS   C31 1363   3.102   3.233   3.076  0.9545 -0.1441 -0.3881
   11SAPS   O32 1364   3.017   3.210   2.993  1.0232 -0.2762  0.4291
   11SAPS   C32 1365   3.076   3.253   3.225  0.0113  1.2076 -0.1341
   11SAPS   H2X 1366   2.967   3.264   3.245  0.0928  1.4401  0.1846
   11SAPS   H2Y 1367   3.139   3.339   3.256  2.6470 -1.0586  1.3005
   11SAPS   C23 1368   2.957   2.799   3.094 -0.2052 -0.3402  0.4588
   11SAPS   H3R 1369   2.991   2.887   3.153 -0.6704 -0.2229  0.5560
   11SAPS   H3S 1370   2.991   2.703   3.137 -0.1455 -0.1641  0.8095
   11SAPS   C24 1371   2.809   2.792   3.102 -0.2966  0.9050  0.2087
   11SAPS   H4R 1372   2.787   2.754   3.204 -2.9899 -1.5197 -1.1212
   11SAPS   H4S 1373   2.769   2.711   3.037  1.1351 -2.2666  2.9745
   11SAPS   C25 1374   2.747   2.924   3.078  0.5655 -0.2075 -0.6468
   11SAPS   H5R 1375   2.740   2.965   2.976 -4.3939  0.1246 -0.3966
   11SAPS   C26 1376   2.724   3.006   3.180 -0.1671 -0.4169  0.4304
   11SAPS   H6R 1377   2.691   3.109   3.158 -1.6042 -1.0448 -0.4812
   11SAPS   C27 1378   2.729   2.989   3.332 -0.3314  0.1055 -0.0102
   11SAPS   H7R 1379   2.833   2.999   3.368 -0.4851  1.6169  0.0568
   11SAPS   H7S 1380   2.685   2.893   3.367 -0.2830 -0.3896 -1.2530
   11SAPS   C28 1381   2.649   3.103   3.405  1.1139 -0.1547  0.0556
   11SAPS   H8R 1382   2.636   3.197   3.350 -0.2672  0.0640  0.7074
   11SAPS   C29 1383   2.612   3.120   3.536  0.5791 -0.1942  0.3135
   11SAPS   H9R 1384   2.555   3.210   3.562  1.1104  1.3270 -3.1753
   11SAPS  C210 1385   2.638   3.013   3.646  0.4582  0.6485  0.3811
   11SAPS  H10R 1386   2.719   2.940   3.624 -1.2504 -1.3808  0.3774
   11SAPS  H10S 1387   2.547   2.949   3.660  0.3019  1.0918  1.4918
   11SAPS  C211 1388   2.677   3.091   3.766  0.0425 -0.3020  0.1231
   11SAPS  H11R 1389   2.777   3.134   3.747  1.0937 -2.3520  0.6800
   11SAPS  C212 1390   2.629   3.099   3.891  0.3238 -0.6986 -0.0670
   11SAPS  H12R 1391   2.671   3.177   3.956 -0.7660  1.8984 -2.2836
   11SAPS  C213 1392   2.496   3.041   3.931  0.7675 -0.1804  0.2183
   11SAPS  H13R 1393   2.406   3.066   3.872  0.2958  0.3654  1.1540
   11SAPS  H13S 1394   2.469   3.079   4.032 -0.9563 -0.6168 -0.0538
   11SAPS  C214 1395   2.493   2.890   3.955  0.2895 -0.3324 -0.2802
   11SAPS  H14R 1396   2.577   2.834   3.910 -0.1886 -2.6990  1.5767
   11SAPS  C215 1397   2.419   2.818   4.044  0.3712 -0.5656  0.4948
   11SAPS  H15R 1398   2.424   2.709   4.031  2.2221 -0.7247  2.0300
   11SAPS  C216 1399   2.320   2.871   4.140 -0.1570 -0.0185 -1.1921
   11SAPS  H16R 1400   2.215   2.853   4.108 -1.3494  0.8790  1.8974
   11SAPS  H16S 1401   2.337   2.979   4.160  0.1583 -0.4917  1.5705
   11SAPS  C217 1402   2.352   2.804   4.281 -0.2394  0.1814  0.1583
   11SAPS  H17R 1403   2.269   2.830   4.350 -0.6520 -0.4683 -0.0821
   11SAPS  H17S 1404   2.442   2.857   4.319 -0.4755  2.4986 -2.2485
   11SAPS  C218 1405   2.382   2.652   4.282  0.1086  0.5636  0.3405
   11SAPS  H18R 1406   2.486   2.630   4.251  0.1230  1.7853 -0.5492
   11SAPS  H18S 1407   2.313   2.611   4.204 -1.7485  0.4226  1.9622
   11SAPS  C219 1408   2.346   2.589   4.414  0.5348  1.0424 -0.5268
   11SAPS  H19R 1409   2.246   2.613   4.456  0.5963 -0.5637  0.6163
   11SAPS  H19S 1410   2.413   2.638   4.487  0.6605 -0.0765  0.1274
   11SAPS  C220 1411   2.378   2.442   4.431  0.0384 -0.3759 -0.4740
   11SAPS  H20R 1412   2.367   2.402   4.534 -2.9430  1.3834  0.0180
   11SAPS  H20S 1413   2.482   2.429   4.393 -0.1089  0.3664 -1.1461
   11SAPS  H20T 1414   2.313   2.391   4.356 -2.8796  1.7399  0.4281
   11SAPS   C33 1415   3.131   3.127   3.304  0.5533  0.1525 -0.4809
   11SAPS   H3X 1416   3.235   3.109   3.271  0.4859 -0.7828 -0.2063
   11SAPS   H3Y 1417   3.054   3.052   3.275 -0.6142  1.0601  0.1448
   11SAPS   C34 1418   3.116   3.143   3.457 -0.0959 -0.0339  0.3668
   11SAPS   H4X 1419   3.008   3.169   3.466 -0.4699 -1.4090  0.2127
   11SAPS   H4Y 1420   3.178   3.223   3.501  1.0478 -0.1323 -0.9760
   11SAPS   C35 1421   3.153   3.020   3.541 -0.0258  0.0968 -0.1706
   11SAPS   H5X 1422   3.263   3.016   3.550 -0.0076 -0.4038 -0.5722
   11SAPS   H5Y 1423   3.119   2.937   3.475  1.5314  0.8845 -2.0831
   11SAPS   C36 1424   3.079   3.019   3.672 -0.1914  0.2727 -0.3516
   11SAPS   H6X 1425   3.065   2.913   3.704 -1.3062  0.4873 -0.0723
   11SAPS   H6Y 1426   2.974   3.045   3.648  0.4914  1.2017 -2.5407
   11SAPS   C37 1427   3.150   3.115   3.769  0.1959 -0.1523  0.2363
   11SAPS   H7X 1428   3.140   3.223   3.742 -0.8338 -0.1508  0.5580
   11SAPS   H7Y 1429   3.259   3.100   3.783  0.1657  0.5410  1.4057
   11SAPS   C38 1430   3.092   3.120   3.914 -0.6586 -0.6352  1.1520
   11SAPS   H8X 1431   3.109   3.018   3.954  2.4274  0.7859  3.8893
   11SAPS   H8Y 1432   2.983   3.142   3.907 -0.5792 -0.5715 -0.1078
   11SAPS   C39 1433   3.156   3.226   4.005 -0.3870 -0.1419  0.2318
   11SAPS   H9X 1434   3.159   3.330   3.965  0.2717 -0.5577 -0.8513
   11SAPS   H9Y 1435   3.258   3.198   4.038 -1.0230  0.1470  2.6064
   11SAPS  C310 1436   3.081   3.233   4.140  0.9633 -0.4351  0.2379
   11SAPS  H10X 1437   2.974   3.206   4.122  0.7699  0.0911  0.5723
   11SAPS  H10Y 1438   3.082   3.341   4.165 -1.1706 -0.6593  1.5769
   11SAPS  C311 1439   3.150   3.165   4.262  0.3238 -0.0301 -0.0313
   11SAPS  H11X 1440   3.254   3.206   4.264  0.3786  0.0709 -2.1982
   11SAPS  H11Y 1441   3.164   3.060   4.229 -0.2206 -0.7783  1.9745
   11SAPS  C312 1442   3.064   3.161   4.388 -0.0983 -0.3545 -0.0270
   11SAPS  H12X 1443   3.091   3.083   4.462  0.5770  0.1280  0.2458
   11SAPS  H12Y 1444   2.956   3.147   4.364  0.0632  0.8861 -1.6965
   11SAPS  C313 1445   3.052   3.293   4.467  0.3430 -0.0587 -0.3270
   11SAPS  H13X 1446   2.998   3.376   4.416  0.4851 -0.5273 -1.2578
   11SAPS  H13Y 1447   3.155   3.330   4.483 -0.1634  1.8361 -1.0573
   11SAPS  C314 1448   2.985   3.287   4.600 -0.3262  0.2799 -0.3692
   11SAPS  H14X 1449   3.022   3.205   4.666  0.0174 -0.9528 -2.0398
   11SAPS  H14Y 1450   2.877   3.272   4.582 -0.2675  0.7430 -1.1768
   11SAPS  C315 1451   3.011   3.420   4.670  0.1063 -0.1195 -0.0446
   11SAPS  H15X 1452   2.965   3.498   4.604 -0.8334 -2.9484 -2.9854
   11SAPS  H15Y 1453   3.119   3.438   4.689  0.2459  0.6797 -1.4034
   11SAPS  C316 1454   2.944   3.418   4.802  0.5926  0.4531 -0.3459
   11SAPS  H16X 1455   2.971   3.327   4.859 -0.5035  0.1983 -0.2057
   11SAPS  H16Y 1456   2.833   3.409   4.799  0.5539  0.1782  1.0128
   11SAPS  C317 1457   2.976   3.544   4.881  0.1166 -0.5638 -0.6560
   11SAPS  H17X 1458   3.085   3.566   4.870  0.6963 -2.9975 -0.2655
   11SAPS  H17Y 1459   2.955   3.518   4.987  0.7229 -0.6534 -0.5538
   11SAPS  C318 1460   2.889   3.657   4.831 -0.3967  0.2889  0.0112
   11SAPS  H18X 1461   2.915   3.662   4.723  0.1252  0.2008  0.1307
   11SAPS  H18Y 1462   2.901   3.762   4.866 -0.7698  1.0346 -1.9811
   11SAPS  H18Z 1463   2.783   3.624   4.838 -0.3509  0.2356  0.4479
   12SAPS     N 1464   4.671   1.359   2.397 -0.4559  0.7725  0.5515
   12SAPS   HN1 1465   4.689   1.295   2.477  0.1397 -2.6666 -2.1105
   12SAPS   HN2 1466   4.759   1.360   2.341 -0.6784 -0.4731  0.1377
   12SAPS   HN3 1467   4.654   1.454   2.437 -0.0290  0.9965  0.2161
   12SAPS   C12 1468   4.555   1.313   2.316  0.5266  0.0536 -0.0243
   12SAPS  H12A 1469   4.515   1.393   2.255 -1.1889 -0.1144  0.8413
   12SAPS   C13 1470   4.584   1.205   2.205 -0.3997  0.2700 -0.6687
   12SAPS  O13A 1471   4.704   1.174   2.181  0.1624  0.1009 -0.5951
   12SAPS  O13B 1472   4.487   1.167   2.138  0.4613  0.4990 -0.4175
   12SAPS   C11 1473   4.442   1.281   2.417  0.2622  0.3161 -0.5678
   12SAPS  H11A 1474   4.483   1.194   2.473  0.2332  0.1652 -0.7837
   12SAPS  H11B 1475   4.351   1.238   2.371 -0.1828 -0.1199  0.6730
   12SAPS     P 1476   4.287   1.402   2.580  0.2024  0.0549  0.3006
   12SAPS   O13 1477   4.217   1.518   2.521  0.1252  0.2912 -0.0642
   12SAPS   O14 1478   4.209   1.276   2.579 -1.0970 -0.0639  0.2932
   12SAPS   O12 1479   4.423   1.389   2.506 -0.0309 -0.0085 -0.3844
   12SAPS   O11 1480   4.321   1.439   2.730  0.1454  0.3350 -0.2616
   12SAPS    C1 1481   4.405   1.345   2.800  0.1452  0.3636 -0.7485
   12SAPS    HA 1482   4.356   1.246   2.809  1.8683 -0.4797 -0.1485
   12SAPS    HB 1483   4.505   1.326   2.755  0.5299 -0.0865  0.2581
   12SAPS    C2 1484   4.452   1.383   2.945 -0.5371 -0.3128 -0.0737
   12SAPS    HS 1485   4.537   1.321   2.980 -0.8799 -0.7279  0.0325
   12SAPS   O21 1486   4.346   1.391   3.036  0.5123 -0.0318  0.0832
   12SAPS   C21 1487   4.318   1.270   3.085 -0.0146  0.4066 -0.6427
   12SAPS   O22 1488   4.387   1.168   3.082 -0.4631  0.0705  0.0581
   12SAPS   C22 1489   4.179   1.284   3.153  0.0469 -0.1204  0.1182
   12SAPS   H2R 1490   4.183   1.357   3.237  0.1605  0.0673 -0.0506
   12SAPS   H2S 1491   4.114   1.327   3.074  0.7621  1.0874  0.1531
   12SAPS    C3 1492   4.516   1.526   2.942 -0.2428  0.6743  0.7111
   12SAPS    HX 1493   4.435   1.601   2.928 -0.3070  1.4631  4.2845
   12SAPS    HY 1494   4.584   1.541   2.856 -0.4685  1.5602  0.6784
   12SAPS   O31 1495   4.584   1.569   3.065 -0.2384 -0.2551 -0.9349
   12SAPS   C31 1496   4.651   1.683   3.060  0.2809  0.2017  0.4191
   12SAPS   O32 1497   4.675   1.747   2.960  0.4513  0.0490 -0.4369
   12SAPS   C32 1498   4.701   1.726   3.200 -0.1048 -0.5016  0.6091
   12SAPS   H2X 1499   4.759   1.637   3.234  0.0625 -0.0485  1.5409
   12SAPS   H2Y 1500   4.610   1.737   3.262 -0.1815 -0.6222  0.5190
   12SAPS   C23 1501   4.118   1.163   3.217  0.1572  0.1348 -0.2590
   12SAPS   H3R 1502   4.129   1.084   3.139 -1.0036 -3.4130  2.8388
   12SAPS   H3S 1503   4.009   1.176   3.229  0.3816  0.3832  1.7072
   12SAPS   C24 1504   4.180   1.129   3.355 -0.6278 -0.8366 -0.3315
   12SAPS   H4R 1505   4.128   1.041   3.397 -2.7537  0.6413  0.3294
   12SAPS   H4S 1506   4.157   1.207   3.430 -1.7476 -0.2799 -1.2216
   12SAPS   C25 1507   4.327   1.088   3.369  0.6264  0.2287  0.5298
   12SAPS   H5R 1508   4.345   1.005   3.300  0.8887  0.5225  0.2456
   12SAPS   C26 1509   4.414   1.136   3.454  0.0397 -0.9806 -0.0900
   12SAPS   H6R 1510   4.517   1.110   3.427  0.3887 -0.1008  0.3499
   12SAPS   C27 1511   4.393   1.234   3.570 -0.3457 -0.2849  0.2883
   12SAPS   H7R 1512   4.310   1.193   3.632 -0.1172  1.2420  1.6776
   12SAPS   H7S 1513   4.361   1.329   3.522 -1.5578 -0.4392  0.7500
   12SAPS   C28 1514   4.524   1.246   3.639 -0.4254  0.7072  0.6174
   12SAPS   H8R 1515   4.606   1.281   3.574 -1.0708  1.0381 -0.0255
   12SAPS   C29 1516   4.559   1.197   3.758 -0.5806  0.4012  0.6374
   12SAPS   H9R 1517   4.658   1.220   3.800 -0.8696 -1.2507  2.3477
   12SAPS  C210 1518   4.471   1.143   3.866  0.4173 -0.0181 -0.0182
   12SAPS  H10R 1519   4.520   1.065   3.929  1.8054  2.3033  1.9338
   12SAPS  H10S 1520   4.382   1.096   3.819  0.9975 -3.3984  1.9374
   12SAPS  C211 1521   4.436   1.266   3.954 -1.1719  0.1614 -0.0978
   12SAPS  H11R 1522   4.449   1.362   3.902  1.6610 -1.3941 -2.5963
   12SAPS  C212 1523   4.399   1.251   4.080  0.0542  0.9280  1.0144
   12SAPS  H12R 1524   4.386   1.340   4.142  2.6935  1.0708  1.5008
   12SAPS  C213 1525   4.383   1.122   4.157 -1.0859 -0.3014  0.3264
   12SAPS  H13R 1526   4.402   1.033   4.093 -0.8455  0.4132 -0.6143
   12SAPS  H13S 1527   4.279   1.106   4.192 -1.6292 -0.9337 -1.4622
   12SAPS  C214 1528   4.479   1.136   4.264 -0.7167 -0.3068  0.2531
   12SAPS  H14R 1529   4.577   1.104   4.225 -1.5805 -0.8456 -1.6138
   12SAPS  C215 1530   4.453   1.148   4.394  0.3376  0.2633  0.0665
   12SAPS  H15R 1531   4.537   1.163   4.463  0.3578  0.9512 -0.1059
   12SAPS  C216 1532   4.324   1.171   4.459 -0.6731 -0.2040 -0.0679
   12SAPS  H16R 1533   4.334   1.155   4.568 -0.3373 -1.9073 -0.3269
   12SAPS  H16S 1534   4.249   1.100   4.419 -1.6322  0.6227  0.2200
   12SAPS  C217 1535   4.270   1.314   4.428 -0.3784 -0.3280  0.1746
   12SAPS  H17R 1536   4.161   1.308   4.449 -0.8182  1.5300 -1.3097
   12SAPS  H17S 1537   4.279   1.353   4.325 -3.7119  0.3213  0.0182
   12SAPS  C218 1538   4.329   1.422   4.522 -0.1141  1.0712 -0.8522
   12SAPS  H18R 1539   4.426   1.452   4.478  0.4030  2.1263  0.9044
   12SAPS  H18S 1540   4.343   1.373   4.621  0.1475 -0.1877 -1.4870
   12SAPS  C219 1541   4.247   1.554   4.536  0.7149  0.9097 -0.2612
   12SAPS  H19R 1542   4.140   1.527   4.543  1.4279 -2.3320 -0.2805
   12SAPS  H19S 1543   4.263   1.613   4.443  1.3990 -0.1651 -0.8408
   12SAPS  C220 1544   4.287   1.642   4.652 -0.1571 -1.2617 -0.4499
   12SAPS  H20R 1545   4.212   1.721   4.670 -0.4477 -1.2631 -1.5928
   12SAPS  H20S 1546   4.384   1.690   4.627  0.9240 -2.5148  1.1249
   12SAPS  H20T 1547   4.305   1.586   4.747  0.9449 -0.9127 -0.4434
   12SAPS   C33 1548   4.790   1.851   3.213 -0.5528 -0.4998  0.2822
   12SAPS   H3X 1549   4.868   1.869   3.136 -1.2551 -0.8302 -0.5211
   12SAPS   H3Y 1550   4.848   1.831   3.306 -0.0116  0.2818  0.1206
   12SAPS   C34 1551   4.708   1.980   3.229 -0.1767  0.8711 -0.5907
   12SAPS   H4X 1552   4.638   1.985   3.315  1.0397  1.4758  0.4023
   12SAPS   H4Y 1553   4.660   2.004   3.132  1.3570  2.7855 -0.9210
   12SAPS   C35 1554   4.803   2.103   3.255 -0.6222  0.3166  0.5971
   12SAPS   H5X 1555   4.747   2.198   3.266  2.0622  1.8774  1.7279
   12SAPS   H5Y 1556   4.862   2.118   3.162 -1.6367 -0.4341 -0.1953
   12SAPS   C36 1557   4.912   2.080   3.365  0.3099  0.8799 -0.4782
   12SAPS   H6X 1558   4.993   2.012   3.331 -0.9711 -1.3482  0.7400
   12SAPS   H6Y 1559   4.870   2.035   3.457 -0.4378 -0.2020 -1.3268
   12SAPS   C37 1560   4.982   2.212   3.409  0.9275 -0.2063  0.1034
   12SAPS   H7X 1561   4.915   2.292   3.447  0.9089  0.3194 -0.9990
   12SAPS   H7Y 1562   5.036   2.248   3.319  0.9243 -2.9875 -1.1063
   12SAPS   C38 1563   5.077   2.200   3.539 -0.0992  0.4668 -0.1970
   12SAPS   H8X 1564   5.130   2.296   3.559 -0.6664  0.5541  0.9643
   12SAPS   H8Y 1565   5.159   2.129   3.517  0.5770  1.3502 -0.6093
   12SAPS   C39 1566   5.003   2.163   3.667 -0.5944 -0.3707 -0.0367
   12SAPS   H9X 1567   4.970   2.058   3.653  3.1198 -1.7539  0.3125
   12SAPS   H9Y 1568   4.915   2.230   3.675  0.1655  0.8088 -1.0889
   12SAPS  C310 1569   5.091   2.157   3.788  0.5674  0.2939 -0.8387
   12SAPS  H10X 1570   5.166   2.238   3.800  0.2056  0.4650  0.3982
   12SAPS  H10Y 1571   5.142   2.059   3.775 -0.4823 -0.3642 -0.1268
   12SAPS  C311 1572   5.014   2.142   3.924 -0.2356 -0.2386  0.7351
   12SAPS  H11X 1573   4.938   2.223   3.935  1.4883  1.6914 -0.7032
   12SAPS  H11Y 1574   5.080   2.160   4.011  1.8670  1.4829 -1.0965
   12SAPS  C312 1575   4.924   2.015   3.939 -0.2356 -0.1972 -0.6743
   12SAPS  H12X 1576   4.989   1.926   3.953 -1.6343 -0.8586  2.3426
   12SAPS  H12Y 1577   4.875   1.996   3.841  1.7518  1.4527 -2.0712
   12SAPS  C313 1578   4.820   2.011   4.053  1.6875 -0.7212  0.0459
   12SAPS  H13X 1579   4.766   2.106   4.072  1.1667 -0.7999 -0.9744
   12SAPS  H13Y 1580   4.872   1.998   4.151  0.3790 -0.2040  0.8444
   12SAPS  C314 1581   4.719   1.897   4.027  0.8668 -0.0107 -1.1035
   12SAPS  H14X 1582   4.773   1.804   4.001 -1.0196 -1.7835  0.9101
   12SAPS  H14Y 1583   4.650   1.923   3.944 -1.4795 -0.7442  0.5090
   12SAPS  C315 1584   4.626   1.864   4.152 -0.6847 -0.0850 -0.1850
   12SAPS  H15X 1585   4.534   1.925   4.139 -1.7131 -1.9212 -1.9686
   12SAPS  H15Y 1586   4.681   1.893   4.244 -0.0061  1.4027 -1.0110
   12SAPS  C316 1587   4.582   1.719   4.159 -0.7238 -0.5865 -0.1832
   12SAPS  H16X 1588   4.665   1.652   4.128 -1.2516 -1.3236 -0.0597
   12SAPS  H16Y 1589   4.512   1.705   4.074 -0.6497 -0.7129 -0.2249
   12SAPS  C317 1590   4.517   1.666   4.287 -0.0705  0.1979  0.2679
   12SAPS  H17X 1591   4.504   1.556   4.281 -0.2881  0.2680 -0.6232
   12SAPS  H17Y 1592   4.421   1.720   4.301  1.0367  1.9442  1.5565
   12SAPS  C318 1593   4.607   1.696   4.411  0.1116  0.0136 -0.1216
   12SAPS  H18X 1594   4.599   1.620   4.491 -0.6969  1.8474  1.6420
   12SAPS  H18Y 1595   4.573   1.788   4.464 -3.7655 -3.1914  3.6992
   12SAPS  H18Z 1596   4.716   1.692   4.391  0.0622  0.2025 -0.4458
   13SAPS     N 1597   4.950   1.144   2.253  0.5631  0.2193  0.3303
   13SAPS   HN1 1598   4.857   1.181   2.226  0.0162  0.7852  2.7457
   13SAPS   HN2 1599   4.980   1.061   2.198 -0.0772 -0.9649  1.6846
   13SAPS   HN3 1600   4.939   1.102   2.347  1.7624  0.1331  0.4460
   13SAPS   C12 1601   5.055   1.246   2.261 -0.6920  0.6959  0.2489
   13SAPS  H12A 1602   5.106   1.250   2.166  1.0374  0.9200  1.1408
   13SAPS   C13 1603   5.020   1.386   2.294 -0.5192  0.8977  0.5032
   13SAPS  O13A 1604   4.896   1.413   2.290  0.3429 -0.1593 -0.3134
   13SAPS  O13B 1605   5.107   1.480   2.312  0.7515  0.6346 -0.0071
   13SAPS   C11 1606   5.168   1.202   2.366 -0.2662  1.4661  0.0769
   13SAPS  H11A 1607   5.121   1.211   2.467 -1.8277 -0.1897 -0.4402
   13SAPS  H11B 1608   5.252   1.273   2.370  0.5466  0.6715 -1.8779
   13SAPS     P 1609   5.366   1.031   2.357 -0.1635  0.3768 -0.2285
   13SAPS   O13 1610   5.377   0.895   2.290  0.3866 -0.7972 -0.5390
   13SAPS   O14 1611   5.454   1.136   2.306  0.4060 -0.2489  0.2992
   13SAPS   O12 1612   5.211   1.069   2.336 -0.1398  0.0049  0.4084
   13SAPS   O11 1613   5.380   1.009   2.513  0.4528 -0.6744 -0.1429
   13SAPS    C1 1614   5.418   1.124   2.592 -0.4457 -0.1237  0.1888
   13SAPS    HA 1615   5.381   1.218   2.545 -2.5858 -1.2771 -0.5512
   13SAPS    HB 1616   5.354   1.121   2.683 -2.7601  1.9282 -1.2341
   13SAPS    C2 1617   5.576   1.130   2.614  0.6903 -0.2405 -0.7928
   13SAPS    HS 1618   5.628   1.103   2.519  0.7153 -3.1035 -0.0409
   13SAPS   O21 1619   5.620   1.050   2.723 -0.2373 -0.0550  0.7223
   13SAPS   C21 1620   5.632   0.924   2.706  0.2397  0.2389 -0.2930
   13SAPS   O22 1621   5.628   0.872   2.599 -0.5321  0.6595 -0.4519
   13SAPS   C22 1622   5.666   0.856   2.834  0.7070 -0.7215 -0.3853
   13SAPS   H2R 1623   5.720   0.764   2.802  1.3695 -0.1779 -0.8484
   13SAPS   H2S 1624   5.741   0.909   2.896  2.4607 -1.8816 -1.4444
   13SAPS    C3 1625   5.598   1.283   2.649  0.8961  0.1604  0.0199
   13SAPS    HX 1626   5.592   1.339   2.554 -2.3338  0.3226  0.2015
   13SAPS    HY 1627   5.705   1.281   2.678  0.6347  1.3216  1.1809
   13SAPS   O31 1628   5.501   1.340   2.746 -1.1076  0.5642 -0.5839
   13SAPS   C31 1629   5.542   1.343   2.868  0.4216  2.0095  0.1415
   13SAPS   O32 1630   5.651   1.311   2.911  0.0238  0.0095  0.6957
   13SAPS   C32 1631   5.425   1.367   2.954  0.0422 -0.9545 -0.1310
   13SAPS   H2X 1632   5.356   1.280   2.961  0.2609 -1.0508  1.0198
   13SAPS   H2Y 1633   5.363   1.453   2.924  1.1798  0.1681  0.6048
   13SAPS   C23 1634   5.548   0.821   2.927  0.7307  0.0279 -0.2185
   13SAPS   H3R 1635   5.582   0.764   3.016  0.9092 -0.4807 -0.6143
   13SAPS   H3S 1636   5.478   0.753   2.875  0.7031  0.3536 -0.6151
   13SAPS   C24 1637   5.471   0.942   2.986 -0.4954  0.5725 -0.3050
   13SAPS   H4R 1638   5.373   0.912   3.029 -0.1206  1.8103  1.5156
   13SAPS   H4S 1639   5.447   1.010   2.902  0.6109  0.2494 -0.9044
   13SAPS   C25 1640   5.552   1.033   3.077  0.1993 -0.7201  0.1949
   13SAPS   H5R 1641   5.646   1.073   3.035  0.5199  1.0882  2.4120
   13SAPS   C26 1642   5.522   1.062   3.203  1.0368 -0.5076  0.5262
   13SAPS   H6R 1643   5.594   1.125   3.258  1.3841 -0.8895  0.5143
   13SAPS   C27 1644   5.402   1.011   3.283  0.4171  0.1932 -0.9314
   13SAPS   H7R 1645   5.331   0.961   3.214  2.2512  0.2225 -2.9615
   13SAPS   H7S 1646   5.346   1.090   3.336 -0.4563  0.2510 -1.9134
   13SAPS   C28 1647   5.432   0.900   3.382  0.0027 -0.7446 -0.1226
   13SAPS   H8R 1648   5.497   0.818   3.347  1.3219 -0.0713  0.6710
   13SAPS   C29 1649   5.402   0.908   3.516 -0.3554 -0.8353 -0.3254
   13SAPS   H9R 1650   5.430   0.819   3.574 -2.3540 -1.7461 -0.6609
   13SAPS  C210 1651   5.336   1.025   3.588  0.1105  0.4513 -0.2044
   13SAPS  H10R 1652   5.291   0.988   3.683 -0.0780 -1.6806 -1.0765
   13SAPS  H10S 1653   5.249   1.064   3.531 -0.2653  1.1617  0.8109
   13SAPS  C211 1654   5.438   1.126   3.626 -0.3517  0.0875 -0.1053
   13SAPS  H11R 1655   5.475   1.185   3.541  0.3872  0.1545  0.2597
   13SAPS  C212 1656   5.476   1.161   3.748 -0.2074 -0.0862  0.5805
   13SAPS  H12R 1657   5.553   1.238   3.758  2.5527 -2.7626  1.3496
   13SAPS  C213 1658   5.439   1.104   3.889  0.4262  0.2323 -0.0203
   13SAPS  H13R 1659   5.536   1.086   3.940  1.0399  0.6833 -0.9951
   13SAPS  H13S 1660   5.400   1.002   3.869 -1.0431  0.4769  1.3974
   13SAPS  C214 1661   5.343   1.188   3.977  0.1151 -0.3791  0.2412
   13SAPS  H14R 1662   5.286   1.263   3.919  0.8671 -1.6997 -2.3417
   13SAPS  C215 1663   5.341   1.191   4.108 -0.6313 -0.8509  0.0482
   13SAPS  H15R 1664   5.264   1.255   4.153 -0.1420 -1.1765  1.4275
   13SAPS  C216 1665   5.418   1.095   4.190  0.1645  0.0032 -0.1503
   13SAPS  H16R 1666   5.477   1.146   4.269 -0.9896  1.3909 -0.1512
   13SAPS  H16S 1667   5.512   1.061   4.141  1.7226  2.1783  1.1674
   13SAPS  C217 1668   5.328   0.996   4.252 -0.0298 -0.0589 -0.5173
   13SAPS  H17R 1669   5.384   0.917   4.307 -0.8062  0.0438  0.4533
   13SAPS  H17S 1670   5.270   0.936   4.178 -0.9807 -0.2903  0.3829
   13SAPS  C218 1671   5.237   1.066   4.355 -0.1612  0.0736 -0.0930
   13SAPS  H18R 1672   5.159   0.997   4.395 -0.7440  0.1725 -1.0443
   13SAPS  H18S 1673   5.177   1.144   4.304  0.2903  1.0245  0.7855
   13SAPS  C219 1674   5.318   1.130   4.473  0.2683  0.1187  0.7970
   13SAPS  H19R 1675   5.237   1.153   4.546 -1.6233 -1.3948 -0.7192
   13SAPS  H19S 1676   5.364   1.230   4.457 -1.8991  1.1256  0.4256
   13SAPS  C220 1677   5.431   1.043   4.530 -0.3816 -0.8236  0.3187
   13SAPS  H20R 1678   5.397   0.946   4.570  1.4051 -1.2789  0.8469
   13SAPS  H20S 1679   5.471   1.096   4.619 -0.4312 -0.0825 -0.0908
   13SAPS  H20T 1680   5.524   1.034   4.469 -1.1004 -2.1927 -0.6033
   13SAPS   C33 1681   5.481   1.402   3.099  0.5303  0.6020 -0.2435
   13SAPS   H3X 1682   5.541   1.495   3.097  0.4503  0.6696 -2.7706
   13SAPS   H3Y 1683   5.561   1.328   3.124  0.2018 -0.0436 -1.0468
   13SAPS   C34 1684   5.367   1.403   3.198  0.1743  0.3690 -0.2658
   13SAPS   H4X 1685   5.323   1.301   3.199  0.9685  0.0238 -0.2080
   13SAPS   H4Y 1686   5.290   1.480   3.173 -2.4915 -1.2693  2.1528
   13SAPS   C35 1687   5.410   1.445   3.344 -0.3354  0.5393 -0.3520
   13SAPS   H5X 1688   5.453   1.546   3.359 -0.2115  0.5060 -0.4766
   13SAPS   H5Y 1689   5.497   1.380   3.366  0.0471  0.9690 -0.5808
   13SAPS   C36 1690   5.292   1.433   3.447 -0.3447 -0.7629 -0.0537
   13SAPS   H6X 1691   5.276   1.327   3.474  0.3791 -0.8639  0.0102
   13SAPS   H6Y 1692   5.197   1.481   3.415 -0.9831 -1.5596  0.6199
   13SAPS   C37 1693   5.340   1.509   3.575 -0.2650 -0.0463  0.6587
   13SAPS   H7X 1694   5.359   1.617   3.561 -0.8060 -0.1674 -1.3260
   13SAPS   H7Y 1695   5.440   1.465   3.593  0.8130  1.9716 -0.0451
   13SAPS   C38 1696   5.231   1.485   3.677 -0.5379 -0.4192  0.1996
   13SAPS   H8X 1697   5.201   1.381   3.703 -0.8982 -0.0553  1.3216
   13SAPS   H8Y 1698   5.140   1.535   3.636 -0.7162 -0.0537  1.0048
   13SAPS   C39 1699   5.247   1.575   3.804 -0.5756  0.5232 -0.3081
   13SAPS   H9X 1700   5.267   1.680   3.774 -0.6986  1.0653  1.3838
   13SAPS   H9Y 1701   5.330   1.545   3.872  0.2407  1.7079 -0.7539
   13SAPS  C310 1702   5.110   1.579   3.885 -0.0778  0.5955 -0.7901
   13SAPS  H10X 1703   5.035   1.633   3.824  0.4509  1.2436 -0.8755
   13SAPS  H10Y 1704   5.125   1.643   3.975 -0.9703  2.9028 -2.1824
   13SAPS  C311 1705   5.056   1.445   3.919 -0.3614  0.1838  0.6932
   13SAPS  H11X 1706   5.135   1.375   3.955  0.0114  0.1846 -0.1069
   13SAPS  H11Y 1707   5.004   1.399   3.832 -0.5316 -1.8977  1.8175
   13SAPS  C312 1708   4.950   1.448   4.025 -1.0719  0.6113 -0.4506
   13SAPS  H12X 1709   4.861   1.495   3.978 -0.9493  0.2285 -1.0681
   13SAPS  H12Y 1710   4.990   1.519   4.101 -1.2990  1.0685 -0.7487
   13SAPS  C313 1711   4.912   1.315   4.081  0.0258  0.1379  0.2296
   13SAPS  H13X 1712   4.996   1.272   4.140 -0.4630 -0.1143  0.7496
   13SAPS  H13Y 1713   4.869   1.244   4.007 -1.4354 -1.1309  2.2042
   13SAPS  C314 1714   4.810   1.334   4.199  0.2082 -0.7398 -0.3265
   13SAPS  H14X 1715   4.766   1.236   4.230  3.0076 -1.7017  0.9301
   13SAPS  H14Y 1716   4.729   1.402   4.165 -0.6950 -0.4638  2.1755
   13SAPS  C315 1717   4.872   1.389   4.326 -0.5136  0.5140 -0.1767
   13SAPS  H15X 1718   4.904   1.495   4.316 -0.6881  0.6882  1.0030
   13SAPS  H15Y 1719   4.960   1.335   4.368 -0.3327  1.6981  1.0262
   13SAPS  C316 1720   4.770   1.384   4.433  0.1924 -0.0293 -0.1973
   13SAPS  H16X 1721   4.754   1.286   4.482  0.4161  1.8728  4.1212
   13SAPS  H16Y 1722   4.673   1.422   4.396  0.2310  0.0366 -0.2316
   13SAPS  C317 1723   4.807   1.482   4.549 -0.2342  0.2954 -0.4543
   13SAPS  H17X 1724   4.715   1.504   4.608 -1.1560 -1.5951 -1.0921
   13SAPS  H17Y 1725   4.847   1.578   4.510  1.1779 -0.6082 -1.3518
   13SAPS  C318 1726   4.909   1.408   4.638 -0.2618 -0.1537 -0.7716
   13SAPS  H18X 1727   4.953   1.481   4.709 -1.8303 -0.1539  0.2361
   13SAPS  H18Y 1728   4.990   1.374   4.570 -0.3673  0.1802 -1.0711
   13SAPS  H18Z 1729   4.857   1.329   4.695  3.0348 -1.8630  0.1016
   14SAPS     N 1730   6.476   1.515   2.486  0.3432 -0.3232 -0.0752
   14SAPS   HN1 1731   6.535   1.483   2.406  1.9322 -2.3119  1.7582
   14SAPS   HN2 1732   6.441   1.431   2.537  0.5000  0.6096  1.6422
   14SAPS   HN3 1733   6.398   1.580   2.468  1.3049  1.4700  1.8125
   14SAPS   C12 1734   6.581   1.600   2.563 -0.3700  1.0250  0.2427
   14SAPS  H12A 1735   6.655   1.533   2.604  0.3390  0.3861 -1.9246
   14SAPS   C13 1736   6.667   1.690   2.469 -0.6454 -0.2727 -0.3966
   14SAPS  O13A 1737   6.642   1.686   2.345  0.1608 -0.7960 -0.0410
   14SAPS  O13B 1738   6.766   1.749   2.511 -0.1755  0.5632  0.3141
   14SAPS   C11 1739   6.500   1.695   2.653  0.2318 -0.1281  0.4771
   14SAPS  H11A 1740   6.456   1.772   2.587  1.6811 -1.6431 -2.4472
   14SAPS  H11B 1741   6.575   1.748   2.716  0.5418  0.3677 -0.3024
   14SAPS     P 1742   6.295   1.704   2.807  0.2208 -0.5196 -0.2115
   14SAPS   O13 1743   6.285   1.844   2.756  0.1823 -1.1650  0.3299
   14SAPS   O14 1744   6.167   1.624   2.812  0.3833  0.0307  0.4282
   14SAPS   O12 1745   6.407   1.622   2.739 -0.2620 -0.3280  0.3660
   14SAPS   O11 1746   6.349   1.719   2.951  0.5025  0.6060  0.0895
   14SAPS    C1 1747   6.334   1.612   3.049  0.4807 -0.0756 -0.0334
   14SAPS    HA 1748   6.273   1.527   3.010 -0.8988  1.0656 -0.4055
   14SAPS    HB 1749   6.430   1.558   3.066  0.6399  0.5781  1.2601
   14SAPS    C2 1750   6.276   1.663   3.187 -0.0948 -0.0203  0.4528
   14SAPS    HS 1751   6.300   1.582   3.259  1.1848  1.4029  1.7135
   14SAPS   O21 1752   6.139   1.699   3.182  0.1929 -0.6390 -0.6577
   14SAPS   C21 1753   6.055   1.600   3.173  0.0711 -0.3235 -0.5203
   14SAPS   O22 1754   6.081   1.481   3.196 -0.6703 -0.7511 -0.4193
   14SAPS   C22 1755   5.918   1.657   3.125 -0.3052  0.4597 -0.0514
   14SAPS   H2R 1756   5.923   1.764   3.096 -0.1217  0.5384  0.2695
   14SAPS   H2S 1757   5.901   1.605   3.028  0.7800 -0.7295  0.3547
   14SAPS    C3 1758   6.355   1.776   3.250  0.2632  0.6020  0.4643
   14SAPS    HX 1759   6.360   1.856   3.173 -1.0628 -0.2791 -0.5919
   14SAPS    HY 1760   6.461   1.745   3.264  0.9020  2.5105  0.2453
   14SAPS   O31 1761   6.295   1.830   3.371 -0.0271  0.3535  0.3147
   14SAPS   C31 1762   6.324   1.754   3.479 -0.5383 -0.0045  0.0868
   14SAPS   O32 1763   6.382   1.650   3.479 -0.5095 -0.1527  0.5813
   14SAPS   C32 1764   6.263   1.817   3.603 -0.1611 -0.3847 -0.2273
   14SAPS   H2X 1765   6.163   1.853   3.571  0.2051  1.4684  0.5877
   14SAPS   H2Y 1766   6.322   1.909   3.626 -2.0568  1.0488 -0.8185
   14SAPS   C23 1767   5.807   1.633   3.219  0.4596 -0.2229 -0.4773
   14SAPS   H3R 1768   5.803   1.532   3.267  1.0665 -1.0334 -2.0817
   14SAPS   H3S 1769   5.714   1.640   3.158  0.3130 -0.2227 -0.2583
   14SAPS   C24 1770   5.797   1.731   3.333  0.3217 -0.5072 -0.0780
   14SAPS   H4R 1771   5.696   1.718   3.379 -2.2619  2.9427 -4.0304
   14SAPS   H4S 1772   5.786   1.835   3.296 -0.6097 -0.5496  0.0474
   14SAPS   C25 1773   5.909   1.734   3.442  0.4503 -0.3333 -0.1257
   14SAPS   H5R 1774   5.991   1.805   3.423  1.0716 -0.8745  0.4712
   14SAPS   C26 1775   5.929   1.633   3.527  0.0757  0.5760  0.5838
   14SAPS   H6R 1776   6.009   1.642   3.603  0.3017 -0.6827  0.5155
   14SAPS   C27 1777   5.843   1.517   3.552  0.9002  0.2753  0.2656
   14SAPS   H7R 1778   5.746   1.517   3.498  1.5721 -2.6842 -1.1173
   14SAPS   H7S 1779   5.820   1.523   3.661  1.6643 -1.6166  0.5722
   14SAPS   C28 1780   5.921   1.394   3.519  0.2723  0.2820  0.3090
   14SAPS   H8R 1781   5.953   1.391   3.414  0.8385  1.3410  0.4366
   14SAPS   C29 1782   5.948   1.287   3.600 -0.0563 -0.1039  0.3509
   14SAPS   H9R 1783   6.015   1.206   3.568 -0.2764  0.2090 -0.9590
   14SAPS  C210 1784   5.894   1.261   3.735  0.0823 -0.0600  0.4232
   14SAPS  H10R 1785   5.874   1.152   3.737  1.4448 -0.3383 -0.1595
   14SAPS  H10S 1786   5.792   1.303   3.745  0.2561 -0.0333  2.5508
   14SAPS  C211 1787   5.975   1.328   3.844  0.1535 -0.5745  0.3213
   14SAPS  H11R 1788   6.042   1.407   3.808  1.5883 -0.8298  2.2582
   14SAPS  C212 1789   5.988   1.291   3.972  0.2975 -0.2921 -0.1642
   14SAPS  H12R 1790   6.038   1.362   4.040 -0.3389  0.2679 -0.2724
   14SAPS  C213 1791   5.926   1.174   4.042  0.2506  0.0389 -0.4021
   14SAPS  H13R 1792   6.012   1.119   4.085  0.5643  0.8122 -0.0200
   14SAPS  H13S 1793   5.862   1.109   3.979 -0.4603  0.2295  0.1080
   14SAPS  C214 1794   5.838   1.222   4.157  0.2298 -0.8364  0.7223
   14SAPS  H14R 1795   5.842   1.329   4.182  0.3398 -0.5265 -0.5297
   14SAPS  C215 1796   5.779   1.140   4.235 -0.9535  0.2712 -0.0530
   14SAPS  H15R 1797   5.732   1.180   4.326  2.7451  0.8321  1.8157
   14SAPS  C216 1798   5.765   0.986   4.217 -0.5634 -0.0504 -0.5394
   14SAPS  H16R 1799   5.776   0.953   4.111  0.3719  0.7367 -0.7054
   14SAPS  H16S 1800   5.664   0.948   4.242  0.3060 -2.2408 -0.1853
   14SAPS  C217 1801   5.848   0.899   4.314 -0.2202  0.4510 -0.6971
   14SAPS  H17R 1802   5.957   0.918   4.303  0.0678  1.0275  2.3404
   14SAPS  H17S 1803   5.832   0.792   4.289 -1.7769  0.2737  0.8872
   14SAPS  C218 1804   5.806   0.914   4.464 -1.2047 -0.0809  0.3670
   14SAPS  H18R 1805   5.698   0.888   4.469 -1.2274 -0.1085 -0.1935
   14SAPS  H18S 1806   5.821   1.018   4.501 -2.1498 -0.2354  1.2416
   14SAPS  C219 1807   5.897   0.828   4.547  0.3753 -0.2495 -0.0051
   14SAPS  H19R 1808   5.999   0.859   4.515  0.0300 -0.7865 -1.7486
   14SAPS  H19S 1809   5.881   0.720   4.526  0.2097 -0.8930  3.0119
   14SAPS  C220 1810   5.865   0.851   4.694  0.1921 -0.4154 -0.3302
   14SAPS  H20R 1811   5.756   0.851   4.714  0.2229 -0.0223 -0.1354
   14SAPS  H20S 1812   5.904   0.954   4.714 -0.9292  0.1694 -1.0417
   14SAPS  H20T 1813   5.908   0.765   4.749  0.0034  0.2519  0.9050
   14SAPS   C33 1814   6.262   1.725   3.725  0.1642 -0.4401 -0.2313
   14SAPS   H3X 1815   6.362   1.677   3.719 -1.0210 -2.9907 -0.6469
   14SAPS   H3Y 1816   6.185   1.646   3.711  0.5434 -0.8672  0.0350
   14SAPS   C34 1817   6.240   1.795   3.860 -0.3597 -0.7041  0.0860
   14SAPS   H4X 1818   6.144   1.849   3.860  0.3251  0.7214 -2.5683
   14SAPS   H4Y 1819   6.322   1.870   3.870  0.3403 -1.3310 -0.7280
   14SAPS   C35 1820   6.250   1.686   3.965 -0.2633  0.3479  0.1779
   14SAPS   H5X 1821   6.341   1.622   3.961  0.2054  0.8824  1.6380
   14SAPS   H5Y 1822   6.162   1.623   3.941  0.4535  0.0219 -1.7591
   14SAPS   C36 1823   6.231   1.739   4.110 -1.0386  0.1659  0.0252
   14SAPS   H6X 1824   6.149   1.814   4.101 -1.5690 -0.5515 -1.5545
   14SAPS   H6Y 1825   6.321   1.791   4.149  0.2145 -1.5058 -0.5023
   14SAPS   C37 1826   6.190   1.619   4.211  0.3425 -0.1506  0.0772
   14SAPS   H7X 1827   6.250   1.613   4.304  2.1166 -2.6653 -1.1430
   14SAPS   H7Y 1828   6.210   1.528   4.151  2.6720 -0.0896  0.6880
   14SAPS   C38 1829   6.041   1.605   4.244  0.4606  0.5766  0.2472
   14SAPS   H8X 1830   5.983   1.584   4.151  2.4553 -1.9797 -0.5503
   14SAPS   H8Y 1831   6.004   1.704   4.277  1.0837  0.7929  0.3046
   14SAPS   C39 1832   6.011   1.505   4.357  0.0212 -0.4453  0.0022
   14SAPS   H9X 1833   6.091   1.511   4.433  0.8116 -2.5005 -0.6000
   14SAPS   H9Y 1834   6.027   1.402   4.319  0.6066  0.4295 -2.2506
   14SAPS  C310 1835   5.868   1.508   4.414 -0.2629  0.2968 -0.5177
   14SAPS  H10X 1836   5.803   1.461   4.337  0.2132  0.1837 -0.8521
   14SAPS  H10Y 1837   5.826   1.609   4.433  0.0034  0.1742  0.8274
   14SAPS  C311 1838   5.846   1.413   4.528 -0.3934 -0.2095 -1.0344
   14SAPS  H11X 1839   5.928   1.434   4.599 -2.0207  1.1861  0.5127
   14SAPS  H11Y 1840   5.871   1.312   4.488  1.6353 -0.5990  1.0098
   14SAPS  C312 1841   5.704   1.420   4.583 -0.0869 -0.2303  0.2429
   14SAPS  H12X 1842   5.698   1.348   4.667  3.1435 -1.7085 -0.6247
   14SAPS  H12Y 1843   5.636   1.387   4.501  0.2529 -0.8798  0.2181
   14SAPS  C313 1844   5.648   1.553   4.638 -0.2738 -0.2464 -0.0665
   14SAPS  H13X 1845   5.648   1.623   4.552  0.6793  0.7972  0.7485
   14SAPS  H13Y 1846   5.710   1.601   4.716 -1.5916  0.9242  0.3129
   14SAPS  C314 1847   5.510   1.538   4.698  0.1917 -0.2699 -0.1947
   14SAPS  H14X 1848   5.516   1.490   4.798  1.4116  0.7061  0.2186
   14SAPS  H14Y 1849   5.452   1.468   4.634  0.0610 -2.1043  1.8011
   14SAPS  C315 1850   5.436   1.671   4.702 -0.3307 -0.1221  0.5493
   14SAPS  H15X 1851   5.432   1.705   4.597 -1.4756  0.1405  0.6615
   14SAPS  H15Y 1852   5.504   1.736   4.761 -1.3581  1.4632  0.0363
   14SAPS  C316 1853   5.300   1.656   4.767  0.2923 -0.5361 -0.5844
   14SAPS  H16X 1854   5.301   1.630   4.875 -3.5465  0.0572 -0.2633
   14SAPS  H16Y 1855   5.233   1.579   4.722  1.1015 -1.6302  0.0220
   14SAPS  C317 1856   5.218   1.784   4.747  0.0567 -0.4624  0.1602
   14SAPS  H17X 1857   5.218   1.810   4.639 -2.6772 -1.2806 -0.1113
   14SAPS  H17Y 1858   5.276   1.860   4.804  0.9983 -0.7095 -0.4429
   14SAPS  C318 1859   5.081   1.772   4.804 -0.3277  0.1825 -0.4724
   14SAPS  H18X 1860   5.091   1.764   4.914  2.5340 -1.2549 -0.7580
   14SAPS  H18Y 1861   5.032   1.678   4.772  0.2164 -1.0696  2.1271
   14SAPS  H18Z 1862   5.015   1.860   4.786 -1.8905 -0.5995  1.1364
   15SAPS     N 1863   6.067   2.032   2.349 -0.8632  0.1066 -0.7508
   15SAPS   HN1 1864   6.039   1.969   2.271  1.4223 -1.1502 -0.6324
   15SAPS   HN2 1865   6.157   2.006   2.393 -1.6087  0.8058  1.3600
   15SAPS   HN3 1866   5.989   2.019   2.417 -0.5861  0.0981 -0.4300
   15SAPS   C12 1867   6.071   2.174   2.301 -0.1599  0.0296 -0.5638
   15SAPS  H12A 1868   6.165   2.193   2.251  1.6327 -1.0091  2.2158
   15SAPS   C13 1869   5.955   2.207   2.201 -0.5145 -0.7520 -0.5028
   15SAPS  O13A 1870   5.870   2.119   2.186 -0.4431 -0.1800 -0.1171
   15SAPS  O13B 1871   5.934   2.328   2.169 -0.0357 -0.0357 -0.6617
   15SAPS   C11 1872   6.068   2.286   2.409 -0.3404  0.3171  0.8721
   15SAPS  H11A 1873   5.971   2.287   2.462 -0.4038 -1.5513  0.8619
   15SAPS  H11B 1874   6.089   2.385   2.364  0.4462  0.2935  1.1773
   15SAPS     P 1875   6.174   2.329   2.639 -0.0737  0.3507  0.2975
   15SAPS   O13 1876   6.298   2.300   2.713  0.1432  0.7877 -0.4182
   15SAPS   O14 1877   6.136   2.469   2.617 -0.0703 -0.2122  0.2872
   15SAPS   O12 1878   6.178   2.255   2.505 -0.2316 -0.1550 -0.0575
   15SAPS   O11 1879   6.050   2.252   2.704 -0.1978 -0.7534  0.6997
   15SAPS    C1 1880   6.065   2.127   2.778 -0.2215  0.7755 -0.3728
   15SAPS    HA 1881   5.982   2.063   2.740 -0.2187  0.9567 -0.6885
   15SAPS    HB 1882   6.155   2.069   2.749 -0.9070  0.6915 -2.4843
   15SAPS    C2 1883   6.053   2.148   2.933 -0.0937  0.4296 -0.3822
   15SAPS    HS 1884   5.951   2.185   2.954 -0.2552 -0.6407  0.8370
   15SAPS   O21 1885   6.162   2.235   2.968  0.6366  0.1113 -0.1629
   15SAPS   C21 1886   6.122   2.347   3.034  0.4530  0.4986  0.2187
   15SAPS   O22 1887   6.007   2.369   3.062  0.3407  0.2155 -0.0209
   15SAPS   C22 1888   6.237   2.430   3.070 -0.8883  0.8900  0.0957
   15SAPS   H2R 1889   6.318   2.375   3.121 -1.5810 -0.1916  0.0664
   15SAPS   H2S 1890   6.296   2.460   2.980  0.7474  2.2531  1.5528
   15SAPS    C3 1891   6.075   2.016   3.012  0.0181  0.2029 -0.6456
   15SAPS    HX 1892   6.186   2.016   3.022 -0.0396  2.4401  0.6457
   15SAPS    HY 1893   6.053   1.926   2.951  2.1654 -0.3421 -0.6931
   15SAPS   O31 1894   6.009   2.021   3.143 -0.2334 -0.2196 -0.0833
   15SAPS   C31 1895   6.061   2.096   3.246  0.6432  0.3133 -0.6433
   15SAPS   O32 1896   6.172   2.148   3.246  1.0281  0.2364  0.9705
   15SAPS   C32 1897   5.958   2.108   3.358  0.3260  0.1028 -0.3288
   15SAPS   H2X 1898   5.919   2.005   3.373  1.8213 -0.3994  0.3448
   15SAPS   H2Y 1899   5.875   2.174   3.326 -0.5999 -0.2782  1.2005
   15SAPS   C23 1900   6.199   2.560   3.147 -0.1472 -0.2210  0.2392
   15SAPS   H3R 1901   6.104   2.612   3.120  0.1487  1.0426  1.5276
   15SAPS   H3S 1902   6.275   2.639   3.129  1.2672 -1.5732  0.1232
   15SAPS   C24 1903   6.197   2.531   3.297  0.8669  0.2770 -0.0213
   15SAPS   H4R 1904   6.122   2.450   3.306 -2.3848  2.9811 -0.7012
   15SAPS   H4S 1905   6.142   2.615   3.345 -1.5276 -1.5924  0.6722
   15SAPS   C25 1906   6.339   2.502   3.350  0.4166  0.5627 -0.5425
   15SAPS   H5R 1907   6.415   2.529   3.275  0.7017  0.4200 -0.3068
   15SAPS   C26 1908   6.372   2.432   3.456  0.0305  0.0398  0.3204
   15SAPS   H6R 1909   6.479   2.421   3.476 -0.0351 -2.0326 -0.2523
   15SAPS   C27 1910   6.289   2.373   3.565 -0.1725 -0.7682  0.5781
   15SAPS   H7R 1911   6.186   2.367   3.526 -0.0913 -4.5439  0.5805
   15SAPS   H7S 1912   6.279   2.429   3.661 -1.7925  0.4082 -0.2188
   15SAPS   C28 1913   6.338   2.231   3.588 -0.4707  0.0823 -0.4936
   15SAPS   H8R 1914   6.309   2.164   3.505 -2.8387  0.1785  0.1783
   15SAPS   C29 1915   6.389   2.181   3.704  0.5363 -0.7992  0.3821
   15SAPS   H9R 1916   6.416   2.074   3.702  1.8402 -0.5706 -3.6400
   15SAPS  C210 1917   6.390   2.266   3.832  0.1041 -0.1881  0.6553
   15SAPS  H10R 1918   6.286   2.256   3.869 -0.0998  1.4847  0.5780
   15SAPS  H10S 1919   6.401   2.375   3.817 -1.7695 -0.0112  0.2596
   15SAPS  C211 1920   6.498   2.205   3.921 -0.2513 -0.1356 -0.3666
   15SAPS  H11R 1921   6.584   2.161   3.868 -1.0097 -0.3103 -1.4857
   15SAPS  C212 1922   6.495   2.212   4.059  0.0532  0.1742  0.3826
   15SAPS  H12R 1923   6.575   2.154   4.107  2.6809  1.6593 -1.9560
   15SAPS  C213 1924   6.376   2.260   4.142 -0.6709  0.0639  0.4741
   15SAPS  H13R 1925   6.300   2.312   4.080 -1.4595 -1.3371  0.2418
   15SAPS  H13S 1926   6.417   2.330   4.218 -3.0547 -0.7463  2.6321
   15SAPS  C214 1927   6.317   2.133   4.199  0.0619 -0.4855  0.2320
   15SAPS  H14R 1928   6.305   2.055   4.123  0.7718  0.9220 -1.3946
   15SAPS  C215 1929   6.279   2.111   4.334  0.5866 -1.1910  0.6781
   15SAPS  H15R 1930   6.235   2.017   4.369  1.0372 -1.1669  1.3230
   15SAPS  C216 1931   6.289   2.225   4.438 -0.3675  0.2323  0.2603
   15SAPS  H16R 1932   6.225   2.195   4.523  2.1802 -0.0131  2.2138
   15SAPS  H16S 1933   6.256   2.325   4.402  1.4371  0.1785 -1.8267
   15SAPS  C217 1934   6.430   2.240   4.508 -0.2780  0.4083 -0.9540
   15SAPS  H17R 1935   6.430   2.313   4.592  1.1343  0.0234 -0.5968
   15SAPS  H17S 1936   6.506   2.274   4.435  0.2010  0.5317 -0.4092
   15SAPS  C218 1937   6.497   2.109   4.544 -0.3959  0.3550  0.1158
   15SAPS  H18R 1938   6.517   2.044   4.457 -0.9809 -0.0660  0.2822
   15SAPS  H18S 1939   6.427   2.048   4.605 -1.9190  1.7239 -0.1640
   15SAPS  C219 1940   6.612   2.121   4.640  0.1806 -0.5466 -0.1464
   15SAPS  H19R 1941   6.627   2.226   4.674  2.1052 -1.1295  0.9543
   15SAPS  H19S 1942   6.709   2.090   4.596  0.2956 -1.1405  0.5084
   15SAPS  C220 1943   6.594   2.035   4.760  0.5406 -0.0417  0.0753
   15SAPS  H20R 1944   6.572   1.931   4.728 -0.1900 -0.5664  2.1304
   15SAPS  H20S 1945   6.508   2.078   4.816  0.3086  0.1247 -0.4060
   15SAPS  H20T 1946   6.676   2.039   4.835 -0.3987  2.3541  1.0699
   15SAPS   C33 1947   6.016   2.152   3.492  0.2288 -0.4791 -0.0451
   15SAPS   H3X 1948   6.031   2.263   3.493  2.3000 -0.7186  0.6080
   15SAPS   H3Y 1949   6.120   2.112   3.498 -0.3253 -2.1263 -0.8621
   15SAPS   C34 1950   5.940   2.109   3.615  0.5217  0.2406  0.6154
   15SAPS   H4X 1951   5.928   1.999   3.616  2.0800 -0.0692 -2.1846
   15SAPS   H4Y 1952   5.840   2.157   3.608 -2.3483 -5.1640 -1.2962
   15SAPS   C35 1953   6.010   2.136   3.750  1.0026  0.2647 -0.5504
   15SAPS   H5X 1954   6.042   2.242   3.740 -2.3277  1.2734 -1.6878
   15SAPS   H5Y 1955   6.103   2.074   3.756  1.0505  0.1595 -1.9126
   15SAPS   C36 1956   5.923   2.130   3.880 -0.3197  0.0640  0.1983
   15SAPS   H6X 1957   5.897   2.023   3.898  0.3800  0.0059  0.9088
   15SAPS   H6Y 1958   5.826   2.184   3.870 -0.5607  0.0239  1.8861
   15SAPS   C37 1959   5.995   2.194   4.005 -0.6733  0.1085 -0.5561
   15SAPS   H7X 1960   6.086   2.252   3.978 -0.6688  0.5453  0.3629
   15SAPS   H7Y 1961   6.023   2.109   4.072 -2.2656  0.8837  1.1766
   15SAPS   C38 1962   5.899   2.276   4.104 -0.1687  0.2586 -0.3981
   15SAPS   H8X 1963   5.798   2.230   4.096  0.0714 -0.0538 -1.7537
   15SAPS   H8Y 1964   5.889   2.375   4.054 -1.2632  0.3416 -0.0408
   15SAPS   C39 1965   5.958   2.293   4.244 -0.6743  0.7796  0.3647
   15SAPS   H9X 1966   6.065   2.308   4.218  0.9570 -6.5491  0.6353
   15SAPS   H9Y 1967   5.963   2.195   4.298 -1.2283 -0.5396 -1.8434
   15SAPS  C310 1968   5.890   2.399   4.321 -0.5491 -0.3983 -0.5563
   15SAPS  H10X 1969   5.784   2.374   4.343 -0.4460  0.0161  0.4998
   15SAPS  H10Y 1970   5.892   2.491   4.258  0.3220 -0.1242 -0.1465
   15SAPS  C311 1971   5.946   2.441   4.457  0.0270  0.7312  0.6469
   15SAPS  H11X 1972   5.900   2.537   4.491 -0.2707  1.2619 -1.1693
   15SAPS  H11Y 1973   6.056   2.452   4.451 -0.1041  1.8306 -0.0586
   15SAPS  C312 1974   5.927   2.333   4.568  0.5980  0.5194 -0.3005
   15SAPS  H12X 1975   5.946   2.236   4.518 -0.3027  1.3759 -2.4146
   15SAPS  H12Y 1976   5.822   2.341   4.605  0.3752  1.6960 -1.1342
   15SAPS  C313 1977   6.023   2.347   4.687  0.2427 -0.3322  0.0211
   15SAPS  H13X 1978   6.002   2.447   4.731  0.5556 -0.3097  0.1223
   15SAPS  H13Y 1979   6.130   2.335   4.663  0.2166  0.8569 -0.7472
   15SAPS  C314 1980   5.992   2.242   4.790  0.1634 -0.2097 -0.2840
   15SAPS  H14X 1981   5.882   2.229   4.797  0.0636  0.4477 -0.5336
   15SAPS  H14Y 1982   6.017   2.285   4.889 -3.2105 -0.0469  0.5913
   15SAPS  C315 1983   6.070   2.110   4.773  0.5103 -0.4662  0.6836
   15SAPS  H15X 1984   6.054   2.065   4.873  2.7387 -0.2842  1.1889
   15SAPS  H15Y 1985   6.181   2.118   4.764  0.8735 -3.5503  1.1599
   15SAPS  C316 1986   6.003   2.004   4.678  0.3046  0.0305  0.1271
   15SAPS  H16X 1987   5.993   2.025   4.569  0.2541  0.3952  0.2022
   15SAPS  H16Y 1988   5.897   2.000   4.712  0.0988  1.0963 -0.3501
   15SAPS  C317 1989   6.079   1.865   4.674  0.6070  0.5099  0.0536
   15SAPS  H17X 1990   6.117   1.841   4.776 -0.2996  0.0368  0.2924
   15SAPS  H17Y 1991   6.167   1.884   4.609  2.5477 -1.0017  2.0702
   15SAPS  C318 1992   5.986   1.763   4.602 -0.1856  0.2382 -0.2974
   15SAPS  H18X 1993   6.020   1.659   4.584 -2.3639 -0.2989 -1.6848
   15SAPS  H18Y 1994   5.957   1.799   4.501 -1.6344 -2.5426 -0.9720
   15SAPS  H18Z 1995   5.891   1.745   4.657 -0.5848 -0.4251 -1.1798
   16SAPS     N 1996   0.149   3.130   2.585 -0.0168  0.4448 -0.3231
   16SAPS   HN1 1997   0.211   3.064   2.637 -0.9439  1.8015  2.7487
   16SAPS   HN2 1998   0.208   3.182   2.517 -0.1234  0.9166 -0.0584
   16SAPS   HN3 1999   0.104   3.189   2.658 -0.5683  0.7987 -0.9402
   16SAPS   C12 2000   0.039   3.053   2.517 -0.4723  0.4360 -0.2133
   16SAPS  H12A 2001  -0.003   3.122   2.445  1.0161  4.0272  2.0290
   16SAPS   C13 2002   0.088   2.949   2.424  0.0275 -0.1331  1.6569
   16SAPS  O13A 2003   0.210   2.928   2.397 -0.1080 -0.0980  0.0328
   16SAPS  O13B 2004  -0.007   2.880   2.367  0.2555 -0.0557 -0.0577
   16SAPS   C11 2005  -0.054   2.998   2.626 -0.5301  0.4877  0.6719
   16SAPS  H11A 2006   0.009   2.927   2.683  0.3856  1.3633  0.7739
   16SAPS  H11B 2007  -0.131   2.931   2.581 -0.0570 -1.0595  2.0470
   16SAPS     P 2008  -0.258   3.076   2.779 -0.3634  0.7609  0.4947
   16SAPS   O13 2009  -0.281   3.170   2.891  0.4969  0.3233 -0.1207
   16SAPS   O14 2010  -0.350   3.081   2.665 -0.9856  0.2260 -0.1357
   16SAPS   O12 2011  -0.109   3.099   2.719 -0.0931 -0.1788  0.3602
   16SAPS   O11 2012  -0.250   2.929   2.836 -0.1149  0.3462  0.0562
   16SAPS    C1 2013  -0.137   2.867   2.906 -0.2056  0.0064  0.1072
   16SAPS    HA 2014  -0.107   2.769   2.863  1.5570  1.3559 -2.0115
   16SAPS    HB 2015  -0.047   2.933   2.907  0.2020 -0.5223 -0.6872
   16SAPS    C2 2016  -0.179   2.830   3.047 -0.3126  0.0145  0.1810
   16SAPS    HS 2017  -0.249   2.744   3.050  1.2141 -1.3091 -0.5663
   16SAPS   O21 2018  -0.229   2.958   3.104 -0.0419  0.2408  0.1053
   16SAPS   C21 2019  -0.348   2.967   3.148 -0.4129  0.5555 -0.3556
   16SAPS   O22 2020  -0.432   2.880   3.156 -0.1653 -0.7928  0.1891
   16SAPS   C22 2021  -0.363   3.109   3.198  0.3846 -0.0484 -0.7757
   16SAPS   H2R 2022  -0.258   3.146   3.200  0.8885 -1.2939  2.7750
   16SAPS   H2S 2023  -0.416   3.173   3.125 -0.0993  1.8996  1.1706
   16SAPS    C3 2024  -0.052   2.773   3.128 -0.3315 -0.6463  0.4033
   16SAPS    HX 2025   0.036   2.838   3.108 -1.3880 -0.1708 -3.3532
   16SAPS    HY 2026  -0.035   2.669   3.091  0.7770 -0.7528  1.1525
   16SAPS   O31 2027  -0.084   2.760   3.265 -0.1235 -0.3756 -0.0133
   16SAPS   C31 2028   0.014   2.704   3.333 -0.3049 -0.3970  0.1669
   16SAPS   O32 2029   0.121   2.679   3.285 -0.3866  0.1170  0.0139
   16SAPS   C32 2030  -0.035   2.673   3.479  0.8497  0.2931  0.0162
   16SAPS   H2X 2031  -0.140   2.641   3.461  0.7612 -0.7968  2.2685
   16SAPS   H2Y 2032  -0.040   2.757   3.551 -1.4788 -1.4083  1.9869
   16SAPS   C23 2033  -0.414   3.113   3.344  0.2107  0.1596  0.5549
   16SAPS   H3R 2034  -0.523   3.092   3.347 -0.1433  1.7742 -0.2207
   16SAPS   H3S 2035  -0.396   3.217   3.378  0.2630  0.6872 -1.0349
   16SAPS   C24 2036  -0.340   3.017   3.438  0.9178 -0.0283  0.2409
   16SAPS   H4R 2037  -0.343   3.073   3.533  0.1891  2.4349 -1.1508
   16SAPS   H4S 2038  -0.238   3.013   3.393  1.2515  0.9671  0.8812
   16SAPS   C25 2039  -0.405   2.880   3.463  0.1846 -0.0217  0.0019
   16SAPS   H5R 2040  -0.473   2.843   3.385  0.2351  0.2759 -0.1859
   16SAPS   C26 2041  -0.395   2.804   3.578  0.2237  0.4733  0.5738
   16SAPS   H6R 2042  -0.446   2.706   3.573  2.2685 -0.8494  3.4158
   16SAPS   C27 2043  -0.322   2.839   3.699 -0.1958 -0.3115 -0.0873
   16SAPS   H7R 2044  -0.235   2.898   3.663  0.7591 -1.2959  0.5702
   16SAPS   H7S 2045  -0.282   2.742   3.736  1.7669 -0.1387 -1.6148
   16SAPS   C28 2046  -0.395   2.922   3.801  0.4830  0.1421  0.5519
   16SAPS   H8R 2047  -0.435   3.020   3.772  0.1188  0.0578  0.7542
   16SAPS   C29 2048  -0.418   2.878   3.931 -0.4612 -0.0780  0.3535
   16SAPS   H9R 2049  -0.491   2.935   3.991  0.3574  0.7680  0.5595
   16SAPS  C210 2050  -0.385   2.741   3.983 -0.9320 -0.4020  0.2202
   16SAPS  H10R 2051  -0.276   2.724   3.971 -0.4022  2.6776 -0.2092
   16SAPS  H10S 2052  -0.436   2.663   3.922  0.8275 -0.6789 -0.9643
   16SAPS  C211 2053  -0.423   2.731   4.128 -0.0251  0.3372  0.2156
   16SAPS  H11R 2054  -0.346   2.728   4.206  0.2811  0.6793 -0.0658
   16SAPS  C212 2055  -0.547   2.707   4.175  0.3108 -0.6308  0.1942
   16SAPS  H12R 2056  -0.562   2.705   4.283  1.0719  0.4399  0.3442
   16SAPS  C213 2057  -0.670   2.673   4.092 -0.0037  0.2414 -0.5351
   16SAPS  H13R 2058  -0.692   2.758   4.024  2.5047  1.4004 -0.0467
   16SAPS  H13S 2059  -0.753   2.660   4.165 -0.5855  1.1371 -1.0201
   16SAPS  C214 2060  -0.675   2.548   4.007  0.1253 -0.6019  0.6048
   16SAPS  H14R 2061  -0.665   2.451   4.059  1.9842 -1.2548 -0.8418
   16SAPS  C215 2062  -0.693   2.542   3.879 -0.3512  0.3720  0.4277
   16SAPS  H15R 2063  -0.688   2.440   3.838 -0.1046  0.5819 -0.0721
   16SAPS  C216 2064  -0.718   2.646   3.768  0.6924 -0.4742 -0.5849
   16SAPS  H16R 2065  -0.618   2.673   3.727  0.4441  2.5764  0.5626
   16SAPS  H16S 2066  -0.743   2.740   3.821  1.0116  0.3915 -1.9431
   16SAPS  C217 2067  -0.828   2.606   3.666  0.2898 -0.4377 -0.4400
   16SAPS  H17R 2068  -0.918   2.602   3.732  1.9609  1.9858  2.2452
   16SAPS  H17S 2069  -0.800   2.509   3.622  0.1209 -0.0695 -1.3709
   16SAPS  C218 2070  -0.844   2.719   3.562  0.9025 -0.2935  0.4963
   16SAPS  H18R 2071  -0.744   2.765   3.546  1.2072 -1.2874 -0.5465
   16SAPS  H18S 2072  -0.905   2.804   3.600  0.3953 -0.4163 -0.0290
   16SAPS  C219 2073  -0.922   2.668   3.439  0.3112  0.1400  0.0669
   16SAPS  H19R 2074  -1.028   2.663   3.474  1.2587  0.8795  3.3468
   16SAPS  H19S 2075  -0.876   2.567   3.432  3.4667  1.4139  0.8854
   16SAPS  C220 2076  -0.907   2.726   3.297 -0.1827  0.4799 -0.5604
   16SAPS  H20R 2077  -0.807   2.774   3.289  0.0262  0.4319  1.2338
   16SAPS  H20S 2078  -0.986   2.804   3.289 -0.7845 -0.2197 -1.5991
   16SAPS  H20T 2079  -0.929   2.663   3.209 -0.1990  0.1950 -0.3541
   16SAPS   C33 2080   0.038   2.556   3.550 -0.1487 -0.2484  0.7795
   16SAPS   H3X 2081   0.146   2.577   3.567 -0.0758  0.2476 -0.2117
   16SAPS   H3Y 2082   0.053   2.472   3.478 -2.6413 -1.1337  1.2154
   16SAPS   C34 2083  -0.031   2.496   3.668  0.4865 -0.0438  0.2081
   16SAPS   H4X 2084   0.006   2.392   3.682 -0.4454 -0.2870  1.0106
   16SAPS   H4Y 2085  -0.140   2.490   3.646  0.3974  0.3773  0.5033
   16SAPS   C35 2086  -0.020   2.577   3.797  0.1084 -0.0703  0.3945
   16SAPS   H5X 2087  -0.083   2.669   3.794  0.3706  0.2012  2.2787
   16SAPS   H5Y 2088   0.081   2.622   3.791 -0.3014  0.6935 -1.7932
   16SAPS   C36 2089  -0.037   2.507   3.927  0.1092  0.2480  0.5200
   16SAPS   H6X 2090   0.023   2.414   3.933 -0.0858  0.2125  3.0316
   16SAPS   H6Y 2091  -0.146   2.485   3.936 -0.2249 -0.0353 -2.9104
   16SAPS   C37 2092  -0.001   2.588   4.053 -0.7859  0.4175 -0.3221
   16SAPS   H7X 2093  -0.034   2.694   4.042 -0.6161  0.3410 -1.7831
   16SAPS   H7Y 2094   0.109   2.586   4.073 -0.8778  0.8657  0.2364
   16SAPS   C38 2095  -0.067   2.541   4.186 -0.4908  0.5424 -0.7456
   16SAPS   H8X 2096  -0.055   2.432   4.202 -2.5485  0.1427 -1.5701
   16SAPS   H8Y 2097  -0.177   2.558   4.181 -0.5081  0.8986  0.4615
   16SAPS   C39 2098  -0.010   2.608   4.312 -0.5196 -0.7527 -0.4074
   16SAPS   H9X 2099  -0.006   2.719   4.306 -1.7445 -0.6472  0.3121
   16SAPS   H9Y 2100   0.095   2.577   4.329 -0.7312 -0.6056  1.4074
   16SAPS  C310 2101  -0.082   2.566   4.445  0.1912  0.2851  0.0987
   16SAPS  H10X 2102  -0.068   2.456   4.448  1.5366  0.4371  2.8499
   16SAPS  H10Y 2103  -0.188   2.598   4.454  0.8938  2.4106  1.4529
   16SAPS  C311 2104  -0.005   2.629   4.561 -0.3251  0.5417 -1.0707
   16SAPS  H11X 2105  -0.043   2.734   4.563 -2.6292 -0.2193  0.3224
   16SAPS  H11Y 2106   0.105   2.626   4.548 -0.4121  1.4171 -2.1826
   16SAPS  C312 2107  -0.037   2.571   4.706 -0.1825 -0.1891  0.7038
   16SAPS  H12X 2108  -0.008   2.463   4.712 -1.4062 -0.5473  0.4277
   16SAPS  H12Y 2109  -0.145   2.575   4.728 -0.2223 -1.4397  0.8063
   16SAPS  C313 2110   0.042   2.654   4.806 -1.1792  0.7542  0.0685
   16SAPS  H13X 2111   0.018   2.760   4.786  1.0791  0.9732 -1.8777
   16SAPS  H13Y 2112   0.150   2.637   4.789 -1.3213  0.4527 -0.5743
   16SAPS  C314 2113   0.012   2.626   4.952  0.0160 -1.0506 -0.4577
   16SAPS  H14X 2114   0.106   2.641   5.009 -0.2667  1.3746 -0.5310
   16SAPS  H14Y 2115  -0.014   2.519   4.965 -0.4542 -1.1358 -1.9115
   16SAPS  C315 2116  -0.095   2.703   5.024 -0.2134  0.0500 -0.0646
   16SAPS  H15X 2117  -0.112   2.653   5.122 -0.8263 -0.2855 -0.3325
   16SAPS  H15Y 2118  -0.192   2.689   4.971  1.0297  2.2462 -3.2100
   16SAPS  C316 2119  -0.064   2.849   5.048  0.3461  0.3115  0.4404
   16SAPS  H16X 2120  -0.044   2.878   4.943 -0.1260 -2.7895 -0.6152
   16SAPS  H16Y 2121   0.033   2.863   5.100  2.0477  3.2686 -3.0986
   16SAPS  C317 2122  -0.185   2.916   5.120  0.0110 -0.8524 -0.1137
   16SAPS  H17X 2123  -0.281   2.907   5.065 -0.5638 -0.2660  0.7665
   16SAPS  H17Y 2124  -0.163   3.024   5.134  0.4309 -0.8547 -0.7240
   16SAPS  C318 2125  -0.204   2.850   5.259 -0.4142 -0.2593 -0.0459
   16SAPS  H18X 2126  -0.262   2.912   5.329 -2.3765 -1.1276 -0.8298
   16SAPS  H18Y 2127  -0.105   2.817   5.297  0.4174 -0.1323 -1.9741
   16SAPS  H18Z 2128  -0.260   2.755   5.243 -1.6634  0.3675  0.5256
   17SAPS     N 2129   2.542   2.597   2.462  0.1645 -0.0070 -0.4924
   17SAPS   HN1 2130   2.543   2.663   2.543 -0.5903 -0.2337 -0.2933
   17SAPS   HN2 2131   2.512   2.505   2.500  0.1091  0.0643 -0.3590
   17SAPS   HN3 2132   2.631   2.590   2.410 -0.8575 -0.5886 -2.2365
   17SAPS   C12 2133   2.450   2.652   2.368 -0.0322 -0.6447 -0.0295
   17SAPS  H12A 2134   2.518   2.661   2.284 -0.7612 -0.7784 -0.6510
   17SAPS   C13 2135   2.343   2.548   2.321 -0.6724  0.1090  0.3767
   17SAPS  O13A 2136   2.328   2.445   2.393 -0.2314  0.3668  0.0404
   17SAPS  O13B 2137   2.279   2.569   2.214  0.1399  0.2810 -0.1930
   17SAPS   C11 2138   2.404   2.794   2.406  0.0654  0.0083 -0.4630
   17SAPS  H11A 2139   2.356   2.788   2.506 -1.7805 -0.9865 -1.3567
   17SAPS  H11B 2140   2.338   2.835   2.327  0.7589  1.8837 -0.1007
   17SAPS     P 2141   2.520   3.026   2.383 -0.3063  0.1430 -0.3292
   17SAPS   O13 2142   2.652   3.054   2.318  0.3440  0.2075  0.2408
   17SAPS   O14 2143   2.404   3.063   2.309 -0.1220 -0.1751 -0.2138
   17SAPS   O12 2144   2.517   2.872   2.420 -0.2313 -0.2736  0.0609
   17SAPS   O11 2145   2.520   3.099   2.519 -0.5312 -0.1565  0.2875
   17SAPS    C1 2146   2.625   3.066   2.602 -0.4645 -0.3891  0.6184
   17SAPS    HA 2147   2.614   2.959   2.628  1.0789 -1.4266 -2.4696
   17SAPS    HB 2148   2.724   3.087   2.555  1.1522 -1.1297  3.4381
   17SAPS    C2 2149   2.598   3.149   2.737 -0.1726 -0.8605  0.9503
   17SAPS    HS 2150   2.675   3.118   2.811  0.8400  1.1146  0.7818
   17SAPS   O21 2151   2.463   3.131   2.789 -0.2748  0.2572  0.4467
   17SAPS   C21 2152   2.434   3.006   2.823 -0.7873 -0.7707  0.3518
   17SAPS   O22 2153   2.516   2.918   2.853  0.0291 -0.2400  0.1744
   17SAPS   C22 2154   2.275   2.982   2.820 -0.3121  0.0634  0.3007
   17SAPS   H2R 2155   2.228   3.081   2.840  2.5390  1.4557  0.7086
   17SAPS   H2S 2156   2.260   2.945   2.716  1.3731  2.8099 -1.0431
   17SAPS    C3 2157   2.633   3.302   2.720  0.5867 -0.6048 -0.1526
   17SAPS    HX 2158   2.567   3.360   2.651  1.1186  0.7021  0.4134
   17SAPS    HY 2159   2.735   3.299   2.676  0.6705  1.1539 -0.1422
   17SAPS   O31 2160   2.648   3.362   2.854 -0.2918 -0.4071  0.4446
   17SAPS   C31 2161   2.686   3.499   2.859 -0.9764  0.5880  0.4520
   17SAPS   O32 2162   2.714   3.570   2.762 -0.2987 -0.1421 -0.4021
   17SAPS   C32 2163   2.686   3.545   2.997 -0.9140  0.2123 -0.4155
   17SAPS   H2X 2164   2.660   3.462   3.066 -0.0771 -1.1783 -1.6917
   17SAPS   H2Y 2165   2.599   3.614   3.008 -0.3941  0.7860  0.1741
   17SAPS   C23 2166   2.219   2.876   2.926 -0.1941  0.3513 -0.6886
   17SAPS   H3R 2167   2.297   2.797   2.938 -0.2290  0.7222  4.4127
   17SAPS   H3S 2168   2.122   2.837   2.890  0.6525 -0.5148 -2.1585
   17SAPS   C24 2169   2.190   2.930   3.068  0.3150  0.0139  0.0774
   17SAPS   H4R 2170   2.111   2.875   3.124  1.6555 -0.4058  1.5967
   17SAPS   H4S 2171   2.151   3.035   3.064 -1.3931 -0.5112  1.3488
   17SAPS   C25 2172   2.320   2.933   3.144 -0.2324  0.1439 -0.0012
   17SAPS   H5R 2173   2.411   2.948   3.084 -0.3283  0.1434 -0.1505
   17SAPS   C26 2174   2.330   2.915   3.278 -0.2559  0.4949 -0.2156
   17SAPS   H6R 2175   2.429   2.907   3.324 -0.5230  0.3525  0.3472
   17SAPS   C27 2176   2.213   2.896   3.373 -0.3259  0.0424 -0.0238
   17SAPS   H7R 2177   2.174   2.792   3.373 -2.1364  0.6620 -0.9021
   17SAPS   H7S 2178   2.120   2.948   3.340 -0.4136 -0.2541 -0.2452
   17SAPS   C28 2179   2.261   2.947   3.513  0.9088  1.3041 -0.4813
   17SAPS   H8R 2180   2.321   3.040   3.511  1.0311  1.2526 -3.3844
   17SAPS   C29 2181   2.235   2.895   3.631  0.4451  0.1981 -0.7855
   17SAPS   H9R 2182   2.281   2.937   3.722 -1.3602 -3.3019  1.9993
   17SAPS  C210 2183   2.154   2.773   3.655 -0.7421 -0.1048  0.0111
   17SAPS  H10R 2184   2.161   2.686   3.586  1.9011 -0.4004  0.5428
   17SAPS  H10S 2185   2.049   2.809   3.653  0.1223  2.5517 -0.1521
   17SAPS  C211 2186   2.176   2.727   3.796  0.7370  0.4023 -0.1886
   17SAPS  H11R 2187   2.141   2.790   3.878  3.2317  1.4563  0.1570
   17SAPS  C212 2188   2.222   2.600   3.828  0.6739  0.2649  0.9079
   17SAPS  H12R 2189   2.241   2.576   3.933 -1.0031  0.7379  1.3479
   17SAPS  C213 2190   2.276   2.497   3.730  0.0184  0.5509 -0.5387
   17SAPS  H13R 2191   2.211   2.489   3.641 -0.0094  1.7257 -0.6498
   17SAPS  H13S 2192   2.266   2.405   3.791 -0.0068 -1.2054 -3.0805
   17SAPS  C214 2193   2.428   2.515   3.707 -0.1599 -0.1181  0.1994
   17SAPS  H14R 2194   2.442   2.546   3.603  0.4203  0.4821  0.4531
   17SAPS  C215 2195   2.527   2.470   3.788 -0.5166  0.1838 -0.0192
   17SAPS  H15R 2196   2.631   2.490   3.761  0.0118 -1.6762  0.5068
   17SAPS  C216 2197   2.503   2.415   3.934 -0.0008  0.5971  0.1363
   17SAPS  H16R 2198   2.468   2.310   3.930 -0.8417  0.8932 -0.4085
   17SAPS  H16S 2199   2.413   2.462   3.978  1.6772  2.0839  2.1933
   17SAPS  C217 2200   2.623   2.436   4.029 -0.6108 -0.2835 -0.6637
   17SAPS  H17R 2201   2.629   2.546   4.046 -2.9553 -0.0329 -1.0075
   17SAPS  H17S 2202   2.713   2.398   3.977  0.3330  1.8568 -0.7170
   17SAPS  C218 2203   2.613   2.372   4.164  0.9904  0.0854 -0.2506
   17SAPS  H18R 2204   2.507   2.378   4.199  1.3266  1.5823  0.6308
   17SAPS  H18S 2205   2.675   2.420   4.243 -1.9618  0.7651  1.8522
   17SAPS  C219 2206   2.661   2.224   4.188 -0.1001 -0.0470 -0.3707
   17SAPS  H19R 2207   2.768   2.217   4.158 -0.3484 -1.9380 -0.9358
   17SAPS  H19S 2208   2.620   2.144   4.123  1.8440 -1.4009 -0.0191
   17SAPS  C220 2209   2.651   2.181   4.337  0.2791 -0.6543 -0.0204
   17SAPS  H20R 2210   2.705   2.256   4.398  0.1603  2.3750 -3.3036
   17SAPS  H20S 2211   2.689   2.079   4.357  0.6144 -0.6606 -0.6478
   17SAPS  H20T 2212   2.546   2.194   4.372  0.4290  0.0258  0.1837
   17SAPS   C33 2213   2.820   3.616   3.036  0.0136  0.0717 -0.3469
   17SAPS   H3X 2214   2.843   3.694   2.960 -1.2069  0.2609 -0.5420
   17SAPS   H3Y 2215   2.901   3.541   3.031  1.5242  1.4059  1.9425
   17SAPS   C34 2216   2.827   3.670   3.183  0.4896 -0.1816 -0.8086
   17SAPS   H4X 2217   2.732   3.726   3.199  1.8424  1.7252  1.2261
   17SAPS   H4Y 2218   2.908   3.745   3.193  1.2310 -1.2316  2.3839
   17SAPS   C35 2219   2.841   3.565   3.291  0.7052  0.2059  0.3773
   17SAPS   H5X 2220   2.945   3.527   3.286  1.3973  1.7109  2.1874
   17SAPS   H5Y 2221   2.775   3.479   3.267  1.7140 -0.7134  0.8118
   17SAPS   C36 2222   2.814   3.610   3.432  0.1706 -0.4635 -0.1975
   17SAPS   H6X 2223   2.708   3.643   3.423  0.5898  1.6427  1.6350
   17SAPS   H6Y 2224   2.868   3.702   3.463 -1.2798  0.3016  0.1976
   17SAPS   C37 2225   2.820   3.503   3.544 -0.3728  0.5585  0.3947
   17SAPS   H7X 2226   2.928   3.486   3.566 -0.5240 -1.4697 -0.2857
   17SAPS   H7Y 2227   2.783   3.405   3.509  0.2975 -0.4907  2.4457
   17SAPS   C38 2228   2.756   3.547   3.676  0.0682 -0.2789  0.1818
   17SAPS   H8X 2229   2.647   3.567   3.667 -0.1969 -1.5860  0.2636
   17SAPS   H8Y 2230   2.794   3.647   3.705 -2.0982  0.4859  0.5359
   17SAPS   C39 2231   2.775   3.439   3.787 -0.0529  0.2967  0.2601
   17SAPS   H9X 2232   2.869   3.383   3.768  0.3739  0.5053  1.6320
   17SAPS   H9Y 2233   2.693   3.364   3.783 -0.8795  1.1944 -0.0292
   17SAPS  C310 2234   2.796   3.497   3.929 -0.0196  0.0778  0.0440
   17SAPS  H10X 2235   2.872   3.577   3.921 -1.9991  2.1970  1.3539
   17SAPS  H10Y 2236   2.843   3.417   3.991  0.8450  0.6043  0.0702
   17SAPS  C311 2237   2.674   3.551   3.999 -0.1758 -0.6275 -1.1165
   17SAPS  H11X 2238   2.589   3.481   4.009  0.2961 -1.2571 -1.4312
   17SAPS  H11Y 2239   2.638   3.634   3.934 -0.9986 -0.9645 -1.0969
   17SAPS  C312 2240   2.701   3.614   4.140 -0.5130  0.0155  0.8840
   17SAPS  H12X 2241   2.608   3.669   4.168 -1.3001 -0.5641 -0.4746
   17SAPS  H12Y 2242   2.795   3.673   4.134 -0.2729 -0.5115 -2.3574
   17SAPS  C313 2243   2.720   3.502   4.234  0.5861  0.3038 -0.5484
   17SAPS  H13X 2244   2.803   3.435   4.205  1.6008  1.3823 -0.2370
   17SAPS  H13Y 2245   2.627   3.441   4.237 -0.0055  1.2274  1.5917
   17SAPS  C314 2246   2.756   3.535   4.381  0.0150 -0.2863  0.5698
   17SAPS  H14X 2247   2.856   3.583   4.370 -1.3186  2.5486 -0.0210
   17SAPS  H14Y 2248   2.772   3.437   4.429 -2.3075 -0.9976 -0.0078
   17SAPS  C315 2249   2.668   3.631   4.458  0.1439  0.3426 -0.4149
   17SAPS  H15X 2250   2.661   3.725   4.399 -0.3925  0.2720 -0.4738
   17SAPS  H15Y 2251   2.724   3.660   4.549 -0.7885 -1.2060  0.7144
   17SAPS  C316 2252   2.527   3.577   4.487 -1.0494  0.1787 -0.4278
   17SAPS  H16X 2253   2.495   3.517   4.399  2.1838 -0.0859 -1.5468
   17SAPS  H16Y 2254   2.463   3.667   4.494 -0.9148  0.4070 -1.8522
   17SAPS  C317 2255   2.511   3.486   4.616  0.6877 -0.6450 -0.3454
   17SAPS  H17X 2256   2.532   3.546   4.707 -0.3913  1.5092 -1.4603
   17SAPS  H17Y 2257   2.586   3.404   4.613 -0.6837 -1.9930  0.4471
   17SAPS  C318 2258   2.364   3.426   4.635  1.0397  0.1501 -0.2180
   17SAPS  H18X 2259   2.286   3.505   4.633 -0.4449 -1.2120  0.5312
   17SAPS  H18Y 2260   2.369   3.367   4.730  2.3883  0.6512  0.0387
   17SAPS  H18Z 2261   2.350   3.361   4.546  0.1208 -0.0045  0.0276
   18SAPS     N 2262   5.982   0.342   2.512 -0.1265  0.2532 -0.0057
   18SAPS   HN1 2263   5.952   0.436   2.479  0.5484 -0.0555 -1.5837
   18SAPS   HN2 2264   5.897   0.287   2.537  1.1158 -1.1949  1.2937
   18SAPS   HN3 2265   6.041   0.363   2.595 -0.0896  0.9393 -0.2006
   18SAPS   C12 2266   6.059   0.277   2.403 -0.3372 -0.2041 -0.0048
   18SAPS  H12A 2267   5.993   0.266   2.318  0.9243 -1.6038 -0.8413
   18SAPS   C13 2268   6.183   0.357   2.345 -0.7051  0.1606 -0.1383
   18SAPS  O13A 2269   6.222   0.469   2.399  0.3816 -0.3266 -0.5030
   18SAPS  O13B 2270   6.221   0.324   2.226 -0.1559  0.6522 -0.0982
   18SAPS   C11 2271   6.108   0.141   2.456 -0.8033  0.0189  0.6460
   18SAPS  H11A 2272   6.175   0.157   2.543 -0.7698  0.0752  0.6099
   18SAPS  H11B 2273   6.174   0.106   2.374  0.7629  1.0763  1.3979
   18SAPS     P 2274   6.041  -0.095   2.538  0.2769 -0.0601  0.2700
   18SAPS   O13 2275   5.937  -0.193   2.502 -0.0787  0.5416 -0.0389
   18SAPS   O14 2276   6.184  -0.116   2.507  0.0949 -0.2626  0.4358
   18SAPS   O12 2277   6.008   0.047   2.486 -0.1582 -0.1476 -0.1031
   18SAPS   O11 2278   6.032  -0.067   2.697 -0.3762  0.2465  0.2523
   18SAPS    C1 2279   5.917  -0.007   2.745  0.7371 -0.2659  0.9679
   18SAPS    HA 2280   5.901   0.089   2.690 -0.4752 -1.3182 -0.6338
   18SAPS    HB 2281   5.829  -0.073   2.725  1.0696 -0.2415 -0.7160
   18SAPS    C2 2282   5.934   0.040   2.891 -0.7216 -0.0514 -0.0081
   18SAPS    HS 2283   6.000   0.130   2.893  2.5369 -2.1690 -2.2599
   18SAPS   O21 2284   5.992  -0.059   2.976  0.0668 -0.0671 -0.3389
   18SAPS   C21 2285   5.952  -0.188   2.972  1.1981 -0.1208  0.1680
   18SAPS   O22 2286   5.853  -0.232   2.904  0.2231 -0.8139 -0.2574
   18SAPS   C22 2287   6.035  -0.266   3.072  0.3639  0.0625 -0.1842
   18SAPS   H2R 2288   6.106  -0.339   3.027  0.3084 -0.1722  0.1024
   18SAPS   H2S 2289   6.111  -0.201   3.120  1.4253 -0.6583 -0.8391
   18SAPS    C3 2290   5.799   0.080   2.952 -0.3492  0.0536  0.3158
   18SAPS    HX 2291   5.736  -0.011   2.943 -0.1484  0.0952 -2.1020
   18SAPS    HY 2292   5.747   0.162   2.898  1.1045  0.1171 -1.0350
   18SAPS   O31 2293   5.816   0.111   3.090 -0.4777 -0.1025 -0.3434
   18SAPS   C31 2294   5.734   0.058   3.177  0.6661 -0.4623  1.0066
   18SAPS   O32 2295   5.639  -0.016   3.151 -0.4578 -0.1625 -0.5359
   18SAPS   C32 2296   5.790   0.102   3.314  0.4397  0.5286  0.3226
   18SAPS   H2X 2297   5.772   0.212   3.320 -1.0062  0.3707 -0.6622
   18SAPS   H2Y 2298   5.896   0.072   3.329  0.1624 -0.0628  1.1270
   18SAPS   C23 2299   5.946  -0.344   3.166 -0.1231  0.2251 -0.2367
   18SAPS   H3R 2300   5.999  -0.431   3.209 -0.6586  0.3206  0.6413
   18SAPS   H3S 2301   5.864  -0.393   3.109 -0.1767 -1.1074  0.9535
   18SAPS   C24 2302   5.885  -0.267   3.283  0.5491 -0.3115  0.2390
   18SAPS   H4R 2303   5.823  -0.341   3.339 -0.5033 -0.3849 -0.9598
   18SAPS   H4S 2304   5.820  -0.188   3.239  1.5893  0.1290 -0.5556
   18SAPS   C25 2305   5.986  -0.198   3.370 -0.0906 -0.0105  0.6731
   18SAPS   H5R 2306   6.034  -0.113   3.320 -0.2509  0.6802  1.6456
   18SAPS   C26 2307   6.002  -0.220   3.502 -0.3286 -0.1093 -0.2774
   18SAPS   H6R 2308   6.070  -0.151   3.554  1.2233 -0.7200 -1.4161
   18SAPS   C27 2309   5.945  -0.331   3.586  0.4532  0.1583 -0.3878
   18SAPS   H7R 2310   6.034  -0.369   3.641  1.5059 -0.8340 -2.6460
   18SAPS   H7S 2311   5.905  -0.414   3.524 -0.1317  1.3216 -1.6194
   18SAPS   C28 2312   5.829  -0.271   3.677  0.2751 -0.0580 -0.0196
   18SAPS   H8R 2313   5.734  -0.246   3.627  0.0287  2.3653  1.5220
   18SAPS   C29 2314   5.841  -0.255   3.807  0.0777 -0.0904  0.1356
   18SAPS   H9R 2315   5.757  -0.210   3.864  0.5273 -0.0553  0.7862
   18SAPS  C210 2316   5.964  -0.276   3.896  0.1114 -0.0127 -0.1634
   18SAPS  H10R 2317   6.057  -0.274   3.835 -0.7101  0.8594 -1.4323
   18SAPS  H10S 2318   5.958  -0.374   3.948 -0.8489  0.3543  0.4516
   18SAPS  C211 2319   5.981  -0.173   4.008  0.0287 -0.1282  1.3646
   18SAPS  H11R 2320   6.002  -0.071   3.972 -0.2123 -0.3606  0.5265
   18SAPS  C212 2321   5.957  -0.184   4.140  0.2501 -0.3127  0.5289
   18SAPS  H12R 2322   5.965  -0.089   4.196  2.6485 -0.1968  0.1079
   18SAPS  C213 2323   5.892  -0.302   4.210 -0.0822  0.3697  0.4589
   18SAPS  H13R 2324   5.932  -0.300   4.313  2.0292 -0.3979 -0.2740
   18SAPS  H13S 2325   5.939  -0.399   4.180 -1.6183 -0.3022  0.1287
   18SAPS  C214 2326   5.744  -0.311   4.201  0.5242 -0.8970  0.9677
   18SAPS  H14R 2327   5.708  -0.343   4.102  1.1075  0.0809  0.4232
   18SAPS  C215 2328   5.652  -0.260   4.287 -0.7630  0.1709  0.3899
   18SAPS  H15R 2329   5.547  -0.280   4.261 -0.7088 -1.0212  1.0213
   18SAPS  C216 2330   5.688  -0.197   4.423 -0.1822 -0.8982 -0.2325
   18SAPS  H16R 2331   5.672  -0.088   4.430  0.4573 -0.8441  0.5121
   18SAPS  H16S 2332   5.796  -0.210   4.446 -0.0255  1.1708  0.4215
   18SAPS  C217 2333   5.622  -0.279   4.530 -0.1389  0.4558 -0.2556
   18SAPS  H17R 2334   5.678  -0.375   4.524  0.5706  0.8893 -0.7362
   18SAPS  H17S 2335   5.512  -0.295   4.522  0.0100 -0.3869 -0.7137
   18SAPS  C218 2336   5.653  -0.224   4.670 -1.0544  0.1803 -0.0521
   18SAPS  H18R 2337   5.602  -0.129   4.696  0.8565  0.9891  0.9420
   18SAPS  H18S 2338   5.760  -0.194   4.672 -1.0600  0.1475  1.1072
   18SAPS  C219 2339   5.605  -0.325   4.782 -0.4753 -0.2790 -0.3872
   18SAPS  H19R 2340   5.651  -0.426   4.772 -0.6964 -0.7345  2.3292
   18SAPS  H19S 2341   5.495  -0.341   4.774 -0.5276 -0.8852  1.2199
   18SAPS  C220 2342   5.629  -0.271   4.926  0.0079  0.4885 -0.5580
   18SAPS  H20R 2343   5.595  -0.352   4.994 -1.2375 -0.1317 -1.8860
   18SAPS  H20S 2344   5.569  -0.179   4.938  1.3520  1.2541  0.6045
   18SAPS  H20T 2345   5.733  -0.240   4.951 -0.6876  0.5791  2.7710
   18SAPS   C33 2346   5.705   0.049   3.427  0.4777  0.6166 -0.3005
   18SAPS   H3X 2347   5.728  -0.060   3.432 -3.0815 -0.2129  2.1733
   18SAPS   H3Y 2348   5.596   0.061   3.405  0.5562  2.8051  0.2663
   18SAPS   C34 2349   5.738   0.097   3.564  0.4840 -0.1347  0.6625
   18SAPS   H4X 2350   5.848   0.108   3.572  0.8776 -2.6201 -0.4017
   18SAPS   H4Y 2351   5.710   0.020   3.639 -1.1275 -1.0146 -0.7762
   18SAPS   C35 2352   5.675   0.222   3.595 -0.6462 -0.2264 -0.5900
   18SAPS   H5X 2353   5.571   0.219   3.558 -0.2705  0.1502 -1.7105
   18SAPS   H5Y 2354   5.712   0.308   3.536 -0.9156 -1.3878 -2.5687
   18SAPS   C36 2355   5.689   0.260   3.748 -0.2278 -0.4470 -0.3374
   18SAPS   H6X 2356   5.678   0.370   3.755  0.2691 -0.4752  1.1729
   18SAPS   H6Y 2357   5.790   0.235   3.788 -0.7352 -1.4132  0.3665
   18SAPS   C37 2358   5.590   0.187   3.839  0.6195  1.1082 -0.7495
   18SAPS   H7X 2359   5.561   0.082   3.816 -2.7233  2.1161 -1.7958
   18SAPS   H7Y 2360   5.494   0.242   3.827  0.1642  0.9315  1.5964
   18SAPS   C38 2361   5.637   0.184   3.987 -0.2946 -0.0513  0.6358
   18SAPS   H8X 2362   5.652   0.291   4.015 -0.1675 -0.7092  3.4015
   18SAPS   H8Y 2363   5.733   0.133   4.011 -0.2276 -0.7536 -0.9756
   18SAPS   C39 2364   5.535   0.124   4.082  0.6312  0.6742 -0.2021
   18SAPS   H9X 2365   5.525   0.014   4.066  0.6637  0.6960 -0.3700
   18SAPS   H9Y 2366   5.440   0.179   4.066 -0.0103 -0.0022  1.1283
   18SAPS  C310 2367   5.572   0.136   4.234  0.5417  0.3728 -0.6659
   18SAPS  H10X 2368   5.605   0.238   4.263 -1.2055  0.8993 -0.4273
   18SAPS  H10Y 2369   5.656   0.063   4.246  1.7835  1.7938 -0.4184
   18SAPS  C311 2370   5.451   0.088   4.322 -0.3404  0.0103 -1.1202
   18SAPS  H11X 2371   5.448  -0.023   4.325  1.9033 -0.1191  1.5818
   18SAPS  H11Y 2372   5.359   0.137   4.283 -0.7041 -0.0974 -0.4228
   18SAPS  C312 2373   5.464   0.142   4.471 -0.1650  0.2505 -0.6780
   18SAPS  H12X 2374   5.473   0.252   4.470  0.1584  0.2496  0.3109
   18SAPS  H12Y 2375   5.558   0.112   4.524 -0.2238  2.1826  0.6129
   18SAPS  C313 2376   5.339   0.095   4.554  0.2134 -0.1337  0.3773
   18SAPS  H13X 2377   5.340  -0.016   4.557 -1.7052 -0.2049 -0.5217
   18SAPS  H13Y 2378   5.246   0.133   4.507 -0.0272  2.8613  2.8846
   18SAPS  C314 2379   5.354   0.166   4.693 -0.3467  0.6960  0.3024
   18SAPS  H14X 2380   5.386   0.271   4.680  2.8308 -0.2517 -0.4871
   18SAPS  H14Y 2381   5.428   0.107   4.751 -2.6725 -2.1247  0.6650
   18SAPS  C315 2382   5.226   0.153   4.767 -0.4662  0.2290  0.1050
   18SAPS  H15X 2383   5.196   0.046   4.767 -0.2145  0.1476  1.2550
   18SAPS  H15Y 2384   5.143   0.209   4.719 -0.4642  0.5183  0.4328
   18SAPS  C316 2385   5.244   0.207   4.910  0.0739  0.8000 -0.1299
   18SAPS  H16X 2386   5.245   0.318   4.913 -2.7085  0.8909  2.1097
   18SAPS  H16Y 2387   5.338   0.169   4.956 -0.8524 -1.6115 -0.1146
   18SAPS  C317 2388   5.123   0.181   4.994  0.0196  0.7085  0.3428
   18SAPS  H17X 2389   5.035   0.234   4.950 -2.1448  0.0111  3.5147
   18SAPS  H17Y 2390   5.136   0.240   5.087 -1.0231  0.7430  0.4777
   18SAPS  C318 2391   5.088   0.036   5.025  0.0130 -0.0719 -0.3523
   18SAPS  H18X 2392   5.060  -0.025   4.937  0.5872 -3.6079  1.7234
   18SAPS  H18Y 2393   4.991   0.029   5.079 -0.1364  0.8478 -0.4822
   18SAPS  H18Z 2394   5.178  -0.019   5.059 -0.8317 -1.1923  0.1293
   19SAPS     N 2395   5.784   6.433   2.660 -0.1724 -0.0493 -0.5036
   19SAPS   HN1 2396   5.690   6.477   2.651 -0.8653 -1.2668  0.5251
   19SAPS   HN2 2397   5.822   6.470   2.750 -0.3618 -0.0417 -0.4267
   19SAPS   HN3 2398   5.842   6.480   2.587  0.3625  0.9394  0.5274
   19SAPS   C12 2399   5.787   6.280   2.658 -0.1942  0.5787  0.0756
   19SAPS  H12A 2400   5.737   6.243   2.747 -1.3234 -0.4442 -0.9411
   19SAPS   C13 2401   5.713   6.214   2.540  0.4755 -0.2275  0.6311
   19SAPS  O13A 2402   5.670   6.282   2.440 -0.0463  0.4166  0.4788
   19SAPS  O13B 2403   5.692   6.086   2.538  0.0212 -0.7238 -0.3218
   19SAPS   C11 2404   5.930   6.224   2.661 -0.2744 -0.3048  0.5160
   19SAPS  H11A 2405   5.966   6.250   2.559  0.0643 -1.5725  0.3006
   19SAPS  H11B 2406   5.934   6.113   2.666  0.6957 -0.2614  0.9048
   19SAPS     P 2407   6.170   6.310   2.752  0.1987  0.2609  0.2302
   19SAPS   O13 2408   6.208   6.241   2.632 -0.3953  0.9631 -0.0961
   19SAPS   O14 2409   6.193   6.453   2.771 -0.1920 -0.0305 -0.0303
   19SAPS   O12 2410   6.012   6.292   2.758  0.9658  0.0668 -0.3673
   19SAPS   O11 2411   6.215   6.226   2.882  0.2910  0.2665 -0.1179
   19SAPS    C1 2412   6.179   6.084   2.904 -0.4728  0.0085  0.6621
   19SAPS    HA 2413   6.156   6.038   2.805 -0.2640  2.3182 -0.5365
   19SAPS    HB 2414   6.270   6.035   2.945 -0.1121  1.5028  1.7401
   19SAPS    C2 2415   6.053   6.072   2.994 -0.2326  0.0241 -0.2231
   19SAPS    HS 2416   5.987   6.162   2.986 -2.3813 -1.4883 -0.3457
   19SAPS   O21 2417   6.088   6.059   3.140  0.1729 -0.0820 -0.2711
   19SAPS   C21 2418   5.983   6.054   3.214  1.1377 -0.8233 -0.5909
   19SAPS   O22 2419   5.868   6.089   3.186  0.0467  0.0537 -0.8949
   19SAPS   C22 2420   6.023   6.013   3.361 -0.8961 -0.2923  0.0303
   19SAPS   H2R 2421   6.051   5.905   3.359  3.4159  0.5733  2.2596
   19SAPS   H2S 2422   6.117   6.070   3.373 -1.7593  1.2392 -0.2179
   19SAPS    C3 2423   5.981   5.941   2.954  0.1051  0.0586 -0.0541
   19SAPS    HX 2424   5.941   5.965   2.854  0.7502 -0.6042 -0.4776
   19SAPS    HY 2425   5.898   5.917   3.024 -0.4133  0.4467 -0.5377
   19SAPS   O31 2426   6.078   5.830   2.936  0.7548  0.1227  0.3371
   19SAPS   C31 2427   6.117   5.763   3.052 -0.2915  0.3456  0.9351
   19SAPS   O32 2428   6.065   5.777   3.158 -0.6638 -0.4768 -0.3613
   19SAPS   C32 2429   6.205   5.651   3.006  0.2135  0.4448 -0.2201
   19SAPS   H2X 2430   6.276   5.690   2.930 -0.6755  0.1371 -1.2133
   19SAPS   H2Y 2431   6.138   5.575   2.962  0.5903  0.1336 -0.2652
   19SAPS   C23 2432   5.928   6.055   3.479 -0.4914 -0.0542  0.3357
   19SAPS   H3R 2433   5.830   6.003   3.466 -1.0061  0.3437  2.2592
   19SAPS   H3S 2434   5.907   6.163   3.469 -1.0321  0.0089  1.8429
   19SAPS   C24 2435   5.986   6.011   3.614 -0.0685 -0.2099 -0.3655
   19SAPS   H4R 2436   6.094   6.035   3.628  0.7379 -1.2564 -3.9204
   19SAPS   H4S 2437   6.001   5.902   3.627  1.6619  0.1292  0.8193
   19SAPS   C25 2438   5.893   6.065   3.726 -0.1241 -0.6271 -0.1020
   19SAPS   H5R 2439   5.815   6.134   3.691  0.8598  0.4097 -0.2910
   19SAPS   C26 2440   5.889   6.036   3.858  0.0206 -0.0913  0.5541
   19SAPS   H6R 2441   5.809   6.082   3.918 -1.3188  0.2184 -1.3789
   19SAPS   C27 2442   5.974   5.932   3.918  0.4646  0.1751 -0.4094
   19SAPS   H7R 2443   6.075   5.969   3.946  1.0046 -0.9722 -0.7859
   19SAPS   H7S 2444   6.005   5.857   3.841 -0.6450 -0.0064 -0.6889
   19SAPS   C28 2445   5.908   5.847   4.024  0.1454  0.7247  0.8415
   19SAPS   H8R 2446   5.831   5.776   3.990  0.8536  0.2251  0.2558
   19SAPS   C29 2447   5.936   5.841   4.153  0.4360  0.2066 -0.1572
   19SAPS   H9R 2448   5.888   5.768   4.220  0.8396  0.5150  0.4854
   19SAPS  C210 2449   6.024   5.932   4.231 -0.1283  0.1551 -0.5834
   19SAPS  H10R 2450   6.124   5.948   4.187  0.7050 -0.3966  1.0361
   19SAPS  H10S 2451   6.051   5.882   4.326  0.9578  0.9275 -0.4697
   19SAPS  C211 2452   5.956   6.068   4.233  0.4532 -0.5153 -0.1848
   19SAPS  H11R 2453   5.954   6.138   4.148  0.9828 -1.0879 -0.6764
   19SAPS  C212 2454   5.885   6.109   4.344 -0.2308 -0.0579  0.3850
   19SAPS  H12R 2455   5.834   6.206   4.343 -1.1463 -0.5369 -0.4573
   19SAPS  C213 2456   5.859   6.016   4.461 -0.4787  0.0548  0.7998
   19SAPS  H13R 2457   5.951   5.968   4.499 -0.9847 -1.9013 -0.3227
   19SAPS  H13S 2458   5.800   5.925   4.437  2.0127 -1.5367  0.4015
   19SAPS  C214 2459   5.783   6.091   4.580 -0.8169 -0.3042 -0.0240
   19SAPS  H14R 2460   5.724   6.177   4.546  1.0207  1.6481  1.4900
   19SAPS  C215 2461   5.794   6.075   4.712  0.0051  0.1749  0.0558
   19SAPS  H15R 2462   5.739   6.143   4.779 -1.1821 -1.4929  0.8252
   19SAPS  C216 2463   5.861   5.961   4.780  0.4272  0.0513  0.1343
   19SAPS  H16R 2464   5.839   5.866   4.726 -2.5563 -0.4061  1.9485
   19SAPS  H16S 2465   5.809   5.947   4.877 -0.1376 -0.1858 -0.1992
   19SAPS  C217 2466   6.011   5.994   4.796  0.1363  0.1542  0.4630
   19SAPS  H17R 2467   6.071   6.017   4.705  1.9879 -1.6632  1.1365
   19SAPS  H17S 2468   6.063   5.899   4.821  1.1218  0.3136 -0.8986
   19SAPS  C218 2469   6.042   6.096   4.908  0.4372 -1.1400 -0.5454
   19SAPS  H18R 2470   5.978   6.062   4.992  0.3389 -0.1427 -0.2062
   19SAPS  H18S 2471   6.011   6.198   4.880 -0.7682 -1.3784 -0.1226
   19SAPS  C219 2472   6.187   6.097   4.943 -0.3321 -0.0423 -0.5282
   19SAPS  H19R 2473   6.195   6.181   5.015  1.4114 -1.7141  1.3625
   19SAPS  H19S 2474   6.249   6.123   4.854  0.6732 -0.1962  0.1127
   19SAPS  C220 2475   6.238   5.966   5.005 -0.0845  0.3984 -0.9264
   19SAPS  H20R 2476   6.269   5.887   4.933 -1.2615 -0.4117 -0.5702
   19SAPS  H20S 2477   6.163   5.914   5.068  1.6951 -2.3013 -0.8781
   19SAPS  H20T 2478   6.322   5.992   5.073 -1.9496  1.1103  1.2312
   19SAPS   C33 2479   6.278   5.581   3.122 -0.2968  0.3182 -0.4960
   19SAPS   H3X 2480   6.198   5.547   3.192 -0.3906 -1.2423 -1.3091
   19SAPS   H3Y 2481   6.347   5.643   3.182 -0.4741 -0.0949  0.1397
   19SAPS   C34 2482   6.346   5.449   3.068  0.1355 -0.0550  0.3911
   19SAPS   H4X 2483   6.360   5.468   2.960 -1.1298 -0.7500  0.0928
   19SAPS   H4Y 2484   6.279   5.361   3.078 -0.5954  0.7423  3.5263
   19SAPS   C35 2485   6.472   5.416   3.142 -0.4736  0.0684  0.7314
   19SAPS   H5X 2486   6.553   5.491   3.143  2.0796 -2.4582 -1.0430
   19SAPS   H5Y 2487   6.526   5.333   3.093  1.0877  1.8806 -0.7821
   19SAPS   C36 2488   6.427   5.367   3.276 -0.2963  0.1894  0.0025
   19SAPS   H6X 2489   6.377   5.268   3.272 -0.6160  0.3781 -0.7123
   19SAPS   H6Y 2490   6.365   5.438   3.336 -0.9958 -0.5093  0.1223
   19SAPS   C37 2491   6.556   5.326   3.356 -0.3262  0.1734  0.3656
   19SAPS   H7X 2492   6.627   5.411   3.349 -0.9153  0.8118  1.8321
   19SAPS   H7Y 2493   6.597   5.232   3.313 -1.2208 -0.0932  0.0555
   19SAPS   C38 2494   6.540   5.296   3.511 -0.3189  0.2009 -0.5046
   19SAPS   H8X 2495   6.633   5.248   3.549 -0.7458  0.9084  1.5415
   19SAPS   H8Y 2496   6.454   5.228   3.527  0.8686 -1.3296 -0.3825
   19SAPS   C39 2497   6.525   5.428   3.590 -0.1013  0.4426 -0.1794
   19SAPS   H9X 2498   6.434   5.487   3.565 -0.2733  0.6152  0.8241
   19SAPS   H9Y 2499   6.619   5.486   3.576  0.7390  0.3519  3.8800
   19SAPS  C310 2500   6.517   5.402   3.746  0.3137  0.2959 -0.1885
   19SAPS  H10X 2501   6.421   5.353   3.772  1.6150 -1.5693  1.3529
   19SAPS  H10Y 2502   6.521   5.501   3.796  0.5575  0.1914  0.0036
   19SAPS  C311 2503   6.630   5.312   3.802  0.3280  0.5561 -0.5905
   19SAPS  H11X 2504   6.730   5.358   3.793  1.6168 -1.8838  0.2528
   19SAPS  H11Y 2505   6.640   5.214   3.751  1.4098 -0.1948  0.9750
   19SAPS  C312 2506   6.586   5.274   3.944 -0.1235 -0.0112  0.8379
   19SAPS  H12X 2507   6.655   5.202   3.993  1.4762  1.6219  1.0915
   19SAPS  H12Y 2508   6.481   5.238   3.934 -1.0732  2.3391  1.5983
   19SAPS  C313 2509   6.571   5.395   4.038 -0.0712  0.0029  0.5991
   19SAPS  H13X 2510   6.488   5.457   3.999 -1.1084 -1.1330  0.9575
   19SAPS  H13Y 2511   6.655   5.468   4.030 -1.4169  1.7412  1.5866
   19SAPS  C314 2512   6.560   5.357   4.187 -0.7373  0.1581 -0.1542
   19SAPS  H14X 2513   6.542   5.447   4.250  0.2969  0.5454 -0.4070
   19SAPS  H14Y 2514   6.654   5.311   4.224 -0.0436  1.6192 -0.0352
   19SAPS  C315 2515   6.445   5.258   4.211  0.3220  0.1351  0.1363
   19SAPS  H15X 2516   6.467   5.154   4.178  2.3739  0.0946  1.4789
   19SAPS  H15Y 2517   6.346   5.289   4.173 -0.3395 -0.2311  1.4934
   19SAPS  C316 2518   6.422   5.247   4.361  0.2545 -0.1600  0.2365
   19SAPS  H16X 2519   6.409   5.354   4.389 -3.1204  0.1317 -1.9531
   19SAPS  H16Y 2520   6.517   5.219   4.412  1.1690  1.2680 -0.6038
   19SAPS  C317 2521   6.303   5.164   4.412  0.6531  0.0039 -0.6452
   19SAPS  H17X 2522   6.314   5.055   4.394  0.6919  0.0315 -0.7853
   19SAPS  H17Y 2523   6.212   5.195   4.356  1.1752 -1.4567 -2.3918
   19SAPS  C318 2524   6.272   5.172   4.565 -0.2285 -0.6254  0.6884
   19SAPS  H18X 2525   6.329   5.091   4.615  2.4744  2.5399  3.0985
   19SAPS  H18Y 2526   6.163   5.162   4.580 -0.2700  0.9312  1.6167
   19SAPS  H18Z 2527   6.303   5.267   4.613  1.2351 -0.2026 -0.9733
   20SAPS     N 2528   0.902   5.679   2.458  0.6886 -0.2670  0.3204
   20SAPS   HN1 2529   0.891   5.781   2.474  0.3954  0.1361 -2.1408
   20SAPS   HN2 2530   0.891   5.621   2.544 -0.2042  0.9288  1.0465
   20SAPS   HN3 2531   0.997   5.658   2.422  0.6843  2.2949 -1.4016
   20SAPS   C12 2532   0.795   5.639   2.346  0.3152 -0.9783 -0.2651
   20SAPS  H12A 2533   0.694   5.655   2.383  0.9213 -1.0913  1.5208
   20SAPS   C13 2534   0.821   5.718   2.215 -0.0712  0.2095  0.1502
   20SAPS  O13A 2535   0.911   5.803   2.204 -0.0703 -0.3263 -0.0056
   20SAPS  O13B 2536   0.749   5.680   2.119  0.0294  0.4149 -0.2674
   20SAPS   C11 2537   0.803   5.486   2.315 -0.5558 -0.7530  0.3164
   20SAPS  H11A 2538   0.887   5.470   2.245 -2.5654  2.9030 -3.3909
   20SAPS  H11B 2539   0.710   5.459   2.260 -1.8840 -0.7180  2.4138
   20SAPS     P 2540   0.815   5.252   2.427 -0.1985  0.2284  0.4845
   20SAPS   O13 2541   0.714   5.203   2.333 -0.1179  0.0735  0.5928
   20SAPS   O14 2542   0.949   5.193   2.398 -0.5094 -0.0416  0.1808
   20SAPS   O12 2543   0.819   5.412   2.427 -0.3472 -0.1461 -0.0978
   20SAPS   O11 2544   0.766   5.226   2.575  0.0097  0.3839 -0.2317
   20SAPS    C1 2545   0.870   5.218   2.672 -0.0995  0.3612 -0.5855
   20SAPS    HA 2546   0.974   5.237   2.637  0.2061  3.0803  1.5155
   20SAPS    HB 2547   0.846   5.287   2.755  0.5932  1.5287 -1.3292
   20SAPS    C2 2548   0.860   5.080   2.745  0.0470  0.1125 -0.8285
   20SAPS    HS 2549   0.832   5.010   2.664  0.7628 -0.4285 -0.6145
   20SAPS   O21 2550   0.751   5.082   2.842  0.2382 -0.0662 -0.2069
   20SAPS   C21 2551   0.710   4.956   2.880 -0.7281  0.4867  0.6363
   20SAPS   O22 2552   0.753   4.851   2.829  0.3242 -0.5042  0.1975
   20SAPS   C22 2553   0.607   4.967   2.989 -0.2033  0.3045 -0.4315
   20SAPS   H2R 2554   0.632   5.049   3.060  1.6081 -1.0909  0.6414
   20SAPS   H2S 2555   0.505   4.966   2.946 -1.1671 -0.3326  1.7152
   20SAPS    C3 2556   0.989   5.032   2.808 -0.7222 -0.3140  0.4683
   20SAPS    HX 2557   1.045   5.032   2.712 -0.7881 -0.7862  0.4300
   20SAPS    HY 2558   0.997   4.928   2.845  0.1354 -0.3836  0.1175
   20SAPS   O31 2559   1.041   5.138   2.893  0.5144 -0.2157  0.4454
   20SAPS   C31 2560   1.002   5.144   3.020  0.0704  0.2338 -0.3542
   20SAPS   O32 2561   0.935   5.064   3.083 -0.5872  0.0952  0.1253
   20SAPS   C32 2562   1.051   5.284   3.073  0.1880 -0.4069 -1.2299
   20SAPS   H2X 2563   0.969   5.357   3.088  0.9895  0.3456 -0.3749
   20SAPS   H2Y 2564   1.119   5.329   2.998  0.4657 -0.6907 -1.1504
   20SAPS   C23 2565   0.613   4.846   3.085  0.3787  0.4493  0.5522
   20SAPS   H3R 2566   0.702   4.865   3.149 -0.8500 -0.9670  2.8374
   20SAPS   H3S 2567   0.623   4.752   3.028  2.3889  2.6341 -3.0489
   20SAPS   C24 2568   0.484   4.837   3.167 -0.1085  0.0434 -0.5663
   20SAPS   H4R 2569   0.395   4.809   3.107 -1.8368 -0.1063  1.9357
   20SAPS   H4S 2570   0.453   4.937   3.205 -2.0060 -0.1557 -1.4528
   20SAPS   C25 2571   0.502   4.735   3.279  0.2142 -0.0928 -0.1131
   20SAPS   H5R 2572   0.549   4.648   3.231 -0.2338 -0.1178 -0.5088
   20SAPS   C26 2573   0.478   4.737   3.417 -0.6282 -0.5127 -0.6524
   20SAPS   H6R 2574   0.500   4.643   3.468  2.1575 -0.6118 -1.8510
   20SAPS   C27 2575   0.410   4.840   3.496 -0.1369 -0.3151 -0.1870
   20SAPS   H7R 2576   0.331   4.782   3.547  0.5762 -0.5310  0.6986
   20SAPS   H7S 2577   0.348   4.906   3.431 -0.5341 -0.4228  0.0832
   20SAPS   C28 2578   0.493   4.929   3.582 -0.1610 -0.2532 -0.7488
   20SAPS   H8R 2579   0.588   4.959   3.534  0.2671  0.6010  0.5954
   20SAPS   C29 2580   0.465   4.967   3.703 -0.0628  0.4524 -0.6696
   20SAPS   H9R 2581   0.526   5.047   3.746  0.5764 -1.4173  2.2167
   20SAPS  C210 2582   0.352   4.941   3.790  0.3327 -0.2418  0.4219
   20SAPS  H10R 2583   0.384   4.922   3.895 -0.5616 -2.7893  0.3101
   20SAPS  H10S 2584   0.301   4.845   3.767  1.1785 -0.4842 -0.4776
   20SAPS  C211 2585   0.246   5.055   3.783  0.2791 -0.1897 -0.0224
   20SAPS  H11R 2586   0.177   5.048   3.698 -0.4190  2.1047  0.2997
   20SAPS  C212 2587   0.207   5.141   3.883  0.0780  0.2401  0.7288
   20SAPS  H12R 2588   0.132   5.220   3.868 -1.8155 -1.2316  1.9001
   20SAPS  C213 2589   0.260   5.142   4.025 -0.5367 -0.3549  0.4847
   20SAPS  H13R 2590   0.279   5.248   4.052 -1.1141 -0.2034  0.2817
   20SAPS  H13S 2591   0.355   5.085   4.041  0.3127  1.5424  2.8422
   20SAPS  C214 2592   0.153   5.084   4.112  0.3057 -0.6975  0.7171
   20SAPS  H14R 2593   0.088   5.010   4.064 -0.5038 -0.4078  1.3383
   20SAPS  C215 2594   0.134   5.113   4.241  0.7231 -0.4812 -0.3393
   20SAPS  H15R 2595   0.052   5.061   4.293  1.6037 -1.2993  0.2481
   20SAPS  C216 2596   0.209   5.207   4.331 -0.0300 -0.2420 -0.2779
   20SAPS  H16R 2597   0.282   5.267   4.273 -0.4304 -0.2809 -0.8302
   20SAPS  H16S 2598   0.254   5.152   4.416  0.2757  2.6022  1.5548
   20SAPS  C217 2599   0.132   5.318   4.402  0.7523 -0.6072  0.5154
   20SAPS  H17R 2600   0.078   5.385   4.332  2.2019  0.8659  0.7537
   20SAPS  H17S 2601   0.201   5.390   4.451  0.6584 -0.7770  0.9028
   20SAPS  C218 2602   0.029   5.275   4.514  0.5320  0.8794 -0.4244
   20SAPS  H18R 2603   0.069   5.216   4.599  0.1215  0.2839 -0.6340
   20SAPS  H18S 2604  -0.041   5.219   4.448  2.1796 -0.9329 -0.7052
   20SAPS  C219 2605  -0.058   5.385   4.573  0.1711  0.1176 -0.6462
   20SAPS  H19R 2606  -0.131   5.344   4.645  0.6550 -3.0828 -1.8196
   20SAPS  H19S 2607  -0.116   5.427   4.488  2.7431 -1.3879 -3.3337
   20SAPS  C220 2608   0.015   5.495   4.650  0.4578  0.3515 -0.0988
   20SAPS  H20R 2609   0.026   5.467   4.757  0.5703 -3.9727 -1.0534
   20SAPS  H20S 2610  -0.039   5.592   4.648 -0.5038 -0.1335  1.0486
   20SAPS  H20T 2611   0.115   5.513   4.606  0.9238  2.7963  1.7641
   20SAPS   C33 2612   1.136   5.280   3.205  0.1860  0.7089  1.2889
   20SAPS   H3X 2613   1.189   5.183   3.221  1.8220  1.2960 -0.1883
   20SAPS   H3Y 2614   1.064   5.292   3.288 -0.0058 -1.2018  1.4555
   20SAPS   C34 2615   1.231   5.399   3.198 -0.0757 -0.4258 -0.1025
   20SAPS   H4X 2616   1.178   5.485   3.153  2.8978 -0.0055 -3.2238
   20SAPS   H4Y 2617   1.316   5.379   3.129 -1.6940 -1.1494 -1.9957
   20SAPS   C35 2618   1.291   5.450   3.327 -0.2303 -0.3841  0.2724
   20SAPS   H5X 2619   1.353   5.536   3.295 -0.2929  0.1682  1.5584
   20SAPS   H5Y 2620   1.357   5.372   3.370  1.5543  0.3730 -0.9777
   20SAPS   C36 2621   1.196   5.511   3.424 -0.1300 -0.3634 -0.2440
   20SAPS   H6X 2622   1.116   5.446   3.466 -0.5566  1.2135  1.5138
   20SAPS   H6Y 2623   1.131   5.584   3.370  0.2241 -1.4958 -2.2845
   20SAPS   C37 2624   1.270   5.585   3.544 -0.1172 -0.1480  0.7279
   20SAPS   H7X 2625   1.193   5.646   3.594 -1.4510 -0.7217 -0.5338
   20SAPS   H7Y 2626   1.356   5.645   3.507  0.5683 -2.0000 -0.9065
   20SAPS   C38 2627   1.324   5.487   3.651  0.0463  0.1046  0.2024
   20SAPS   H8X 2628   1.399   5.544   3.710 -1.1999  0.4916  1.4620
   20SAPS   H8Y 2629   1.370   5.397   3.605  1.9691  0.3767  1.4877
   20SAPS   C39 2630   1.224   5.435   3.754  0.7074  0.1178 -0.2764
   20SAPS   H9X 2631   1.133   5.409   3.695  1.1527 -1.4020 -0.3364
   20SAPS   H9Y 2632   1.196   5.517   3.822  0.1526  1.1699 -1.7110
   20SAPS  C310 2633   1.256   5.305   3.826 -0.4141 -0.3056  0.0191
   20SAPS  H10X 2634   1.347   5.332   3.884 -0.3950  1.0774 -0.6071
   20SAPS  H10Y 2635   1.295   5.227   3.758 -0.5937 -1.2331  0.9521
   20SAPS  C311 2636   1.162   5.258   3.939  0.8797  0.3686 -0.0278
   20SAPS  H11X 2637   1.073   5.213   3.890  1.4160  1.8081 -2.5046
   20SAPS  H11Y 2638   1.129   5.342   4.003 -2.4542 -1.0820  0.3591
   20SAPS  C312 2639   1.225   5.153   4.038 -0.4577 -0.3672  0.1678
   20SAPS  H12X 2640   1.309   5.200   4.094 -0.0922 -2.1244  1.1686
   20SAPS  H12Y 2641   1.275   5.066   3.990  1.3169  2.0970 -2.8598
   20SAPS  C313 2642   1.136   5.115   4.159  0.6395 -0.4178 -0.9524
   20SAPS  H13X 2643   1.035   5.091   4.119  0.6477  1.4346 -2.2359
   20SAPS  H13Y 2644   1.127   5.205   4.222  0.4423 -1.0039 -0.1310
   20SAPS  C314 2645   1.191   5.000   4.242 -0.2751  0.5097 -0.1882
   20SAPS  H14X 2646   1.289   5.041   4.274  0.9868 -0.4656 -2.5558
   20SAPS  H14Y 2647   1.200   4.913   4.174 -1.6981 -1.0607  1.5307
   20SAPS  C315 2648   1.107   4.954   4.360 -0.4471  0.7162  0.5106
   20SAPS  H15X 2649   1.021   4.902   4.314  0.8735 -1.3389  0.2419
   20SAPS  H15Y 2650   1.076   5.037   4.427  1.3825  2.0291 -0.1814
   20SAPS  C316 2651   1.184   4.857   4.447 -0.2911 -0.3590  1.0723
   20SAPS  H16X 2652   1.281   4.904   4.473 -1.6408  2.6035  1.1902
   20SAPS  H16Y 2653   1.208   4.765   4.390  0.5239 -0.1832  1.1218
   20SAPS  C317 2654   1.114   4.817   4.571  0.2410  0.2315 -0.1785
   20SAPS  H17X 2655   1.018   4.766   4.552 -0.9358  2.4561 -0.5276
   20SAPS  H17Y 2656   1.093   4.910   4.629 -0.5456  0.2770 -0.5285
   20SAPS  C318 2657   1.198   4.725   4.659 -0.3306 -0.2872 -0.4249
   20SAPS  H18X 2658   1.137   4.699   4.748 -1.0369  1.6008 -0.3148
   20SAPS  H18Y 2659   1.292   4.777   4.689 -1.1848 -0.3040  2.7134
   20SAPS  H18Z 2660   1.227   4.634   4.604 -1.0263 -0.0801 -1.1552
   21CHL1    C3 2661   3.697   1.444   6.421 -0.1164  0.8883 -0.3998
   21CHL1    H3 2662   3.624   1.516   6.379 -0.8817 -0.0919 -0.7818
   21CHL1    O3 2663   3.675   1.425   6.557 -0.3092 -0.4819  0.1194
   21CHL1   H3' 2664   3.668   1.332   6.578 -3.0844 -0.2523  0.5541
   21CHL1    C4 2665   3.671   1.304   6.348 -0.5912  1.0866 -0.0160
   21CHL1   H4A 2666   3.726   1.220   6.395 -2.5412 -0.9776 -1.2151
   21CHL1   H4B 2667   3.565   1.279   6.374 -0.1259 -1.7692 -0.5434
   21CHL1    C5 2668   3.690   1.314   6.202 -0.5892  0.2747 -0.0454
   21CHL1    C6 2669   3.587   1.296   6.117 -0.9114  0.8194 -0.4044
   21CHL1    H6 2670   3.488   1.272   6.159 -0.1767 -0.9960  0.4058
   21CHL1    C7 2671   3.592   1.323   5.963  0.1869 -0.4021 -0.1207
   21CHL1   H7A 2672   3.532   1.247   5.908 -1.0389 -1.5637  2.6550
   21CHL1   H7B 2673   3.560   1.426   5.938  0.5647 -0.3398 -0.3624
   21CHL1    C8 2674   3.745   1.312   5.914  0.0024 -0.7959 -0.0178
   21CHL1    H8 2675   3.777   1.206   5.921  0.5890 -0.5957  0.4519
   21CHL1   C14 2676   3.756   1.365   5.769  0.0211 -0.4517 -0.9213
   21CHL1   H14 2677   3.742   1.475   5.779  0.5089 -0.3992 -0.7492
   21CHL1   C15 2678   3.662   1.312   5.670 -0.2717  0.5950 -0.0909
   21CHL1  H15A 2679   3.655   1.201   5.665  1.0465  0.4067  1.3088
   21CHL1  H15B 2680   3.558   1.350   5.682 -0.2557  1.3676 -2.1234
   21CHL1   C16 2681   3.715   1.381   5.541 -0.3769  0.3463  0.9771
   21CHL1  H16A 2682   3.700   1.315   5.453 -0.4703  2.0372 -0.3027
   21CHL1  H16B 2683   3.656   1.474   5.533  0.4188  0.9512  1.8862
   21CHL1   C17 2684   3.859   1.416   5.575 -0.1294 -0.2870  1.4928
   21CHL1   H17 2685   3.862   1.527   5.575 -0.9150 -0.1976 -1.0940
   21CHL1   C13 2686   3.894   1.362   5.709 -0.1942 -0.0799  0.5928
   21CHL1   C18 2687   3.934   1.214   5.687  0.9983 -0.2006 -0.6434
   21CHL1  H18A 2688   3.857   1.141   5.654 -1.6889  1.0094  2.4426
   21CHL1  H18B 2689   4.023   1.201   5.621  1.5929  1.8102 -0.2910
   21CHL1  H18C 2690   3.967   1.169   5.782 -0.5319 -2.3499 -1.0625
   21CHL1   C12 2691   3.999   1.441   5.797  0.1830 -0.3243  1.2952
   21CHL1  H12A 2692   4.102   1.408   5.773 -0.6655 -0.9358 -1.9836
   21CHL1  H12B 2693   3.979   1.550   5.793 -0.3441 -0.4088  1.5279
   21CHL1   C11 2694   3.985   1.397   5.946 -0.4481  0.7319  0.3026
   21CHL1  H11A 2695   4.020   1.292   5.949 -0.0653  0.8269 -0.4329
   21CHL1  H11B 2696   4.052   1.468   5.999  1.1607  0.6187 -1.4574
   21CHL1    C9 2697   3.835   1.403   6.005 -0.1534  0.3702  0.2055
   21CHL1    H9 2698   3.793   1.506   5.999 -1.4288 -0.0683  1.2413
   21CHL1   C10 2699   3.825   1.369   6.159  0.4456  0.4240 -0.1051
   21CHL1   C19 2700   3.931   1.258   6.189  0.1760  0.2307 -0.0778
   21CHL1  H19A 2701   3.930   1.178   6.111 -1.0994 -1.1684  1.2995
   21CHL1  H19B 2702   4.031   1.304   6.196  1.1972 -1.7508 -0.8914
   21CHL1  H19C 2703   3.921   1.210   6.289  1.0148  0.4120  0.0966
   21CHL1    C1 2704   3.855   1.494   6.248 -0.0742  0.0114  0.3116
   21CHL1   H1A 2705   3.960   1.529   6.245 -0.0062  0.1844  2.6174
   21CHL1   H1B 2706   3.793   1.578   6.211 -1.0334 -0.5466  0.6211
   21CHL1    C2 2707   3.838   1.487   6.393 -0.0886  0.6603  0.0044
   21CHL1   H2A 2708   3.862   1.585   6.440 -0.2980  1.0996 -0.7777
   21CHL1   H2B 2709   3.908   1.418   6.445 -0.1402  0.7072  0.1360
   21CHL1   C20 2710   3.963   1.386   5.461  0.1259 -0.9661 -0.0663
   21CHL1   H20 2711   3.957   1.278   5.436  0.6520 -1.3010  1.1814
   21CHL1   C21 2712   4.105   1.426   5.495  0.2512  0.4416 -0.3259
   21CHL1  H21A 2713   4.179   1.400   5.417  0.2831  1.6644 -0.7229
   21CHL1  H21B 2714   4.140   1.365   5.582  1.2491  0.6045 -0.6049
   21CHL1  H21C 2715   4.104   1.529   5.536 -0.4161  0.5344 -0.5678
   21CHL1   C22 2716   3.918   1.460   5.327  0.1875 -0.0022  0.4865
   21CHL1  H22A 2717   3.809   1.449   5.306  0.7047 -2.0956 -1.6748
   21CHL1  H22B 2718   3.940   1.568   5.338  3.4076 -0.4545 -0.4005
   21CHL1   C23 2719   3.977   1.402   5.193 -0.0976  0.4452 -0.1684
   21CHL1  H23A 2720   3.928   1.462   5.113  1.9087  2.1278 -0.2142
   21CHL1  H23B 2721   4.086   1.422   5.185 -0.3525  1.1153 -2.5009
   21CHL1   C24 2722   3.952   1.247   5.169  0.2402 -0.6472  0.3238
   21CHL1  H24A 2723   4.016   1.181   5.231  1.1556  0.5079  0.6465
   21CHL1  H24B 2724   3.848   1.226   5.201 -1.2351  4.0946 -0.5872
   21CHL1   C25 2725   3.967   1.211   5.020 -0.1803  0.0306  0.2603
   21CHL1   H25 2726   3.918   1.281   4.949  0.6657  0.1879 -0.1836
   21CHL1   C26 2727   4.120   1.202   4.981  0.4803 -0.2598 -0.0767
   21CHL1  H26A 2728   4.174   1.125   5.039  1.0925  0.2201  0.0085
   21CHL1  H26B 2729   4.123   1.173   4.874  1.2145  0.8376 -0.3721
   21CHL1  H26C 2730   4.163   1.303   5.002 -0.9547  0.0136  1.8825
   21CHL1   C27 2731   3.883   1.073   5.011  0.1940 -0.7411  0.6855
   21CHL1  H27A 2732   3.891   1.024   4.912 -0.0760 -0.0933  0.3322
   21CHL1  H27B 2733   3.935   1.007   5.084  0.9601 -0.0065  0.8227
   21CHL1  H27C 2734   3.776   1.102   5.020  0.2485  1.0925 -2.7007
   22CHL1    C3 2735   6.135   1.484   6.493 -0.2787  0.1306  0.6468
   22CHL1    H3 2736   6.042   1.501   6.435  0.7016  2.6185 -0.3255
   22CHL1    O3 2737   6.114   1.446   6.634 -0.3677 -0.2111 -0.0311
   22CHL1   H3' 2738   6.071   1.522   6.674 -0.3874  0.5422 -1.3966
   22CHL1    C4 2739   6.207   1.368   6.429 -0.1649  0.1154 -0.1939
   22CHL1   H4A 2740   6.289   1.345   6.501 -0.6057 -0.8100  0.0305
   22CHL1   H4B 2741   6.144   1.278   6.443  0.1297 -0.2010 -0.8463
   22CHL1    C5 2742   6.247   1.403   6.287 -0.2068  0.9173  0.0579
   22CHL1    C6 2743   6.207   1.322   6.184  0.3071  0.4987  0.2098
   22CHL1    H6 2744   6.145   1.234   6.208 -2.8055  2.3925 -0.2137
   22CHL1    C7 2745   6.244   1.345   6.042  0.5214  0.0091 -0.3619
   22CHL1   H7A 2746   6.289   1.251   6.002  3.3647 -0.7128  3.8522
   22CHL1   H7B 2747   6.159   1.387   5.985  1.0749  1.0074 -0.4685
   22CHL1    C8 2748   6.350   1.446   6.023  0.4579  0.0557  1.1628
   22CHL1    H8 2749   6.448   1.405   6.052  1.2584 -0.4606 -1.9408
   22CHL1   C14 2750   6.352   1.494   5.883 -0.3169 -0.1060 -0.0929
   22CHL1   H14 2751   6.249   1.528   5.858 -0.8095 -0.6753  1.0694
   22CHL1   C15 2752   6.380   1.388   5.770 -0.0224  1.3618  0.1887
   22CHL1  H15A 2753   6.474   1.337   5.803 -1.9870 -2.7001  0.1930
   22CHL1  H15B 2754   6.296   1.316   5.758 -0.1894  1.5116  0.4633
   22CHL1   C16 2755   6.406   1.473   5.648 -0.0626 -0.0153 -0.0777
   22CHL1  H16A 2756   6.491   1.425   5.593 -1.8647 -0.2746 -2.8414
   22CHL1  H16B 2757   6.320   1.468   5.578 -0.2268  1.6662 -0.0431
   22CHL1   C17 2758   6.426   1.619   5.692 -0.3175  0.3895  0.6863
   22CHL1   H17 2759   6.319   1.647   5.683 -1.2361 -3.0515 -0.2635
   22CHL1   C13 2760   6.450   1.613   5.846  0.1805 -0.0620  0.4683
   22CHL1   C18 2761   6.597   1.576   5.874 -0.3120 -0.5417 -0.6180
   22CHL1  H18A 2762   6.663   1.664   5.856 -1.0833  0.3728  0.7777
   22CHL1  H18B 2763   6.595   1.547   5.982 -1.9532 -0.5712 -0.6311
   22CHL1  H18C 2764   6.627   1.492   5.809 -2.4371 -1.0759 -0.9761
   22CHL1   C12 2765   6.411   1.727   5.937  0.0588  0.0901 -0.2451
   22CHL1  H12A 2766   6.470   1.821   5.935 -1.6446  1.2191 -1.8901
   22CHL1  H12B 2767   6.306   1.755   5.912  0.3957  1.5879 -0.0299
   22CHL1   C11 2768   6.408   1.700   6.088 -0.3178  0.0877  0.0825
   22CHL1  H11A 2769   6.509   1.694   6.132 -0.0922  2.3653 -0.0012
   22CHL1  H11B 2770   6.354   1.784   6.138  0.1184  0.0230  0.6683
   22CHL1    C9 2771   6.318   1.568   6.114  0.3243 -0.0613 -0.4634
   22CHL1    H9 2772   6.214   1.597   6.088  1.0665  2.1163 -1.2566
   22CHL1   C10 2773   6.325   1.526   6.262  0.0785 -0.1838  0.1989
   22CHL1   C19 2774   6.471   1.507   6.312  0.1479 -0.5412  0.3409
   22CHL1  H19A 2775   6.467   1.477   6.419  1.9236 -1.1139  0.2915
   22CHL1  H19B 2776   6.531   1.438   6.248 -0.0429  2.9375 -4.0848
   22CHL1  H19C 2777   6.519   1.607   6.314 -2.0330  0.5844 -0.7347
   22CHL1    C1 2778   6.258   1.637   6.352  0.2997  0.1315  0.2677
   22CHL1   H1A 2779   6.331   1.722   6.357 -1.1052  1.4691 -1.0007
   22CHL1   H1B 2780   6.170   1.685   6.305 -0.3793 -0.1073  1.2738
   22CHL1    C2 2781   6.230   1.603   6.496 -0.6557 -0.2579 -0.2932
   22CHL1   H2A 2782   6.195   1.690   6.555 -1.0373  0.3483 -1.3830
   22CHL1   H2B 2783   6.330   1.579   6.538 -0.3401  2.0109  0.3827
   22CHL1   C20 2784   6.503   1.714   5.609 -0.1150  0.5347  0.0617
   22CHL1   H20 2785   6.549   1.798   5.665  0.4919  0.3935 -0.2152
   22CHL1   C21 2786   6.411   1.771   5.504  0.2488 -0.0253  0.1469
   22CHL1  H21A 2787   6.369   1.689   5.441 -0.7188 -0.3122  1.1442
   22CHL1  H21B 2788   6.463   1.844   5.438 -0.6983  0.3805 -0.1550
   22CHL1  H21C 2789   6.332   1.819   5.565  1.2225 -0.4794  1.8373
   22CHL1   C22 2790   6.623   1.639   5.542 -0.8963  0.3035 -0.0686
   22CHL1  H22A 2791   6.678   1.579   5.617 -3.9369 -0.8866  1.4139
   22CHL1  H22B 2792   6.579   1.562   5.474 -0.5140  0.2195 -0.2242
   22CHL1   C23 2793   6.716   1.731   5.476 -0.6591  0.7526 -0.1842
   22CHL1  H23A 2794   6.662   1.797   5.406 -0.9182 -0.7453 -1.4458
   22CHL1  H23B 2795   6.772   1.795   5.548  0.0424 -0.2420  0.1818
   22CHL1   C24 2796   6.824   1.649   5.404  0.2867 -0.2396  0.0543
   22CHL1  H24A 2797   6.871   1.567   5.464  0.7648 -0.7582 -1.0034
   22CHL1  H24B 2798   6.772   1.590   5.325  0.9003  0.8074 -1.1674
   22CHL1   C25 2799   6.935   1.732   5.343  1.3972 -0.7291 -0.1386
   22CHL1   H25 2800   6.979   1.793   5.425 -2.0211 -0.4273  1.6710
   22CHL1   C26 2801   7.047   1.646   5.280  0.9344 -0.0652 -0.2946
   22CHL1  H26A 2802   7.007   1.574   5.206 -1.4425  1.7620 -0.9344
   22CHL1  H26B 2803   7.128   1.708   5.233  2.3598 -1.3439  0.4061
   22CHL1  H26C 2804   7.089   1.588   5.364 -0.6501  0.7161  1.0924
   22CHL1   C27 2805   6.882   1.833   5.241  0.3057 -0.6774  0.3375
   22CHL1  H27A 2806   6.956   1.909   5.208 -0.2199 -0.7383 -1.0488
   22CHL1  H27B 2807   6.847   1.790   5.145 -0.4802  2.1967 -0.7667
   22CHL1  H27C 2808   6.797   1.893   5.281  1.3438 -1.3886  4.0227
   23CHL1    C3 2809   3.159   0.909   6.154  0.4333  0.3850 -0.0100
   23CHL1    H3 2810   3.255   0.858   6.131 -0.1229 -0.0548 -1.5310
   23CHL1    O3 2811   3.151   0.891   6.297  0.0360  0.1676  0.7336
   23CHL1   H3' 2812   3.081   0.952   6.321  1.0899  2.3610 -1.2818
   23CHL1    C4 2813   3.178   1.055   6.118 -0.0603  0.8080  0.1766
   23CHL1   H4A 2814   3.102   1.114   6.174 -0.0802  1.6240 -0.6802
   23CHL1   H4B 2815   3.276   1.091   6.155  0.6471  0.1955 -1.0746
   23CHL1    C5 2816   3.181   1.077   5.970  0.1538  0.1318 -1.0247
   23CHL1    C6 2817   3.286   1.135   5.914  0.3907 -0.1294 -0.8472
   23CHL1    H6 2818   3.355   1.187   5.982 -1.6898  0.8894  0.5859
   23CHL1    C7 2819   3.304   1.166   5.766 -0.2726  0.2412 -0.5965
   23CHL1   H7A 2820   3.326   1.274   5.751 -1.9132  1.0922  2.4190
   23CHL1   H7B 2821   3.392   1.106   5.734 -1.5461 -2.1552  0.1765
   23CHL1    C8 2822   3.177   1.138   5.683  0.6439  0.6973 -0.0449
   23CHL1    H8 2823   3.108   1.222   5.704  1.2828  1.0926  0.5411
   23CHL1   C14 2824   3.225   1.119   5.531  0.7903  1.0854  0.0891
   23CHL1   H14 2825   3.290   1.032   5.512  2.5611  2.3456  0.1298
   23CHL1   C15 2826   3.295   1.227   5.461 -0.4029 -0.2335  0.6218
   23CHL1  H15A 2827   3.252   1.328   5.479 -1.0969 -0.3794 -0.1668
   23CHL1  H15B 2828   3.406   1.229   5.465 -0.0892  5.9994 -0.8712
   23CHL1   C16 2829   3.264   1.202   5.311 -0.4246  0.1965  0.6230
   23CHL1  H16A 2830   3.242   1.292   5.250 -1.5547 -0.5973 -0.1814
   23CHL1  H16B 2831   3.350   1.154   5.261  1.3145 -0.7539  4.1598
   23CHL1   C17 2832   3.151   1.106   5.300 -0.0836  0.1791 -0.9109
   23CHL1   H17 2833   3.197   1.006   5.281  0.3645  0.0966  0.4794
   23CHL1   C13 2834   3.096   1.093   5.442  0.5144  0.3938 -0.3513
   23CHL1   C18 2835   2.996   1.205   5.452  0.5175  0.0850 -0.5507
   23CHL1  H18A 2836   2.898   1.202   5.400 -0.2129  0.7633  0.7178
   23CHL1  H18B 2837   2.967   1.216   5.559  2.0279 -1.5984  0.0787
   23CHL1  H18C 2838   3.042   1.302   5.426 -2.5580  1.8770  0.1562
   23CHL1   C12 2839   3.033   0.955   5.483  0.1782  0.3170  0.2999
   23CHL1  H12A 2840   2.941   0.940   5.423 -0.8456 -0.2259  1.9384
   23CHL1  H12B 2841   3.108   0.875   5.472  0.0608  0.3315 -0.7564
   23CHL1   C11 2842   2.997   0.955   5.633  0.0493  0.1728  0.7910
   23CHL1  H11A 2843   2.900   1.008   5.645 -0.9357  0.0995 -4.5352
   23CHL1  H11B 2844   2.981   0.847   5.657 -1.8848 -0.0071 -1.0591
   23CHL1    C9 2845   3.112   1.005   5.729  0.6148  0.3774 -0.0703
   23CHL1    H9 2846   3.193   0.931   5.710  0.4453  0.3528 -0.7336
   23CHL1   C10 2847   3.077   1.008   5.881  0.1418  0.5428  0.2202
   23CHL1   C19 2848   2.947   1.088   5.899  0.1608 -0.0981  0.0332
   23CHL1  H19A 2849   2.949   1.181   5.839 -1.2852 -0.6364 -0.8950
   23CHL1  H19B 2850   2.864   1.028   5.857  0.5866 -0.5159 -0.2265
   23CHL1  H19C 2851   2.921   1.112   6.005  0.3562 -1.2966  0.3772
   23CHL1    C1 2852   3.058   0.862   5.928 -0.6935 -0.0961  0.1315
   23CHL1   H1A 2853   2.967   0.822   5.878 -0.2485 -0.8192 -0.1132
   23CHL1   H1B 2854   3.149   0.802   5.908  0.8596  2.4034 -0.7820
   23CHL1    C2 2855   3.037   0.847   6.082  0.0553 -0.5722  0.1718
   23CHL1   H2A 2856   3.024   0.742   6.115 -0.7080 -0.6590 -0.3728
   23CHL1   H2B 2857   2.949   0.911   6.105  1.7313  0.8488  3.2780
   23CHL1   C20 2858   3.065   1.129   5.174  0.3525 -0.2533  0.6559
   23CHL1   H20 2859   3.024   1.229   5.200  4.8488  1.3868  2.2837
   23CHL1   C21 2860   2.957   1.027   5.160  0.2257  0.1152 -0.2556
   23CHL1  H21A 2861   2.890   1.058   5.077 -2.4912  2.6388  2.6319
   23CHL1  H21B 2862   2.889   1.032   5.247  1.6646  2.2398  0.8259
   23CHL1  H21C 2863   2.993   0.922   5.162 -0.6148 -0.1639  1.3482
   23CHL1   C22 2864   3.137   1.143   5.034  0.1530  1.1905  0.5071
   23CHL1  H22A 2865   3.063   1.161   4.953 -2.0716  3.0030  2.7622
   23CHL1  H22B 2866   3.200   1.234   5.040 -0.4652  1.6100  0.7740
   23CHL1   C23 2867   3.236   1.031   4.995 -0.2849 -0.1883  0.2871
   23CHL1  H23A 2868   3.303   1.019   5.083 -1.5474 -0.1535  1.2742
   23CHL1  H23B 2869   3.175   0.940   4.977  0.5111 -0.7021  0.1249
   23CHL1   C24 2870   3.316   1.060   4.862 -0.1284  0.0830  0.1313
   23CHL1  H24A 2871   3.248   1.051   4.775 -0.1417  0.2278  0.1264
   23CHL1  H24B 2872   3.361   1.162   4.859  1.2225 -0.4769  0.5946
   23CHL1   C25 2873   3.439   0.967   4.835 -0.1763  0.0664 -0.5916
   23CHL1   H25 2874   3.407   0.861   4.841 -2.3929  0.6598 -1.1773
   23CHL1   C26 2875   3.502   0.984   4.695 -0.2565 -0.0446  0.3553
   23CHL1  H26A 2876   3.540   1.088   4.695  0.4566 -0.2407  2.8312
   23CHL1  H26B 2877   3.587   0.912   4.702 -0.0054  0.3393  1.4964
   23CHL1  H26C 2878   3.439   0.959   4.607  0.8850  3.2012 -1.5612
   23CHL1   C27 2879   3.537   0.978   4.948 -0.1477 -0.2363  0.0829
   23CHL1  H27A 2880   3.633   0.930   4.918  0.3022  1.6065 -1.6436
   23CHL1  H27B 2881   3.565   1.083   4.972  1.8771  0.0973 -3.1051
   23CHL1  H27C 2882   3.492   0.931   5.038 -0.7826 -2.1751 -1.1893
   24CHL1    C3 2883   3.968   2.149   6.682  0.7657  0.3057  0.3480
   24CHL1    H3 2884   3.866   2.173   6.643  0.4346  0.2523  1.1726
   24CHL1    O3 2885   3.971   2.165   6.824  0.1369  0.1836  0.0155
   24CHL1   H3' 2886   4.052   2.122   6.852 -1.5866 -2.9916  0.6156
   24CHL1    C4 2887   4.000   2.006   6.643 -0.7104 -1.1665  0.5853
   24CHL1   H4A 2888   4.097   1.984   6.692  0.1110  0.5589 -0.1745
   24CHL1   H4B 2889   3.920   1.942   6.687 -1.0520  0.5461  2.5710
   24CHL1    C5 2890   4.018   1.993   6.493  0.3412 -0.1217 -0.2255
   24CHL1    C6 2891   3.944   1.899   6.433 -0.2838 -0.0338 -0.0582
   24CHL1    H6 2892   3.875   1.840   6.495  1.2958 -0.8193  1.0383
   24CHL1    C7 2893   3.963   1.858   6.287  0.4349  0.5591  0.0919
   24CHL1   H7A 2894   3.975   1.749   6.275 -0.3003  0.5535 -0.6494
   24CHL1   H7B 2895   3.882   1.889   6.218  0.8439 -1.6412 -1.4411
   24CHL1    C8 2896   4.094   1.924   6.226  0.0219 -0.3368 -0.2386
   24CHL1    H8 2897   4.178   1.861   6.261  0.3502 -0.8097 -1.8093
   24CHL1   C14 2898   4.087   1.923   6.069  0.4783  0.4482 -0.4062
   24CHL1   H14 2899   4.005   1.995   6.046 -0.8298 -1.4535 -1.9861
   24CHL1   C15 2900   4.035   1.796   6.005 -0.0235 -0.7754  0.2815
   24CHL1  H15A 2901   4.077   1.705   6.053 -0.7319 -0.4354  1.6069
   24CHL1  H15B 2902   3.925   1.778   6.012 -0.1645 -0.1864 -0.3231
   24CHL1   C16 2903   4.100   1.796   5.865 -0.4182 -0.2372 -0.1391
   24CHL1  H16A 2904   4.166   1.708   5.848  0.5587  0.3535  0.4994
   24CHL1  H16B 2905   4.021   1.785   5.788  0.0944 -2.6363 -0.4085
   24CHL1   C17 2906   4.179   1.938   5.858 -0.2728  0.4958 -0.5098
   24CHL1   H17 2907   4.088   2.001   5.840 -1.7353 -2.1193 -3.2875
   24CHL1   C13 2908   4.216   1.978   6.005 -1.0114 -0.4777  0.4971
   24CHL1   C18 2909   4.348   1.906   6.045 -0.5035 -0.5720 -0.1825
   24CHL1  H18A 2910   4.375   1.938   6.148 -2.4908  0.4945  0.0534
   24CHL1  H18B 2911   4.341   1.796   6.050  3.3834 -1.0174 -0.9709
   24CHL1  H18C 2912   4.432   1.937   5.979 -0.8294  1.0925  0.1229
   24CHL1   C12 2913   4.215   2.124   6.044  0.4033 -0.6115  0.5973
   24CHL1  H12A 2914   4.309   2.163   6.000 -0.7338 -1.5574 -2.9907
   24CHL1  H12B 2915   4.126   2.170   5.996 -0.0007 -3.3328 -1.5379
   24CHL1   C11 2916   4.215   2.146   6.195  0.6467 -0.2467  0.1168
   24CHL1  H11A 2917   4.317   2.130   6.235  1.0732 -1.2013 -1.2722
   24CHL1  H11B 2918   4.192   2.254   6.209  2.0320 -0.1101  1.6180
   24CHL1    C9 2919   4.104   2.065   6.276 -0.3887 -0.3631  0.4132
   24CHL1    H9 2920   4.008   2.107   6.240  1.0142  1.0905 -1.9615
   24CHL1   C10 2921   4.116   2.087   6.430  0.5006 -0.4265  0.2673
   24CHL1   C19 2922   4.252   2.024   6.479  0.2864 -0.2370  0.3711
   24CHL1  H19A 2923   4.257   1.914   6.470 -0.9344 -0.4065  1.4719
   24CHL1  H19B 2924   4.340   2.052   6.416 -1.1138 -0.6833 -1.9023
   24CHL1  H19C 2925   4.268   2.042   6.587 -2.6529 -0.3704  0.9006
   24CHL1    C1 2926   4.091   2.231   6.472 -0.0841 -0.4070 -0.5819
   24CHL1   H1A 2927   4.175   2.297   6.442 -1.2843  1.5880  0.1876
   24CHL1   H1B 2928   3.999   2.267   6.419 -0.2203  2.4517  1.3615
   24CHL1    C2 2929   4.065   2.255   6.625  0.0749  0.6586  0.0500
   24CHL1   H2A 2930   4.017   2.354   6.645 -0.4460  0.5833 -0.7875
   24CHL1   H2B 2931   4.155   2.242   6.688 -2.4371 -1.2243  3.6475
   24CHL1   C20 2932   4.272   1.948   5.740 -0.1638 -0.5513  0.3964
   24CHL1   H20 2933   4.360   1.885   5.763 -0.5532 -1.4594 -0.5090
   24CHL1   C21 2934   4.320   2.094   5.733  0.7189 -0.0252  0.9489
   24CHL1  H21A 2935   4.243   2.173   5.720  1.7885  1.8264  4.6249
   24CHL1  H21B 2936   4.394   2.103   5.651  0.2127 -1.1225  0.3477
   24CHL1  H21C 2937   4.385   2.129   5.816  1.7555  0.2700  0.0420
   24CHL1   C22 2938   4.218   1.883   5.608  0.1227  0.4738  0.0680
   24CHL1  H22A 2939   4.233   1.774   5.625 -0.6138  0.4220  0.4480
   24CHL1  H22B 2940   4.110   1.902   5.591  0.1115  2.0737  1.5696
   24CHL1   C23 2941   4.302   1.922   5.476  0.6848  0.2026 -0.5269
   24CHL1  H23A 2942   4.272   2.025   5.446 -1.2541  1.0335  3.6207
   24CHL1  H23B 2943   4.409   1.904   5.496  0.9090 -1.4326 -2.8140
   24CHL1   C24 2944   4.264   1.836   5.355  0.0585  0.1367 -0.8612
   24CHL1  H24A 2945   4.329   1.746   5.354  0.4497  0.4005 -0.1267
   24CHL1  H24B 2946   4.157   1.805   5.363 -1.1779  4.1452  0.5880
   24CHL1   C25 2947   4.281   1.905   5.218  0.6904 -0.3180  0.0669
   24CHL1   H25 2948   4.221   1.998   5.217  1.2529  0.0896 -2.1961
   24CHL1   C26 2949   4.432   1.937   5.181  0.2517 -0.0227 -0.7068
   24CHL1  H26A 2950   4.433   1.983   5.080 -1.5027  0.1418 -0.6776
   24CHL1  H26B 2951   4.480   2.000   5.259 -0.8421 -0.2235  0.1456
   24CHL1  H26C 2952   4.492   1.844   5.171 -1.2074 -1.0654 -0.1290
   24CHL1   C27 2953   4.215   1.820   5.113  0.9981  0.2313 -0.2700
   24CHL1  H27A 2954   4.225   1.864   5.011  2.0811 -1.4821 -0.9525
   24CHL1  H27B 2955   4.247   1.714   5.099 -1.8816 -0.6328 -0.9676
   24CHL1  H27C 2956   4.108   1.805   5.138  0.8582  0.3947 -0.7531
   25CHL1    C3 2957   5.667   3.296   6.488  0.4392 -0.2566 -0.1795
   25CHL1    H3 2958   5.620   3.196   6.503 -0.5336  0.3402  0.9921
   25CHL1    O3 2959   5.714   3.338   6.616 -0.7397  0.1246  0.5800
   25CHL1   H3' 2960   5.784   3.281   6.648 -0.3407  0.9095  1.1443
   25CHL1    C4 2961   5.794   3.285   6.396 -0.2526 -0.8747  0.1077
   25CHL1   H4A 2962   5.849   3.380   6.412  0.6149 -1.0641 -1.5356
   25CHL1   H4B 2963   5.864   3.207   6.433  0.2236  0.0147  1.1384
   25CHL1    C5 2964   5.751   3.270   6.253  0.4731 -0.0405 -0.0794
   25CHL1    C6 2965   5.776   3.159   6.173  0.8261 -0.0401  0.2801
   25CHL1    H6 2966   5.851   3.091   6.216 -1.8102 -4.0353 -0.9246
   25CHL1    C7 2967   5.739   3.142   6.030 -0.4911 -0.1136 -0.1731
   25CHL1   H7A 2968   5.829   3.097   5.984 -1.0422 -1.0024 -0.4019
   25CHL1   H7B 2969   5.656   3.072   6.008 -1.0768  0.0896  1.2954
   25CHL1    C8 2970   5.707   3.280   5.963  0.2867 -0.3632  0.0840
   25CHL1    H8 2971   5.801   3.338   5.947  0.2741 -0.5452 -0.7182
   25CHL1   C14 2972   5.648   3.253   5.825 -0.2718 -0.3814  0.4634
   25CHL1   H14 2973   5.557   3.190   5.838  0.5221 -1.8683 -0.8455
   25CHL1   C15 2974   5.729   3.170   5.718  0.3173 -0.0560 -0.3624
   25CHL1  H15A 2975   5.830   3.216   5.724 -0.6892  2.0368  1.7456
   25CHL1  H15B 2976   5.728   3.060   5.739 -1.2346  0.0429  0.1898
   25CHL1   C16 2977   5.667   3.205   5.586 -0.3424  0.2723 -0.4052
   25CHL1  H16A 2978   5.741   3.245   5.513 -0.2134  2.1895  0.7074
   25CHL1  H16B 2979   5.630   3.110   5.541  2.3255  0.4178 -3.2435
   25CHL1   C17 2980   5.551   3.303   5.607 -0.6858 -0.0040  0.4732
   25CHL1   H17 2981   5.453   3.255   5.628  0.6082 -2.3350  1.6078
   25CHL1   C13 2982   5.599   3.373   5.747  0.5808  0.1639  0.1818
   25CHL1   C18 2983   5.712   3.477   5.717  0.1655  1.2947 -0.4083
   25CHL1  H18A 2984   5.659   3.563   5.672 -1.1754 -0.1246 -1.6738
   25CHL1  H18B 2985   5.765   3.502   5.812 -1.6893  1.6613  0.5758
   25CHL1  H18C 2986   5.784   3.425   5.649 -1.5383 -0.7847 -0.7403
   25CHL1   C12 2987   5.489   3.439   5.839 -1.1566  0.5564 -0.1859
   25CHL1  H12A 2988   5.440   3.527   5.793  1.7400  1.5722 -1.5313
   25CHL1  H12B 2989   5.409   3.361   5.839 -0.4853 -0.1706 -1.8173
   25CHL1   C11 2990   5.543   3.471   5.976 -0.0479 -0.7358 -0.0423
   25CHL1  H11A 2991   5.628   3.540   5.957  0.5129 -1.4681 -0.2383
   25CHL1  H11B 2992   5.461   3.524   6.030 -0.1888 -0.1340 -0.8276
   25CHL1    C9 2993   5.606   3.356   6.053 -0.3086  0.3960 -0.2271
   25CHL1    H9 2994   5.525   3.284   6.074  0.4030  0.0952  1.7468
   25CHL1   C10 2995   5.662   3.386   6.193  0.1986  0.0100  0.3360
   25CHL1   C19 2996   5.756   3.510   6.184  0.2112  0.0997  0.5140
   25CHL1  H19A 2997   5.700   3.603   6.163  1.8070  1.1393  0.7086
   25CHL1  H19B 2998   5.817   3.542   6.271 -0.1989  1.9586  0.1571
   25CHL1  H19C 2999   5.821   3.505   6.094 -0.1734 -1.6018  0.2979
   25CHL1    C1 3000   5.542   3.401   6.288 -0.3995 -0.5080  0.3311
   25CHL1   H1A 3001   5.478   3.487   6.258  0.2535 -0.6860 -1.7277
   25CHL1   H1B 3002   5.469   3.318   6.275 -1.6238  0.2597  1.8354
   25CHL1    C2 3003   5.566   3.398   6.440 -0.6039  0.5031  0.5537
   25CHL1   H2A 3004   5.470   3.384   6.495 -0.6924 -0.7899  0.1074
   25CHL1   H2B 3005   5.604   3.501   6.455 -0.8526  0.6619  0.0991
   25CHL1   C20 3006   5.534   3.390   5.480 -0.5466  0.7156 -0.7812
   25CHL1   H20 3007   5.635   3.430   5.454  0.3913 -1.8623 -1.4406
   25CHL1   C21 3008   5.440   3.509   5.506 -0.6740  0.3797 -0.0017
   25CHL1  H21A 3009   5.336   3.485   5.535 -1.0137  1.8002  0.0580
   25CHL1  H21B 3010   5.436   3.568   5.412 -1.6525 -1.3984 -1.1406
   25CHL1  H21C 3011   5.471   3.582   5.584  0.5635 -1.3045  1.1543
   25CHL1   C22 3012   5.481   3.308   5.359  0.2461 -0.1578  0.3714
   25CHL1  H22A 3013   5.509   3.362   5.266 -0.9462  2.7567  1.5803
   25CHL1  H22B 3014   5.555   3.226   5.351 -0.6277 -0.8106 -1.5513
   25CHL1   C23 3015   5.337   3.260   5.362  0.3601 -0.4204  0.4057
   25CHL1  H23A 3016   5.314   3.223   5.464  1.2655  0.1739  0.8381
   25CHL1  H23B 3017   5.276   3.354   5.364  0.7765 -0.1536  1.6129
   25CHL1   C24 3018   5.290   3.155   5.258  0.4139 -0.6154  0.4966
   25CHL1  H24A 3019   5.333   3.175   5.157 -1.6609 -1.1623 -0.5478
   25CHL1  H24B 3020   5.325   3.052   5.281 -0.2439 -1.2099 -1.0377
   25CHL1   C25 3021   5.136   3.138   5.239 -1.0586 -0.1816  0.6007
   25CHL1   H25 3022   5.100   3.240   5.214 -0.3246  0.3263  1.5782
   25CHL1   C26 3023   5.109   3.056   5.112  0.2522  0.3481 -0.1709
   25CHL1  H26A 3024   5.152   3.109   5.024  0.1479 -0.8627 -0.9879
   25CHL1  H26B 3025   5.159   2.957   5.110 -1.1273 -0.3723  0.2576
   25CHL1  H26C 3026   5.000   3.042   5.100  0.6015 -1.6714 -1.5073
   25CHL1   C27 3027   5.066   3.085   5.362  0.4140 -0.1873  0.2884
   25CHL1  H27A 3028   5.082   3.160   5.443  0.0956  0.4276 -0.2092
   25CHL1  H27B 3029   4.958   3.070   5.343  0.4450 -0.1567  0.0884
   25CHL1  H27C 3030   5.109   2.984   5.378 -0.4383 -0.4680  0.8390
   26CHL1    C3 3031   5.622   1.188   6.609  0.1117 -0.2383 -0.4394
   26CHL1    H3 3032   5.515   1.202   6.585 -0.1156  0.1410  0.7408
   26CHL1    O3 3033   5.634   1.186   6.752 -0.2372  0.2281 -0.4624
   26CHL1   H3' 3034   5.596   1.102   6.778  0.1874  0.4522  0.9840
   26CHL1    C4 3035   5.654   1.047   6.553 -0.6426 -0.5710  0.2403
   26CHL1   H4A 3036   5.746   1.001   6.594 -1.6549 -3.8482 -0.8362
   26CHL1   H4B 3037   5.573   0.983   6.596 -0.1445 -2.4342 -1.4251
   26CHL1    C5 3038   5.655   1.033   6.403  0.0455  0.1157  0.1897
   26CHL1    C6 3039   5.590   0.932   6.336 -0.0110 -0.5771 -0.4080
   26CHL1    H6 3040   5.537   0.859   6.400 -0.6698 -0.9110 -1.3110
   26CHL1    C7 3041   5.601   0.905   6.189 -0.3168 -0.3328 -0.6479
   26CHL1   H7A 3042   5.601   0.795   6.173  0.7594 -0.6631  1.3607
   26CHL1   H7B 3043   5.513   0.933   6.127  0.1913  0.1211 -1.1803
   26CHL1    C8 3044   5.722   0.981   6.132 -0.3402  0.3252  0.1050
   26CHL1    H8 3045   5.815   0.929   6.164 -0.6967 -0.4531 -0.0790
   26CHL1   C14 3046   5.706   0.984   5.972  0.2556 -0.2536 -0.3875
   26CHL1   H14 3047   5.613   1.043   5.952 -0.2380 -0.6638  0.6203
   26CHL1   C15 3048   5.686   0.849   5.898  0.2483 -0.9037 -1.2770
   26CHL1  H15A 3049   5.744   0.762   5.934 -1.9570 -2.2476 -0.7716
   26CHL1  H15B 3050   5.579   0.823   5.913 -0.2251  1.2131 -0.5958
   26CHL1   C16 3051   5.725   0.881   5.753 -0.5358  0.0981 -0.8554
   26CHL1  H16A 3052   5.804   0.808   5.728 -0.6823 -0.7121  0.9062
   26CHL1  H16B 3053   5.633   0.869   5.690  0.2154 -1.6975 -1.6846
   26CHL1   C17 3054   5.780   1.032   5.754 -0.5085 -0.1656 -0.3695
   26CHL1   H17 3055   5.701   1.107   5.730 -0.4227 -0.4609 -1.6621
   26CHL1   C13 3056   5.814   1.063   5.902 -0.4022  0.2669  0.1395
   26CHL1   C18 3057   5.958   1.001   5.927 -0.3478  0.0502  0.2756
   26CHL1  H18A 3058   5.974   0.972   6.033  2.2122  1.0531  0.2376
   26CHL1  H18B 3059   5.974   0.912   5.861 -1.5494 -1.7578  2.2636
   26CHL1  H18C 3060   6.036   1.077   5.907  0.0387 -0.0515  1.3573
   26CHL1   C12 3061   5.814   1.207   5.957 -0.0383 -1.4554 -0.2847
   26CHL1  H12A 3062   5.893   1.273   5.915  1.2527 -2.8647 -0.1199
   26CHL1  H12B 3063   5.721   1.253   5.916 -0.0344 -2.0823 -1.0203
   26CHL1   C11 3064   5.836   1.217   6.110 -0.1542 -0.7503 -0.3803
   26CHL1  H11A 3065   5.941   1.180   6.118  1.4269  2.9055 -1.8675
   26CHL1  H11B 3066   5.834   1.323   6.143  0.1241 -0.9586  0.3330
   26CHL1    C9 3067   5.733   1.130   6.185 -0.8133 -0.2815 -0.1555
   26CHL1    H9 3068   5.634   1.178   6.168 -1.1100  0.1078  2.2876
   26CHL1   C10 3069   5.747   1.130   6.336 -0.0249 -0.5759 -0.3599
   26CHL1   C19 3070   5.894   1.097   6.374 -0.1226 -0.4757 -0.7732
   26CHL1  H19A 3071   5.908   1.108   6.484  0.2474  0.7402 -0.9263
   26CHL1  H19B 3072   5.920   0.994   6.340 -0.2408 -0.3694 -1.1935
   26CHL1  H19C 3073   5.962   1.180   6.345 -0.3180  0.1332  0.4603
   26CHL1    C1 3074   5.707   1.266   6.392  0.2723 -0.0531  0.0198
   26CHL1   H1A 3075   5.770   1.347   6.349 -2.1204  1.8637 -0.0823
   26CHL1   H1B 3076   5.604   1.301   6.368 -0.0138  0.9732  2.4125
   26CHL1    C2 3077   5.718   1.291   6.543 -0.1913 -0.3379 -1.1139
   26CHL1   H2A 3078   5.704   1.396   6.576  2.1016 -0.3892  0.2362
   26CHL1   H2B 3079   5.823   1.274   6.574 -0.9204 -0.6959  1.3845
   26CHL1   C20 3080   5.901   1.053   5.650 -0.2256  0.8891 -0.4220
   26CHL1   H20 3081   5.994   0.999   5.676  1.8359  3.8382 -1.1279
   26CHL1   C21 3082   5.929   1.204   5.644 -0.5742  0.2265 -0.0353
   26CHL1  H21A 3083   5.985   1.218   5.549 -1.8861  2.5940 -0.5518
   26CHL1  H21B 3084   5.992   1.248   5.724 -0.9751 -0.5141  0.7060
   26CHL1  H21C 3085   5.833   1.261   5.640 -1.6487 -1.5077 -0.1208
   26CHL1   C22 3086   5.858   0.992   5.511  0.1205 -0.0489  0.2542
   26CHL1  H22A 3087   5.852   0.882   5.525 -0.1028 -0.3788 -2.0079
   26CHL1  H22B 3088   5.756   1.028   5.486 -0.1241 -1.3906 -0.8049
   26CHL1   C23 3089   5.961   1.008   5.394 -0.1808 -0.3467 -0.8980
   26CHL1  H23A 3090   5.951   1.114   5.363  1.0515  0.6271  1.7168
   26CHL1  H23B 3091   6.065   0.981   5.422 -0.8322 -0.7347  1.3722
   26CHL1   C24 3092   5.922   0.934   5.265  0.0975  0.3066  0.9234
   26CHL1  H24A 3093   6.004   0.940   5.191  0.3078  0.1537  1.1468
   26CHL1  H24B 3094   5.896   0.830   5.293 -1.9682  1.1850  2.5483
   26CHL1   C25 3095   5.806   0.983   5.184  0.5455  0.1573 -0.1786
   26CHL1   H25 3096   5.717   0.971   5.250  0.8449 -2.5900 -0.1540
   26CHL1   C26 3097   5.820   1.131   5.138  0.0376 -0.3493 -0.5124
   26CHL1  H26A 3098   5.791   1.192   5.227  0.2802  1.1081 -1.4049
   26CHL1  H26B 3099   5.926   1.152   5.116  0.9532 -1.4891  2.2953
   26CHL1  H26C 3100   5.772   1.173   5.047  4.1118 -0.6278 -3.0273
   26CHL1   C27 3101   5.789   0.900   5.059  0.0723  0.1025 -0.1370
   26CHL1  H27A 3102   5.886   0.910   5.006  0.0905 -1.2895 -0.3906
   26CHL1  H27B 3103   5.768   0.793   5.081  1.9101 -0.1577  0.4655
   26CHL1  H27C 3104   5.698   0.944   5.013 -0.0264  0.3735  0.3104
   27CHL1    C3 3105   3.195   0.364   6.368  0.0656 -0.1965 -0.0545
   27CHL1    H3 3106   3.137   0.271   6.390  0.6075 -0.3035  0.9782
   27CHL1    O3 3107   3.242   0.405   6.499  0.4164 -0.0177 -0.0310
   27CHL1   H3' 3108   3.271   0.495   6.487  0.9106 -0.2145 -0.3655
   27CHL1    C4 3109   3.320   0.327   6.273  0.2479  0.0235 -0.0971
   27CHL1   H4A 3110   3.406   0.397   6.276  1.1446 -1.0633  0.2442
   27CHL1   H4B 3111   3.365   0.235   6.316 -1.5222 -0.3031  1.1827
   27CHL1    C5 3112   3.276   0.317   6.130  0.4586  0.4176  0.1960
   27CHL1    C6 3113   3.324   0.211   6.062 -0.3222  0.3246  0.5249
   27CHL1    H6 3114   3.395   0.146   6.116 -0.3927 -0.0572  0.1583
   27CHL1    C7 3115   3.286   0.159   5.927  0.2961  0.4059  0.4096
   27CHL1   H7A 3116   3.373   0.125   5.867  1.0348  2.7345  0.0565
   27CHL1   H7B 3117   3.220   0.070   5.931  1.5231 -0.5044  1.1101
   27CHL1    C8 3118   3.207   0.269   5.845  0.3956  0.1658  0.2575
   27CHL1    H8 3119   3.286   0.341   5.814  0.7550 -0.2214  0.2619
   27CHL1   C14 3120   3.127   0.209   5.725 -0.0930  0.3852 -0.4988
   27CHL1   H14 3121   3.049   0.136   5.756  0.5636 -1.0087 -1.9825
   27CHL1   C15 3122   3.214   0.134   5.617 -0.2670 -0.0897  0.5029
   27CHL1  H15A 3123   3.319   0.169   5.603 -0.3029 -0.0972  0.2170
   27CHL1  H15B 3124   3.218   0.029   5.653 -4.0473 -0.5609 -0.0820
   27CHL1   C16 3125   3.121   0.139   5.494 -0.0199  0.9660  0.2155
   27CHL1  H16A 3126   3.196   0.184   5.425 -0.0736 -2.5289 -2.3869
   27CHL1  H16B 3127   3.093   0.043   5.446  2.0874  0.2701  0.2613
   27CHL1   C17 3128   3.009   0.227   5.523  0.2543 -0.4599  0.3129
   27CHL1   H17 3129   2.917   0.174   5.557  0.3308 -0.6040  0.2969
   27CHL1   C13 3130   3.053   0.316   5.639  0.2821 -1.0103 -0.4471
   27CHL1   C18 3131   3.143   0.429   5.582 -0.6892 -0.8625 -0.6898
   27CHL1  H18A 3132   3.088   0.505   5.521  0.6292  0.3366 -0.4133
   27CHL1  H18B 3133   3.196   0.490   5.658 -1.4100 -0.0460 -0.8212
   27CHL1  H18C 3134   3.216   0.379   5.515 -0.5503 -1.0062 -0.4280
   27CHL1   C12 3135   2.948   0.381   5.726  0.7293  0.1853  0.9316
   27CHL1  H12A 3136   2.869   0.449   5.687  2.1846  0.9880 -0.8068
   27CHL1  H12B 3137   2.887   0.292   5.752 -0.3600  0.7642  0.4494
   27CHL1   C11 3138   3.013   0.437   5.854  0.0322  0.0305 -0.2826
   27CHL1  H11A 3139   3.076   0.522   5.821 -1.4805  1.0913 -0.5445
   27CHL1  H11B 3140   2.925   0.470   5.915  0.1961 -0.7547  0.4102
   27CHL1    C9 3141   3.104   0.342   5.934 -0.7859 -0.2270  0.2560
   27CHL1    H9 3142   3.046   0.255   5.973 -0.3124  0.2181  2.0483
   27CHL1   C10 3143   3.163   0.404   6.065  0.5574  0.6251  1.0403
   27CHL1   C19 3144   3.233   0.545   6.031 -0.0431  0.2184  0.4782
   27CHL1  H19A 3145   3.153   0.614   5.997 -1.5283 -1.0883  1.2231
   27CHL1  H19B 3146   3.281   0.600   6.115 -0.9952  2.3399 -0.2890
   27CHL1  H19C 3147   3.317   0.535   5.959 -1.1180  0.7500 -0.9006
   27CHL1    C1 3148   3.046   0.405   6.169 -0.6276  0.1185 -0.5008
   27CHL1   H1A 3149   2.969   0.474   6.128 -1.1688 -1.1477 -1.7055
   27CHL1   H1B 3150   3.008   0.301   6.169  0.1514 -0.2125 -2.5458
   27CHL1    C2 3151   3.091   0.465   6.307 -0.6793 -0.3482  0.2925
   27CHL1   H2A 3152   3.001   0.470   6.373 -2.0743 -0.6076 -1.4865
   27CHL1   H2B 3153   3.126   0.569   6.295 -1.9506  0.0805  0.1427
   27CHL1   C20 3154   2.958   0.287   5.383  0.7462 -0.5949 -0.4966
   27CHL1   H20 3155   3.026   0.366   5.345  1.1092 -1.7027 -2.2494
   27CHL1   C21 3156   2.816   0.343   5.397  0.6928 -0.5806  0.4701
   27CHL1  H21A 3157   2.747   0.259   5.420  0.9578 -1.2270 -0.9844
   27CHL1  H21B 3158   2.777   0.392   5.305  2.1295  3.2333  1.7076
   27CHL1  H21C 3159   2.825   0.423   5.473  2.7096 -0.0525 -0.2619
   27CHL1   C22 3160   2.969   0.178   5.271 -0.5709  0.0588 -0.7777
   27CHL1  H22A 3161   3.077   0.159   5.252 -0.0870  2.7475 -1.1705
   27CHL1  H22B 3162   2.914   0.091   5.312 -0.0320  1.1448  2.5379
   27CHL1   C23 3163   2.925   0.215   5.127  0.1884 -0.8145 -0.0494
   27CHL1  H23A 3164   2.814   0.227   5.135  0.3920  1.0474  0.4467
   27CHL1  H23B 3165   2.962   0.313   5.090 -3.0185  0.1189 -1.1670
   27CHL1   C24 3166   2.958   0.109   5.023 -0.7295  0.7087 -0.1823
   27CHL1  H24A 3167   3.065   0.081   5.020 -1.3331 -1.9958  0.2955
   27CHL1  H24B 3168   2.907   0.021   5.069 -0.0069  1.5737  2.4393
   27CHL1   C25 3169   2.907   0.126   4.881  0.7278  0.3680 -0.2950
   27CHL1   H25 3170   2.976   0.200   4.835 -0.0759  1.0072 -0.4894
   27CHL1   C26 3171   2.910  -0.002   4.800 -0.5446  0.3034  0.2533
   27CHL1  H26A 3172   3.013  -0.040   4.786  0.0440  2.4778 -1.9964
   27CHL1  H26B 3173   2.853  -0.076   4.860 -1.9339 -0.4835 -1.9387
   27CHL1  H26C 3174   2.859   0.012   4.703  0.5154 -2.8915 -0.8826
   27CHL1   C27 3175   2.766   0.189   4.887  0.2605 -0.0750 -0.1434
   27CHL1  H27A 3176   2.760   0.290   4.933 -0.7156 -0.2212  0.0583
   27CHL1  H27B 3177   2.706   0.119   4.948 -0.9604 -0.3316 -1.5940
   27CHL1  H27C 3178   2.719   0.192   4.786 -1.1107 -1.3967  0.4242
   28CHL1    C3 3179   6.785   1.227   6.960 -0.0881 -0.5371 -0.7248
   28CHL1    H3 3180   6.723   1.317   6.939 -1.3521 -1.1118  0.3824
   28CHL1    O3 3181   6.831   1.230   7.098  0.0111 -0.4614 -0.0776
   28CHL1   H3' 3182   6.888   1.153   7.102  0.3170 -0.2435 -0.2473
   28CHL1    C4 3183   6.700   1.100   6.934  0.4373 -0.3307 -0.9255
   28CHL1   H4A 3184   6.768   1.015   6.958  1.7267  1.4198  2.2100
   28CHL1   H4B 3185   6.626   1.088   7.015  0.9222 -2.9918 -0.7999
   28CHL1    C5 3186   6.649   1.104   6.787  0.2878 -0.1884 -0.2776
   28CHL1    C6 3187   6.516   1.106   6.754  0.6046 -0.1565 -0.3009
   28CHL1    H6 3188   6.440   1.114   6.832 -1.3278  0.4035 -2.1472
   28CHL1    C7 3189   6.463   1.109   6.613  0.1196 -0.3014  0.0575
   28CHL1   H7A 3190   6.378   1.039   6.602  0.2128 -0.2030 -1.5187
   28CHL1   H7B 3191   6.420   1.209   6.590 -1.4644 -0.8113  0.6796
   28CHL1    C8 3192   6.577   1.070   6.515  0.2026 -0.4203  0.4229
   28CHL1    H8 3193   6.616   0.967   6.529  0.9877 -0.0206  1.3358
   28CHL1   C14 3194   6.530   1.104   6.367  0.5309 -0.8941 -0.4978
   28CHL1   H14 3195   6.511   1.213   6.363  2.1134 -0.6430 -1.7977
   28CHL1   C15 3196   6.402   1.040   6.321  0.4611  0.0800 -0.2362
   28CHL1  H15A 3197   6.405   0.936   6.360  2.3445  0.5826  1.1156
   28CHL1  H15B 3198   6.313   1.095   6.358 -1.4594 -3.3694  0.7362
   28CHL1   C16 3199   6.410   1.036   6.167  0.0048 -0.0376 -0.0369
   28CHL1  H16A 3200   6.403   0.930   6.133 -0.9367  0.2049 -0.6610
   28CHL1  H16B 3201   6.331   1.101   6.124  0.8285  0.6305 -0.5650
   28CHL1   C17 3202   6.554   1.092   6.140  0.1251 -0.6232 -0.3315
   28CHL1   H17 3203   6.537   1.201   6.134 -0.7455 -0.7344  0.0838
   28CHL1   C13 3204   6.638   1.077   6.266 -1.1599  0.1792 -0.2175
   28CHL1   C18 3205   6.694   0.928   6.268 -0.4186 -0.8803  0.3007
   28CHL1  H18A 3206   6.791   0.928   6.214 -0.5578  0.0855  0.0299
   28CHL1  H18B 3207   6.724   0.892   6.369 -0.7137 -2.1112 -0.0337
   28CHL1  H18C 3208   6.619   0.868   6.212 -1.1572 -0.5281  0.8869
   28CHL1   C12 3209   6.752   1.176   6.296 -0.6476  0.7412 -0.4071
   28CHL1  H12A 3210   6.834   1.179   6.221 -1.2464 -1.7247 -1.2475
   28CHL1  H12B 3211   6.711   1.279   6.282 -0.6219  0.8699  0.4337
   28CHL1   C11 3212   6.807   1.156   6.434 -0.0915 -0.2260 -0.7301
   28CHL1  H11A 3213   6.860   1.058   6.428 -2.3798 -1.4849 -1.8473
   28CHL1  H11B 3214   6.879   1.237   6.455  1.1466 -1.6766  0.9387
   28CHL1    C9 3215   6.704   1.158   6.547  0.3654 -0.0603  0.5805
   28CHL1    H9 3216   6.662   1.260   6.544  0.5966  0.0436 -2.1117
   28CHL1   C10 3217   6.760   1.116   6.682 -1.0538  0.2664 -0.3664
   28CHL1   C19 3218   6.834   0.985   6.687  0.4012 -0.1804  0.7219
   28CHL1  H19A 3219   6.874   0.965   6.788  0.3710 -0.0605  0.7572
   28CHL1  H19B 3220   6.762   0.901   6.672 -0.8684  0.5471  2.4193
   28CHL1  H19C 3221   6.916   0.965   6.615 -1.1530 -3.8334 -0.2864
   28CHL1    C1 3222   6.868   1.225   6.724 -0.0941 -0.0629  0.3797
   28CHL1   H1A 3223   6.962   1.224   6.665 -1.7084 -0.1073 -2.3755
   28CHL1   H1B 3224   6.811   1.319   6.706 -2.1748 -1.3802 -0.3151
   28CHL1    C2 3225   6.906   1.219   6.871 -0.0576  0.1444  0.2231
   28CHL1   H2A 3226   6.970   1.309   6.886  1.9342 -1.0881 -0.4875
   28CHL1   H2B 3227   6.964   1.126   6.886 -1.0018 -0.4102  0.5017
   28CHL1   C20 3228   6.605   1.046   6.009 -0.4258 -0.0719 -0.2349
   28CHL1   H20 3229   6.656   0.948   6.018  0.3508  0.4261  0.9962
   28CHL1   C21 3230   6.702   1.157   5.963  0.5490 -0.1741  0.4164
   28CHL1  H21A 3231   6.742   1.134   5.862 -1.1429 -1.4297 -0.0011
   28CHL1  H21B 3232   6.791   1.175   6.027 -0.3974  0.6671  1.5626
   28CHL1  H21C 3233   6.648   1.253   5.943 -1.4441 -0.9485  1.8036
   28CHL1   C22 3234   6.494   1.023   5.906 -0.6268  0.1222 -0.0498
   28CHL1  H22A 3235   6.468   0.917   5.927  3.3473 -0.9953  0.0863
   28CHL1  H22B 3236   6.403   1.084   5.918 -0.8233 -0.2941  0.5977
   28CHL1   C23 3237   6.538   1.035   5.755  0.0744  0.1428  0.6946
   28CHL1  H23A 3238   6.504   1.132   5.712  0.5249  0.3606  0.8253
   28CHL1  H23B 3239   6.643   1.008   5.731 -0.3583 -1.2212  0.2038
   28CHL1   C24 3240   6.451   0.942   5.661 -0.2354 -0.7802  0.1258
   28CHL1  H24A 3241   6.443   0.840   5.704 -4.7417 -0.5786  0.3135
   28CHL1  H24B 3242   6.351   0.988   5.644  0.6784  0.6080 -1.8710
   28CHL1   C25 3243   6.507   0.923   5.524 -0.7481  0.5198  0.9688
   28CHL1   H25 3244   6.614   0.903   5.549 -0.2772  2.0791  0.3497
   28CHL1   C26 3245   6.438   0.817   5.436 -0.6153  0.1236 -0.0120
   28CHL1  H26A 3246   6.329   0.837   5.436 -0.4120  1.2985 -0.3172
   28CHL1  H26B 3247   6.473   0.823   5.331 -1.2152  1.7685 -0.1523
   28CHL1  H26C 3248   6.459   0.721   5.488  0.0137  0.2283 -0.0675
   28CHL1   C27 3249   6.513   1.054   5.442  1.1185 -0.5312  0.1872
   28CHL1  H27A 3250   6.420   1.112   5.425  1.7530  1.1673  2.0487
   28CHL1  H27B 3251   6.591   1.125   5.476  0.7111  0.6580 -1.2437
   28CHL1  H27C 3252   6.542   1.028   5.338 -2.7544 -2.9125 -0.4854
   29CHL1    C3 3253   3.084   1.572   6.488  0.3301  0.3462 -0.3277
   29CHL1    H3 3254   3.162   1.651   6.494  1.5542 -0.8848  0.6570
   29CHL1    O3 3255   3.063   1.527   6.621  0.0858  0.5354 -0.3738
   29CHL1   H3' 3256   3.151   1.513   6.658 -1.2137 -0.1083  2.7586
   29CHL1    C4 3257   2.956   1.623   6.417 -0.2058 -0.2201  0.0671
   29CHL1   H4A 3258   2.894   1.531   6.423 -0.9668  0.2534 -0.4940
   29CHL1   H4B 3259   2.933   1.709   6.484  1.0053  0.6652 -0.6105
   29CHL1    C5 3260   2.969   1.657   6.265  0.0663 -0.0281 -0.5136
   29CHL1    C6 3261   2.930   1.778   6.224 -0.3649  0.5896 -0.7742
   29CHL1    H6 3262   2.886   1.849   6.297 -1.1461 -0.4173 -0.2440
   29CHL1    C7 3263   2.942   1.815   6.073  0.0351  0.2847 -1.3075
   29CHL1   H7A 3264   2.852   1.869   6.037  0.0586  0.6738 -0.7893
   29CHL1   H7B 3265   3.029   1.882   6.059  0.7083 -0.2707  0.0283
   29CHL1    C8 3266   2.966   1.687   5.988  0.3729 -0.4252  0.2210
   29CHL1    H8 3267   2.872   1.628   5.975  1.0054 -1.4592  0.2288
   29CHL1   C14 3268   3.014   1.736   5.843  0.0789  0.0162 -0.3057
   29CHL1   H14 3269   3.108   1.794   5.852  0.9248 -1.4181  0.4379
   29CHL1   C15 3270   2.917   1.830   5.779  0.1706 -0.0702  0.8777
   29CHL1  H15A 3271   2.814   1.790   5.795 -0.2761  0.1175 -1.2316
   29CHL1  H15B 3272   2.926   1.932   5.822  0.6888  0.3155 -0.1140
   29CHL1   C16 3273   2.943   1.815   5.626 -0.4863 -0.5027 -0.8233
   29CHL1  H16A 3274   2.850   1.779   5.578 -0.6278 -3.4734  1.4099
   29CHL1  H16B 3275   2.996   1.902   5.582  1.9483 -1.7237 -0.4952
   29CHL1   C17 3276   3.054   1.702   5.613 -0.2077  0.1950  0.0923
   29CHL1   H17 3277   3.147   1.758   5.636  1.3061 -1.6786 -1.1856
   29CHL1   C13 3278   3.037   1.620   5.744 -0.6586 -0.0487  0.5136
   29CHL1   C18 3279   2.922   1.519   5.725  0.5081 -0.4390  0.0270
   29CHL1  H18A 3280   2.824   1.570   5.723  1.1811  0.9696 -3.3070
   29CHL1  H18B 3281   2.942   1.467   5.629  1.5426  3.1798 -1.9318
   29CHL1  H18C 3282   2.907   1.438   5.800 -3.5844 -0.5757 -0.7423
   29CHL1   C12 3283   3.162   1.549   5.801  0.0128 -0.6955 -0.2195
   29CHL1  H12A 3284   3.201   1.467   5.737  1.8063 -3.2596  3.7980
   29CHL1  H12B 3285   3.246   1.622   5.800 -0.6579  0.0897 -0.5545
   29CHL1   C11 3286   3.140   1.487   5.942 -0.3751  0.4555  0.3203
   29CHL1  H11A 3287   3.069   1.403   5.929  0.2269  0.1919 -1.5715
   29CHL1  H11B 3288   3.239   1.460   5.985 -1.2586  0.4004  2.4503
   29CHL1    C9 3289   3.079   1.594   6.049  0.0533 -0.0415  0.0665
   29CHL1    H9 3290   3.164   1.663   6.063  0.5329 -1.2078  4.2214
   29CHL1   C10 3291   3.035   1.544   6.186  0.5613  0.6389  0.1266
   29CHL1   C19 3292   2.945   1.424   6.148  0.3879  0.6673 -0.0233
   29CHL1  H19A 3293   2.873   1.465   6.074 -0.3091 -0.9475 -0.2758
   29CHL1  H19B 3294   2.991   1.335   6.101 -2.6027 -0.9275 -0.1832
   29CHL1  H19C 3295   2.884   1.392   6.236 -1.1875  1.0256 -0.9403
   29CHL1    C1 3296   3.159   1.496   6.254  0.0249 -0.4370 -0.2308
   29CHL1   H1A 3297   3.194   1.401   6.208  0.1478  0.5609 -2.3262
   29CHL1   H1B 3298   3.233   1.577   6.238 -0.6018  0.1572 -0.1444
   29CHL1    C2 3299   3.150   1.464   6.405 -0.0212  0.3225  1.3099
   29CHL1   H2A 3300   3.248   1.427   6.441 -1.0993 -2.8626  1.3082
   29CHL1   H2B 3301   3.086   1.374   6.396  1.6163 -0.7600 -0.0024
   29CHL1   C20 3302   3.067   1.637   5.479  0.0253 -0.4300 -0.4805
   29CHL1   H20 3303   3.126   1.545   5.500  2.1031  1.0136  0.3620
   29CHL1   C21 3304   3.169   1.728   5.400 -0.6346  0.1572 -0.4805
   29CHL1  H21A 3305   3.259   1.750   5.461 -1.4496 -2.8191  2.0307
   29CHL1  H21B 3306   3.127   1.830   5.382  0.4597  0.6199 -0.4991
   29CHL1  H21C 3307   3.199   1.683   5.303  2.8765 -0.0627  0.6018
   29CHL1   C22 3308   2.933   1.616   5.400  0.7937  0.0633 -0.0129
   29CHL1  H22A 3309   2.858   1.569   5.468  0.7710  0.1474  0.0209
   29CHL1  H22B 3310   2.891   1.716   5.378  1.5526  0.2573 -0.5954
   29CHL1   C23 3311   2.949   1.546   5.264 -0.2826  0.3397 -0.5216
   29CHL1  H23A 3312   3.028   1.606   5.214 -0.6318  1.8800  0.6761
   29CHL1  H23B 3313   2.988   1.445   5.286  0.0390  0.8533  1.5172
   29CHL1   C24 3314   2.829   1.555   5.172 -0.0205  0.6055  0.4463
   29CHL1  H24A 3315   2.737   1.543   5.232  0.6567 -0.1789  1.3514
   29CHL1  H24B 3316   2.808   1.655   5.129  3.6442  2.3747  2.2943
   29CHL1   C25 3317   2.834   1.441   5.064 -0.3968 -0.0764 -0.2709
   29CHL1   H25 3318   2.849   1.349   5.125  0.4310 -0.8006 -1.5015
   29CHL1   C26 3319   2.709   1.436   4.981 -0.3484  0.7328 -0.0210
   29CHL1  H26A 3320   2.702   1.341   4.923 -1.4335  0.0551  1.1637
   29CHL1  H26B 3321   2.616   1.445   5.042  0.7186  1.6675  1.5242
   29CHL1  H26C 3322   2.707   1.520   4.908 -0.0086  1.7390  1.0988
   29CHL1   C27 3323   2.957   1.454   4.974  0.4760  0.2369  0.7412
   29CHL1  H27A 3324   2.932   1.524   4.891 -0.8201 -0.3036  0.6506
   29CHL1  H27B 3325   3.051   1.484   5.024  0.7278 -2.4115  1.9944
   29CHL1  H27C 3326   2.985   1.357   4.928 -1.3173 -0.0487  0.1863
   30CHL1    C3 3327   4.115   2.677   6.466  0.0491 -0.1293  0.0628
   30CHL1    H3 3328   4.181   2.595   6.501 -0.6951 -0.8466 -0.1726
   30CHL1    O3 3329   4.063   2.741   6.580  0.5177  0.1306  0.0886
   30CHL1   H3' 3330   4.016   2.680   6.637 -1.1688  0.5263 -0.7995
   30CHL1    C4 3331   4.193   2.784   6.387  0.1802  0.1408  1.1971
   30CHL1   H4A 3332   4.120   2.865   6.365 -0.4391 -0.8543 -0.6823
   30CHL1   H4B 3333   4.274   2.835   6.443  0.4802  1.9948 -0.7829
   30CHL1    C5 3334   4.242   2.739   6.251 -0.2376  1.0235  0.2094
   30CHL1    C6 3335   4.369   2.762   6.211  0.6227  0.1445  0.0775
   30CHL1    H6 3336   4.443   2.820   6.268  1.4379 -1.5925  0.8252
   30CHL1    C7 3337   4.412   2.718   6.074 -0.0060 -0.0721  0.1221
   30CHL1   H7A 3338   4.477   2.794   6.025 -1.7357  0.9945 -0.6299
   30CHL1   H7B 3339   4.485   2.637   6.097  0.4203  0.3541  0.2879
   30CHL1    C8 3340   4.303   2.681   5.977 -0.2391 -0.1457 -0.0039
   30CHL1    H8 3341   4.254   2.778   5.953  0.9823  0.2276 -1.0975
   30CHL1   C14 3342   4.360   2.613   5.857 -0.7954 -0.9771  1.2545
   30CHL1   H14 3343   4.415   2.525   5.897  0.1794  0.4381  3.1730
   30CHL1   C15 3344   4.463   2.702   5.765  0.5302  0.2491  0.6528
   30CHL1  H15A 3345   4.415   2.802   5.756  0.6045  0.1133 -2.1030
   30CHL1  H15B 3346   4.559   2.701   5.821 -0.7499  1.9085  3.0154
   30CHL1   C16 3347   4.461   2.629   5.632  0.4211 -0.5620  0.0486
   30CHL1  H16A 3348   4.455   2.708   5.554  0.4356 -1.7721 -1.2012
   30CHL1  H16B 3349   4.559   2.577   5.623  0.5500 -0.5743  1.2999
   30CHL1   C17 3350   4.353   2.521   5.636 -0.1978  0.0769  0.8174
   30CHL1   H17 3351   4.406   2.425   5.653  3.0263  1.3891 -0.9283
   30CHL1   C13 3352   4.257   2.568   5.751 -0.1055 -0.3242  0.5718
   30CHL1   C18 3353   4.179   2.688   5.704 -0.1646 -0.1795  0.7482
   30CHL1  H18A 3354   4.238   2.767   5.654  0.5805 -2.3116 -1.9358
   30CHL1  H18B 3355   4.111   2.654   5.623 -0.2684  0.4134  0.5814
   30CHL1  H18C 3356   4.126   2.726   5.795  0.7070  0.2719  1.0775
   30CHL1   C12 3357   4.169   2.463   5.821 -0.3038 -0.0146 -0.2948
   30CHL1  H12A 3358   4.089   2.433   5.750  0.5004 -2.0613 -0.3800
   30CHL1  H12B 3359   4.233   2.375   5.844  0.0984  1.1143  3.5702
   30CHL1   C11 3360   4.105   2.508   5.950  0.3206 -0.0792  0.5116
   30CHL1  H11A 3361   4.021   2.572   5.915  0.6984 -0.4420 -1.1458
   30CHL1  H11B 3362   4.063   2.420   6.003 -0.5122 -0.0400 -0.0720
   30CHL1    C9 3363   4.202   2.588   6.046 -0.6144  0.4106 -0.2947
   30CHL1    H9 3364   4.263   2.508   6.091  0.9214  0.7664 -1.6623
   30CHL1   C10 3365   4.137   2.653   6.165  1.1103 -0.3167  0.3229
   30CHL1   C19 3366   4.037   2.762   6.110 -0.4187  0.2665 -0.0497
   30CHL1  H19A 3367   4.086   2.843   6.053  1.6207  0.0035  1.2302
   30CHL1  H19B 3368   3.954   2.704   6.065 -0.0777 -0.6835  0.4941
   30CHL1  H19C 3369   3.988   2.825   6.187  3.0920  2.8903  0.2762
   30CHL1    C1 3370   4.064   2.546   6.261  0.2874 -0.8636 -0.8551
   30CHL1   H1A 3371   3.982   2.496   6.204 -1.0014 -0.8309  0.8528
   30CHL1   H1B 3372   4.137   2.470   6.298 -1.1078 -1.6038  0.5244
   30CHL1    C2 3373   4.002   2.614   6.387 -0.0240  0.5184 -0.8635
   30CHL1   H2A 3374   3.955   2.532   6.446  1.0539 -0.4959 -1.3771
   30CHL1   H2B 3375   3.930   2.694   6.361  1.5815  2.3309  0.0935
   30CHL1   C20 3376   4.295   2.501   5.492 -0.7243  0.0478  0.9814
   30CHL1   H20 3377   4.264   2.601   5.454  0.1296 -0.0969 -0.1416
   30CHL1   C21 3378   4.164   2.418   5.490  0.5343 -0.7757 -0.3867
   30CHL1  H21A 3379   4.118   2.403   5.390  1.5459  1.8058 -1.3278
   30CHL1  H21B 3380   4.088   2.473   5.548 -0.7019  0.0599 -2.6944
   30CHL1  H21C 3381   4.178   2.316   5.531 -1.1664 -0.7238  0.3910
   30CHL1   C22 3382   4.402   2.456   5.393  0.0809  0.0661  1.1393
   30CHL1  H22A 3383   4.500   2.507   5.407 -0.2866  0.7114  1.4418
   30CHL1  H22B 3384   4.430   2.352   5.420 -1.2245 -0.2158  1.4788
   30CHL1   C23 3385   4.363   2.475   5.249 -0.1251 -0.5018 -0.1125
   30CHL1  H23A 3386   4.273   2.411   5.237 -1.7039  1.4583  0.7124
   30CHL1  H23B 3387   4.332   2.581   5.234  0.3253 -0.4779 -0.9299
   30CHL1   C24 3388   4.472   2.440   5.146 -0.0934 -0.0817  0.7608
   30CHL1  H24A 3389   4.543   2.525   5.150 -0.5876  0.8314 -3.9387
   30CHL1  H24B 3390   4.537   2.353   5.172  1.6416  0.8256 -0.4138
   30CHL1   C25 3391   4.421   2.411   5.005 -0.0830  0.0686  0.3311
   30CHL1   H25 3392   4.340   2.336   4.999  0.5345 -0.5160 -1.1157
   30CHL1   C26 3393   4.375   2.538   4.934 -0.2441 -0.4363 -0.4661
   30CHL1  H26A 3394   4.348   2.520   4.828 -3.2726 -0.2847  0.1983
   30CHL1  H26B 3395   4.285   2.586   4.978  2.0073  3.0022  0.8788
   30CHL1  H26C 3396   4.461   2.609   4.937  1.5755 -2.5609  1.3348
   30CHL1   C27 3397   4.536   2.357   4.919 -0.0781  1.0480  0.5090
   30CHL1  H27A 3398   4.600   2.447   4.906 -1.0017  1.5661 -0.6707
   30CHL1  H27B 3399   4.594   2.281   4.975  0.7704  2.3149  1.4011
   30CHL1  H27C 3400   4.513   2.328   4.815 -1.1980 -0.2741  1.1023
   31CHL1    C3 3401   3.459   2.311   6.478  0.3942 -0.1935 -0.8522
   31CHL1    H3 3402   3.438   2.202   6.486  1.5971 -0.3306  0.8616
   31CHL1    O3 3403   3.458   2.359   6.607 -0.3711 -0.5126  0.0109
   31CHL1   H3' 3404   3.476   2.451   6.587  1.5596 -1.0821 -1.1725
   31CHL1    C4 3405   3.610   2.339   6.436 -0.1752 -0.1179 -0.2124
   31CHL1   H4A 3406   3.619   2.449   6.454  0.9312 -0.2378 -0.0067
   31CHL1   H4B 3407   3.681   2.291   6.505  1.5435 -0.1680 -1.9168
   31CHL1    C5 3408   3.637   2.300   6.292 -0.9610  0.1211 -0.3052
   31CHL1    C6 3409   3.732   2.215   6.256 -0.3962 -0.4444 -0.3372
   31CHL1    H6 3410   3.798   2.166   6.330  0.8573 -0.5598 -1.4989
   31CHL1    C7 3411   3.776   2.196   6.112  1.2452  0.4914 -0.1809
   31CHL1   H7A 3412   3.886   2.198   6.106  1.2188 -1.0743 -1.8594
   31CHL1   H7B 3413   3.743   2.095   6.081 -3.7349  1.4536  0.9579
   31CHL1    C8 3414   3.702   2.301   6.018  0.4386 -0.4264  0.3778
   31CHL1    H8 3415   3.753   2.398   6.036 -0.7898  0.2078  0.5540
   31CHL1   C14 3416   3.727   2.267   5.871  0.0072  0.5671  1.1492
   31CHL1   H14 3417   3.674   2.171   5.851  1.3829  0.1814 -0.9126
   31CHL1   C15 3418   3.872   2.239   5.824 -0.4492  0.1265 -0.5308
   31CHL1  H15A 3419   3.930   2.328   5.859  0.8632 -1.0546  0.4429
   31CHL1  H15B 3420   3.914   2.148   5.872  1.1886  1.9077  1.6596
   31CHL1   C16 3421   3.861   2.238   5.671  0.3402 -0.2989  0.6215
   31CHL1  H16A 3422   3.923   2.325   5.640 -1.9092  1.0993 -0.1495
   31CHL1  H16B 3423   3.879   2.136   5.630 -0.5175 -0.8914  1.6709
   31CHL1   C17 3424   3.710   2.284   5.640  0.3419 -0.0896  0.3020
   31CHL1   H17 3425   3.641   2.197   5.630 -2.6215  2.0658  0.6293
   31CHL1   C13 3426   3.666   2.361   5.769 -0.3770  0.0093  0.0628
   31CHL1   C18 3427   3.725   2.509   5.769 -0.5969 -0.1456 -0.1965
   31CHL1  H18A 3428   3.835   2.517   5.757 -0.0893 -0.9696  2.9733
   31CHL1  H18B 3429   3.683   2.568   5.685 -1.4326 -0.5974 -0.1090
   31CHL1  H18C 3430   3.693   2.561   5.861  0.6430 -1.9559  1.3376
   31CHL1   C12 3431   3.513   2.352   5.795 -0.4993  0.6013 -0.1885
   31CHL1  H12A 3432   3.465   2.418   5.719  0.4138  1.8201  0.2674
   31CHL1  H12B 3433   3.469   2.251   5.779  0.5111 -0.2558  2.0323
   31CHL1   C11 3434   3.476   2.389   5.936 -0.0929 -0.0578  0.9510
   31CHL1  H11A 3435   3.497   2.498   5.943 -2.2258  0.4747 -0.1299
   31CHL1  H11B 3436   3.367   2.373   5.951  0.2343 -1.7126  1.8668
   31CHL1    C9 3437   3.553   2.307   6.048  0.2962  0.0195 -0.4639
   31CHL1    H9 3438   3.504   2.207   6.048 -0.5046  0.3996 -1.4359
   31CHL1   C10 3439   3.543   2.373   6.193 -0.2122 -0.9120 -0.8899
   31CHL1   C19 3440   3.570   2.530   6.180  0.5408 -0.0026  0.2844
   31CHL1  H19A 3441   3.661   2.549   6.120 -0.6941 -0.3732 -1.8125
   31CHL1  H19B 3442   3.483   2.581   6.133  1.1188  1.4956  0.7929
   31CHL1  H19C 3443   3.581   2.590   6.272 -1.9131  3.2826 -1.3541
   31CHL1    C1 3444   3.398   2.345   6.243  0.1339 -0.5202  0.6658
   31CHL1   H1A 3445   3.331   2.401   6.175 -0.5539 -0.6960  1.1947
   31CHL1   H1B 3446   3.378   2.237   6.227  1.2797 -0.7923  0.9764
   31CHL1    C2 3447   3.362   2.386   6.388  0.1371  0.2737 -0.3026
   31CHL1   H2A 3448   3.260   2.348   6.408  0.5780  0.1834  2.0202
   31CHL1   H2B 3449   3.369   2.496   6.395 -1.3715  0.3783 -0.0573
   31CHL1   C20 3450   3.692   2.348   5.501  0.4560  0.1006  0.2793
   31CHL1   H20 3451   3.758   2.437   5.491 -0.4826  0.8249  0.3498
   31CHL1   C21 3452   3.543   2.399   5.482 -0.2769 -0.0706  0.2781
   31CHL1  H21A 3453   3.476   2.315   5.510  1.6857 -1.0397  2.3600
   31CHL1  H21B 3454   3.528   2.442   5.381 -0.1398  2.9055  1.4265
   31CHL1  H21C 3455   3.532   2.484   5.553  0.1897 -0.8411  1.3078
   31CHL1   C22 3456   3.741   2.242   5.399 -0.0983  0.1127  0.8899
   31CHL1  H22A 3457   3.847   2.209   5.411 -0.2973  0.2003  3.1691
   31CHL1  H22B 3458   3.668   2.159   5.395 -1.7833  1.5106 -2.9847
   31CHL1   C23 3459   3.733   2.286   5.252 -0.4736 -0.3951 -0.2403
   31CHL1  H23A 3460   3.727   2.395   5.233  0.5540  0.0635  1.7923
   31CHL1  H23B 3461   3.825   2.259   5.197 -1.8543  2.2374 -4.2112
   31CHL1   C24 3462   3.619   2.212   5.179 -0.2682  0.0288 -0.3166
   31CHL1  H24A 3463   3.653   2.107   5.193  1.4386  0.5134 -0.5096
   31CHL1  H24B 3464   3.524   2.228   5.234 -0.2612 -1.9794  0.3642
   31CHL1   C25 3465   3.600   2.255   5.032  0.3713 -0.2836 -1.0470
   31CHL1   H25 3466   3.610   2.366   5.026 -0.0644 -0.1559  0.2943
   31CHL1   C26 3467   3.704   2.202   4.953 -0.1158 -0.0531  0.1835
   31CHL1  H26A 3468   3.699   2.224   4.844  0.8992  0.4533  0.2326
   31CHL1  H26B 3469   3.806   2.221   4.991  0.4787 -0.4337 -1.1345
   31CHL1  H26C 3470   3.702   2.091   4.957  1.5979 -0.0855  0.9143
   31CHL1   C27 3471   3.470   2.202   4.979  1.1534  0.4468  0.5410
   31CHL1  H27A 3472   3.456   2.221   4.870 -2.8505 -0.4372  0.7604
   31CHL1  H27B 3473   3.462   2.092   4.992 -2.1380  0.7464  1.9711
   31CHL1  H27C 3474   3.387   2.243   5.040  1.3057 -1.5023  2.1520
   32CHL1    C3 3475   5.963   0.378   6.926 -0.0006  0.3759 -0.7494
   32CHL1    H3 3476   5.878   0.442   6.893 -0.0879  0.4183 -0.4497
   32CHL1    O3 3477   5.962   0.392   7.071 -0.5975  0.2152 -0.0364
   32CHL1   H3' 3478   5.874   0.362   7.093 -1.4143  3.2660  1.4262
   32CHL1    C4 3479   5.926   0.239   6.873 -0.3900 -0.7762  0.3942
   32CHL1   H4A 3480   5.994   0.169   6.927  0.2859 -0.5637 -0.1552
   32CHL1   H4B 3481   5.822   0.218   6.906 -0.8611  3.0761  1.9983
   32CHL1    C5 3482   5.936   0.225   6.726 -0.4094  0.4244 -0.2068
   32CHL1    C6 3483   5.838   0.166   6.660 -0.1528  0.5274  0.1514
   32CHL1    H6 3484   5.749   0.151   6.722  1.5323  3.0230  3.4908
   32CHL1    C7 3485   5.849   0.144   6.509  0.3902 -0.2517 -0.0128
   32CHL1   H7A 3486   5.800   0.046   6.489  0.2759 -0.1749 -0.1088
   32CHL1   H7B 3487   5.791   0.219   6.452  0.7207  0.3543  0.4364
   32CHL1    C8 3488   5.994   0.152   6.457  0.0594  0.1737  0.6345
   32CHL1    H8 3489   6.057   0.068   6.494 -1.8456 -0.8523  1.6597
   32CHL1   C14 3490   5.992   0.157   6.301  0.4420 -0.5455  0.1119
   32CHL1   H14 3491   5.940   0.251   6.274  0.8399  0.4425  2.5002
   32CHL1   C15 3492   5.913   0.046   6.223 -0.2527 -0.1516 -0.0173
   32CHL1  H15A 3493   5.956  -0.056   6.235  1.8184  0.5689 -0.8251
   32CHL1  H15B 3494   5.804   0.039   6.243 -0.0977 -1.2861  0.5207
   32CHL1   C16 3495   5.963   0.078   6.085  0.3603  0.5692 -0.4703
   32CHL1  H16A 3496   5.989  -0.018   6.034 -2.2491  0.1445 -1.1401
   32CHL1  H16B 3497   5.876   0.125   6.034 -0.3955  0.0336  0.2965
   32CHL1   C17 3498   6.096   0.163   6.088  0.0003 -0.1363  0.1851
   32CHL1   H17 3499   6.071   0.267   6.057 -2.0473 -0.7029 -0.2097
   32CHL1   C13 3500   6.132   0.171   6.240  0.0128  0.2038  0.5243
   32CHL1   C18 3501   6.218   0.053   6.285 -0.0718  0.8814  0.0545
   32CHL1  H18A 3502   6.321   0.072   6.245 -0.0402  2.0425  0.6525
   32CHL1  H18B 3503   6.237   0.046   6.394  0.9840  0.5407 -0.1384
   32CHL1  H18C 3504   6.186  -0.045   6.243  2.8638 -0.0661 -0.1949
   32CHL1   C12 3505   6.179   0.312   6.286  0.4073 -0.6095  0.0291
   32CHL1  H12A 3506   6.277   0.340   6.243  0.9219  1.5221  2.3749
   32CHL1  H12B 3507   6.103   0.382   6.247 -0.3095  0.0929  2.5116
   32CHL1   C11 3508   6.178   0.322   6.436  0.3159  0.0656 -0.6907
   32CHL1  H11A 3509   6.252   0.248   6.474  1.2536  0.3500 -1.9108
   32CHL1  H11B 3510   6.215   0.421   6.469  1.7201  0.1381 -2.3243
   32CHL1    C9 3511   6.049   0.280   6.507  0.3406  0.9285 -0.6668
   32CHL1    H9 3512   5.973   0.358   6.485  0.7076  1.5500  0.1931
   32CHL1   C10 3513   6.064   0.278   6.661  0.5140 -0.9222 -0.1141
   32CHL1   C19 3514   6.175   0.178   6.701  0.5568 -0.0684  0.3559
   32CHL1  H19A 3515   6.201   0.102   6.625 -1.1157 -1.5326  1.1603
   32CHL1  H19B 3516   6.265   0.234   6.734  0.3859 -0.6364  1.9093
   32CHL1  H19C 3517   6.159   0.114   6.791 -2.7547 -0.4685 -0.3760
   32CHL1    C1 3518   6.086   0.419   6.711 -0.5400  0.6088  0.0303
   32CHL1   H1A 3519   6.186   0.452   6.674 -0.6084  0.4619 -0.2827
   32CHL1   H1B 3520   6.007   0.482   6.667  1.2854  1.9121 -1.5266
   32CHL1    C2 3521   6.089   0.434   6.866 -0.4608  0.1193 -0.1505
   32CHL1   H2A 3522   6.094   0.541   6.896  1.0349  0.1078 -0.3017
   32CHL1   H2B 3523   6.175   0.381   6.912 -1.8824 -2.5376 -0.3384
   32CHL1   C20 3524   6.204   0.117   5.989  0.0942 -0.6035  0.2869
   32CHL1   H20 3525   6.259   0.025   6.017  0.2957 -1.0865 -1.5331
   32CHL1   C21 3526   6.328   0.217   5.995  0.5648 -0.7495 -0.8998
   32CHL1  H21A 3527   6.369   0.221   6.099 -0.5891  2.3600 -0.4544
   32CHL1  H21B 3528   6.284   0.317   5.977 -0.4493 -0.8949  0.5876
   32CHL1  H21C 3529   6.404   0.193   5.917  0.6532  0.2519 -1.1342
   32CHL1   C22 3530   6.154   0.104   5.841  0.0335 -0.3288 -0.4280
   32CHL1  H22A 3531   6.242   0.084   5.775  0.3226 -1.4076  0.2726
   32CHL1  H22B 3532   6.090   0.014   5.831 -0.0979 -0.1058 -1.7520
   32CHL1   C23 3533   6.077   0.219   5.787 -0.4447  0.5844  0.6570
   32CHL1  H23A 3534   5.976   0.227   5.833 -1.1066  0.7431 -0.7722
   32CHL1  H23B 3535   6.134   0.313   5.806 -1.1437  0.7745  1.9033
   32CHL1   C24 3536   6.055   0.202   5.628  0.4273  0.2417 -0.5818
   32CHL1  H24A 3537   5.996   0.290   5.592  1.6281  1.9007  1.2822
   32CHL1  H24B 3538   6.150   0.212   5.572 -0.0625  0.6439 -1.3571
   32CHL1   C25 3539   5.993   0.071   5.569  0.4357 -0.4252 -0.0268
   32CHL1   H25 3540   6.036  -0.021   5.613 -0.2564 -0.7529 -0.0340
   32CHL1   C26 3541   5.840   0.072   5.604 -0.1181  0.5361  0.0676
   32CHL1  H26A 3542   5.835   0.094   5.713  0.4802  2.4574 -0.2535
   32CHL1  H26B 3543   5.781   0.145   5.545 -0.2093  1.0067  0.7385
   32CHL1  H26C 3544   5.796  -0.025   5.571 -1.6334  1.1657  0.1276
   32CHL1   C27 3545   6.019   0.078   5.413 -0.2904  0.1319 -0.4079
   32CHL1  H27A 3546   5.947   0.149   5.367  0.0701  0.9374  0.2393
   32CHL1  H27B 3547   6.120   0.118   5.394  0.0201  1.2792  2.9415
   32CHL1  H27C 3548   5.996  -0.020   5.367 -0.8288 -0.4033  0.9346
   33CHL1    C3 3549   2.485   1.319   6.399  0.1103 -0.0904  0.8144
   33CHL1    H3 3550   2.392   1.381   6.402 -0.1640 -0.5203  1.6613
   33CHL1    O3 3551   2.536   1.297   6.533 -0.2212  0.6631  0.1822
   33CHL1   H3' 3552   2.513   1.374   6.586 -1.1248  0.1601  0.5427
   33CHL1    C4 3553   2.443   1.182   6.323  0.6871 -0.2111 -0.5406
   33CHL1   H4A 3554   2.528   1.111   6.333 -0.3058 -1.5183 -1.0964
   33CHL1   H4B 3555   2.359   1.141   6.384 -0.5852  1.3581 -1.1626
   33CHL1    C5 3556   2.415   1.190   6.174 -0.0150 -0.3375 -0.7424
   33CHL1    C6 3557   2.300   1.144   6.122  0.1554  0.2266  0.1983
   33CHL1    H6 3558   2.220   1.109   6.189  1.2172  0.2763  1.5446
   33CHL1    C7 3559   2.266   1.138   5.977  0.2503 -0.4367 -0.4307
   33CHL1   H7A 3560   2.223   1.037   5.956 -0.8319 -0.1061  0.1554
   33CHL1   H7B 3561   2.202   1.225   5.952  0.7037 -0.4845 -1.8422
   33CHL1    C8 3562   2.395   1.157   5.892  0.8357 -0.2542  0.3859
   33CHL1    H8 3563   2.446   1.058   5.896  1.0043 -0.2013 -0.4267
   33CHL1   C14 3564   2.358   1.190   5.745  0.1473 -0.3381 -0.2497
   33CHL1   H14 3565   2.302   1.286   5.752 -0.8092 -0.9082  0.0899
   33CHL1   C15 3566   2.261   1.100   5.665 -0.3433 -0.1988 -0.7853
   33CHL1  H15A 3567   2.286   0.996   5.694  1.1486  0.5643  0.8564
   33CHL1  H15B 3568   2.159   1.128   5.700 -0.8665 -1.4584 -1.2316
   33CHL1   C16 3569   2.287   1.120   5.515  0.5169  0.4601  0.3250
   33CHL1  H16A 3570   2.312   1.023   5.468  0.0964  0.4056  0.2125
   33CHL1  H16B 3571   2.203   1.175   5.469  0.5081  0.3806  0.2464
   33CHL1   C17 3572   2.408   1.218   5.508 -0.0400  0.8981 -0.0922
   33CHL1   H17 3573   2.374   1.323   5.498  0.5561  1.2891  1.7144
   33CHL1   C13 3574   2.473   1.208   5.653 -0.7548 -1.0966 -0.0929
   33CHL1   C18 3575   2.564   1.081   5.659  0.3793 -0.3644 -0.1051
   33CHL1  H18A 3576   2.500   0.991   5.665  0.4112 -0.3458  0.6848
   33CHL1  H18B 3577   2.639   1.070   5.578  0.7183 -0.6703  0.2462
   33CHL1  H18C 3578   2.613   1.073   5.759 -0.4431 -3.4063  0.1458
   33CHL1   C12 3579   2.536   1.339   5.712  0.1414 -0.4544  0.6533
   33CHL1  H12A 3580   2.623   1.368   5.649 -2.0889  1.7896 -1.6194
   33CHL1  H12B 3581   2.459   1.417   5.694  1.7426  0.8643 -0.9181
   33CHL1   C11 3582   2.582   1.328   5.854 -0.1902  0.1521  0.3672
   33CHL1  H11A 3583   2.670   1.261   5.845 -0.9573 -0.7110 -0.9993
   33CHL1  H11B 3584   2.613   1.433   5.872 -0.9476  0.3930  0.2869
   33CHL1    C9 3585   2.469   1.275   5.951 -0.5168  0.3529 -0.1979
   33CHL1    H9 3586   2.398   1.360   5.941 -0.6876  0.1476 -0.7833
   33CHL1   C10 3587   2.520   1.265   6.095 -0.7003  0.8965  0.4294
   33CHL1   C19 3588   2.650   1.180   6.085 -0.5298  0.7460 -0.2663
   33CHL1  H19A 3589   2.701   1.153   6.180  0.2576 -1.5466 -1.2719
   33CHL1  H19B 3590   2.616   1.083   6.043 -0.4633  0.6256 -0.0441
   33CHL1  H19C 3591   2.728   1.229   6.024  0.9684 -1.8645 -0.5684
   33CHL1    C1 3592   2.534   1.407   6.162  0.0505  0.1610  0.1315
   33CHL1   H1A 3593   2.611   1.454   6.098  2.6374 -0.3915  2.6214
   33CHL1   H1B 3594   2.434   1.448   6.136 -1.7920 -4.4060 -1.0556
   33CHL1    C2 3595   2.577   1.400   6.308 -0.4566 -0.1946 -0.0842
   33CHL1   H2A 3596   2.581   1.505   6.345  2.1990 -0.5892  0.9138
   33CHL1   H2B 3597   2.680   1.360   6.314 -0.5408 -0.5996 -1.1180
   33CHL1   C20 3598   2.503   1.188   5.382 -0.4539  0.2261 -0.4448
   33CHL1   H20 3599   2.546   1.087   5.397  0.6065  0.9957  2.1168
   33CHL1   C21 3600   2.609   1.305   5.385 -0.6548  0.3732 -0.3925
   33CHL1  H21A 3601   2.680   1.298   5.469 -0.0098 -0.0581 -0.9681
   33CHL1  H21B 3602   2.560   1.404   5.398  1.0977  1.2150  0.1507
   33CHL1  H21C 3603   2.677   1.302   5.297 -0.2917 -0.6903 -0.0808
   33CHL1   C22 3604   2.433   1.194   5.244 -0.3980 -0.4107  0.0166
   33CHL1  H22A 3605   2.326   1.166   5.252 -0.5080 -0.9962 -2.5697
   33CHL1  H22B 3606   2.426   1.300   5.213 -2.0008 -0.2410  0.8354
   33CHL1   C23 3607   2.495   1.103   5.135 -0.0696  0.0638  0.3496
   33CHL1  H23A 3608   2.603   1.124   5.118  0.1992  0.5797  2.3761
   33CHL1  H23B 3609   2.485   1.000   5.176  1.9123 -1.4286 -2.5535
   33CHL1   C24 3610   2.405   1.120   5.010  0.1809  1.2227 -0.2693
   33CHL1  H24A 3611   2.298   1.127   5.041  0.2085  0.1267  0.0859
   33CHL1  H24B 3612   2.432   1.212   4.954  0.3003  0.5354 -1.3701
   33CHL1   C25 3613   2.416   0.994   4.924  0.5730 -0.5258  1.0223
   33CHL1   H25 3614   2.398   0.910   4.994  1.6880  0.0955  2.1019
   33CHL1   C26 3615   2.308   0.996   4.810 -0.2025 -0.0526  0.3513
   33CHL1  H26A 3616   2.214   1.027   4.862 -1.0080 -2.6459  0.5569
   33CHL1  H26B 3617   2.330   1.075   4.735 -1.0683 -0.5540 -0.4432
   33CHL1  H26C 3618   2.301   0.896   4.763 -1.5422  0.4634 -0.6193
   33CHL1   C27 3619   2.560   0.993   4.861 -0.5139 -0.1155 -0.0969
   33CHL1  H27A 3620   2.571   0.906   4.792 -3.0850  0.7711 -1.7616
   33CHL1  H27B 3621   2.577   1.082   4.797  0.9889  0.5832  1.2048
   33CHL1  H27C 3622   2.640   0.988   4.939  0.2756 -0.4969 -0.9074
   34CHL1    C3 3623   3.445   1.887   6.395 -0.4956 -0.6023 -0.2704
   34CHL1    H3 3624   3.476   1.993   6.408 -1.8499  0.2580 -3.2628
   34CHL1    O3 3625   3.413   1.837   6.524  0.2489 -0.3143 -0.2780
   34CHL1   H3' 3626   3.422   1.742   6.522  1.1045 -0.2294 -1.1384
   34CHL1    C4 3627   3.332   1.884   6.293  0.4452 -0.5424 -1.5168
   34CHL1   H4A 3628   3.303   1.778   6.311  0.2269  0.1821  4.0221
   34CHL1   H4B 3629   3.244   1.934   6.337  1.5884  0.6345 -0.5052
   34CHL1    C5 3630   3.362   1.897   6.146  1.5027 -0.5265  0.5702
   34CHL1    C6 3631   3.293   1.983   6.069 -0.7661  0.3328 -0.4054
   34CHL1    H6 3632   3.205   2.042   6.099  0.0876  0.9615  0.9939
   34CHL1    C7 3633   3.344   2.004   5.927  0.7559 -0.4258 -1.2447
   34CHL1   H7A 3634   3.255   2.016   5.861  0.0895  0.9774 -0.1324
   34CHL1   H7B 3635   3.394   2.102   5.914 -0.0833  0.2872  0.5639
   34CHL1    C8 3636   3.432   1.893   5.870 -0.0709 -0.2850 -0.4012
   34CHL1    H8 3637   3.368   1.803   5.855  0.6333 -1.0378  0.9210
   34CHL1   C14 3638   3.488   1.942   5.735  0.4574 -0.1349 -0.2055
   34CHL1   H14 3639   3.546   2.037   5.744  1.2986 -0.5348 -1.1537
   34CHL1   C15 3640   3.384   1.980   5.626  0.8298  0.2946 -0.0647
   34CHL1  H15A 3641   3.298   1.910   5.636 -0.1138  1.5241  0.7024
   34CHL1  H15B 3642   3.345   2.084   5.630  0.6888  0.3182 -1.4073
   34CHL1   C16 3643   3.462   1.961   5.492 -0.5188 -0.2369  0.0511
   34CHL1  H16A 3644   3.407   1.886   5.432 -1.0295  0.6100 -0.5523
   34CHL1  H16B 3645   3.460   2.055   5.433 -0.3408 -0.4400 -0.2841
   34CHL1   C17 3646   3.609   1.907   5.537 -0.4282  0.7317  0.4387
   34CHL1   H17 3647   3.672   1.995   5.560  1.0352 -0.2312  0.2326
   34CHL1   C13 3648   3.584   1.841   5.667 -0.4806 -0.4245 -0.5292
   34CHL1   C18 3649   3.508   1.712   5.647 -0.3025  0.3132 -1.0609
   34CHL1  H18A 3650   3.409   1.709   5.596 -0.9456 -0.9306  0.1588
   34CHL1  H18B 3651   3.571   1.635   5.598 -1.6376 -1.5429 -0.0005
   34CHL1  H18C 3652   3.486   1.668   5.747  0.5398 -0.2402 -1.1049
   34CHL1   C12 3653   3.702   1.818   5.757 -0.0393 -0.7577 -0.1145
   34CHL1  H12A 3654   3.765   1.739   5.710  2.0283  1.5994 -1.4898
   34CHL1  H12B 3655   3.758   1.912   5.771 -0.3504 -0.8114  1.6823
   34CHL1   C11 3656   3.650   1.771   5.896 -0.0783 -0.2569 -1.1283
   34CHL1  H11A 3657   3.616   1.665   5.898 -1.0138 -0.0372  2.8574
   34CHL1  H11B 3658   3.734   1.769   5.968 -1.1453  0.8876  0.1911
   34CHL1    C9 3659   3.550   1.865   5.963  0.6968  0.0533 -0.5583
   34CHL1    H9 3660   3.600   1.963   5.977  1.2083 -0.2112 -0.5062
   34CHL1   C10 3661   3.491   1.825   6.103 -0.0183  0.7380  0.3176
   34CHL1   C19 3662   3.464   1.668   6.091 -0.3170  0.1510 -0.5071
   34CHL1  H19A 3663   3.396   1.650   6.006 -0.8110  1.3024 -0.3657
   34CHL1  H19B 3664   3.557   1.608   6.098 -0.1267  0.4559 -0.3981
   34CHL1  H19C 3665   3.402   1.647   6.181 -0.1338 -2.0351 -0.8403
   34CHL1    C1 3666   3.599   1.855   6.209  0.4734 -0.2232  0.0400
   34CHL1   H1A 3667   3.693   1.815   6.166 -1.2404 -0.6127 -3.8205
   34CHL1   H1B 3668   3.613   1.965   6.200 -2.4396  0.1163 -1.6149
   34CHL1    C2 3669   3.565   1.806   6.347  0.2656  0.0461 -0.1590
   34CHL1   H2A 3670   3.649   1.809   6.420  1.0445 -1.6722 -0.9239
   34CHL1   H2B 3671   3.534   1.700   6.348 -0.0697  0.1441  0.0551
   34CHL1   C20 3672   3.696   1.825   5.436 -0.1276  0.0238 -0.2680
   34CHL1   H20 3673   3.673   1.717   5.443  0.9007 -0.0858  2.1954
   34CHL1   C21 3674   3.849   1.844   5.463 -0.0271  0.4918  0.9291
   34CHL1  H21A 3675   3.898   1.811   5.369 -3.8676  0.2316 -1.2019
   34CHL1  H21B 3676   3.887   1.779   5.544  2.0794  1.6810  0.9556
   34CHL1  H21C 3677   3.884   1.947   5.488  0.6527  0.6586 -0.5751
   34CHL1   C22 3678   3.679   1.862   5.285 -0.3711  0.1385  0.4395
   34CHL1  H22A 3679   3.575   1.900   5.275 -0.9313 -1.3916  0.0984
   34CHL1  H22B 3680   3.756   1.939   5.264 -0.1533 -0.4355 -1.0547
   34CHL1   C23 3681   3.698   1.745   5.184  0.1268  0.1229  0.1898
   34CHL1  H23A 3682   3.693   1.793   5.083 -0.0907  0.9059  0.5684
   34CHL1  H23B 3683   3.796   1.692   5.193 -0.5038 -1.2069 -0.4066
   34CHL1   C24 3684   3.577   1.653   5.193  0.7230  0.4649 -0.4627
   34CHL1  H24A 3685   3.566   1.630   5.301  0.5682  0.7830 -0.4103
   34CHL1  H24B 3686   3.487   1.712   5.166 -1.3294 -1.0897  2.3758
   34CHL1   C25 3687   3.586   1.527   5.108  0.5483  0.4709  0.5412
   34CHL1   H25 3688   3.694   1.503   5.105  0.8049  1.6556 -0.7345
   34CHL1   C26 3689   3.514   1.413   5.180  0.2564  0.4336  0.0862
   34CHL1  H26A 3690   3.576   1.375   5.264 -2.0975 -1.7500  0.9466
   34CHL1  H26B 3691   3.415   1.444   5.220 -0.2789 -1.0729 -0.0224
   34CHL1  H26C 3692   3.513   1.335   5.101  0.2819 -0.6603  1.1437
   34CHL1   C27 3693   3.531   1.555   4.968 -0.3326  0.2197 -0.1253
   34CHL1  H27A 3694   3.537   1.464   4.904 -2.1633  0.0804 -0.1424
   34CHL1  H27B 3695   3.423   1.577   4.982 -0.5725 -0.1855 -1.2571
   34CHL1  H27C 3696   3.575   1.648   4.927  0.9502  0.0396  0.8029
   35CHL1    C3 3697   4.443   3.180   6.564  0.3984 -0.8555 -0.5879
   35CHL1    H3 3698   4.476   3.074   6.553  0.5309 -0.6597 -2.4518
   35CHL1    O3 3699   4.465   3.220   6.698  0.4424  0.3107  0.1272
   35CHL1   H3' 3700   4.400   3.286   6.721  2.1077  1.7206  0.9834
   35CHL1    C4 3701   4.535   3.267   6.472 -0.6616 -0.8579 -0.4117
   35CHL1   H4A 3702   4.532   3.376   6.493 -0.3101 -0.6801 -1.2655
   35CHL1   H4B 3703   4.641   3.242   6.492 -0.9058 -1.4265  0.1994
   35CHL1    C5 3704   4.511   3.256   6.324 -0.1105  0.3582  0.3420
   35CHL1    C6 3705   4.606   3.227   6.237 -0.0248  0.2180  0.1530
   35CHL1    H6 3706   4.711   3.226   6.271  0.0518 -0.8971 -0.0670
   35CHL1    C7 3707   4.589   3.211   6.087 -0.5109 -0.4027  0.4292
   35CHL1   H7A 3708   4.659   3.281   6.037  0.1336 -0.9640  0.5281
   35CHL1   H7B 3709   4.617   3.108   6.057  0.3196 -1.2046  3.5548
   35CHL1    C8 3710   4.450   3.246   6.036  0.1836 -0.2422  0.1145
   35CHL1    H8 3711   4.452   3.357   6.029  0.8864 -0.2574 -0.0395
   35CHL1   C14 3712   4.424   3.182   5.907  0.4952  0.0927  1.1766
   35CHL1   H14 3713   4.421   3.073   5.929 -0.5763 -0.3386 -0.8679
   35CHL1   C15 3714   4.524   3.201   5.792 -0.2804  0.7588  0.2289
   35CHL1  H15A 3715   4.550   3.308   5.779  0.9714  0.7914  2.6060
   35CHL1  H15B 3716   4.621   3.149   5.806  0.1383  1.6901  0.8850
   35CHL1   C16 3717   4.455   3.139   5.663  0.4004  0.2473 -0.7400
   35CHL1  H16A 3718   4.453   3.219   5.585  0.0377  2.6914  1.6404
   35CHL1  H16B 3719   4.501   3.039   5.647 -0.5550 -0.6383  1.6720
   35CHL1   C17 3720   4.301   3.122   5.703 -0.3149 -0.0653  0.3011
   35CHL1   H17 3721   4.289   3.016   5.734 -0.2406 -0.8606 -2.2184
   35CHL1   C13 3722   4.289   3.206   5.835 -0.5099  0.0323  0.5533
   35CHL1   C18 3723   4.273   3.358   5.791 -0.0885  0.4257  0.2089
   35CHL1  H18A 3724   4.171   3.378   5.750 -0.9213 -1.0518  1.4205
   35CHL1  H18B 3725   4.280   3.418   5.883  1.1578  0.2874  0.2227
   35CHL1  H18C 3726   4.347   3.396   5.718  1.7151 -0.4812  1.4956
   35CHL1   C12 3727   4.180   3.169   5.941  0.1654 -0.0829  0.6947
   35CHL1  H12A 3728   4.077   3.195   5.909  0.8549 -0.5442 -2.1178
   35CHL1  H12B 3729   4.196   3.063   5.971  3.4339  0.2264  0.3940
   35CHL1   C11 3730   4.198   3.239   6.074  0.5857  0.2968 -0.8662
   35CHL1  H11A 3731   4.194   3.349   6.060  0.9150  0.7474  1.9707
   35CHL1  H11B 3732   4.120   3.203   6.145  0.7144  0.2809 -0.7333
   35CHL1    C9 3733   4.335   3.214   6.138  0.2966  0.3700  0.3803
   35CHL1    H9 3734   4.346   3.105   6.159 -3.5984 -0.1837  0.2804
   35CHL1   C10 3735   4.357   3.271   6.283 -0.1737  0.5107  0.3893
   35CHL1   C19 3736   4.325   3.423   6.295  0.3048 -0.9886 -0.2064
   35CHL1  H19A 3737   4.215   3.435   6.297  0.3387  0.6257  4.8505
   35CHL1  H19B 3738   4.337   3.468   6.396 -1.7634  2.2122 -1.2286
   35CHL1  H19C 3739   4.380   3.485   6.220  1.2988 -2.4659 -0.7472
   35CHL1    C1 3740   4.276   3.171   6.378 -0.2501 -0.2261 -0.7570
   35CHL1   H1A 3741   4.166   3.186   6.365 -0.7357 -1.9896  0.9161
   35CHL1   H1B 3742   4.308   3.066   6.362 -0.2866 -0.6284  1.4681
   35CHL1    C2 3743   4.298   3.202   6.535 -0.1253 -0.2072 -0.2697
   35CHL1   H2A 3744   4.240   3.129   6.596 -0.3003  0.6841  0.6490
   35CHL1   H2B 3745   4.256   3.303   6.557  1.6187  0.2430  1.1567
   35CHL1   C20 3746   4.215   3.152   5.579 -0.3196  0.2114  0.0315
   35CHL1   H20 3747   4.247   3.252   5.542  1.1242 -0.2145  0.0692
   35CHL1   C21 3748   4.065   3.140   5.622  0.2852 -0.2929 -0.8614
   35CHL1  H21A 3749   4.039   3.063   5.697  1.9818  1.3920  1.6125
   35CHL1  H21B 3750   4.006   3.133   5.528 -1.4902  0.9677  0.0974
   35CHL1  H21C 3751   4.036   3.236   5.670  2.0387 -0.1085 -0.1018
   35CHL1   C22 3752   4.235   3.049   5.464 -0.5903  0.4071  0.3657
   35CHL1  H22A 3753   4.336   3.004   5.455 -0.0678  1.3799  1.1809
   35CHL1  H22B 3754   4.166   2.966   5.490 -0.1439 -0.0549  0.0775
   35CHL1   C23 3755   4.190   3.093   5.317 -0.1666 -0.5579 -0.1877
   35CHL1  H23A 3756   4.089   3.139   5.319 -0.0605 -0.2963 -0.8700
   35CHL1  H23B 3757   4.268   3.163   5.282  0.6615 -2.4573 -2.4097
   35CHL1   C24 3758   4.192   2.973   5.226 -0.3294  1.1896  0.3239
   35CHL1  H24A 3759   4.293   2.929   5.235  0.1584  1.6663 -2.0788
   35CHL1  H24B 3760   4.122   2.899   5.271  0.0714  1.1352  0.8814
   35CHL1   C25 3761   4.174   2.988   5.069  0.5298 -0.2150  0.7801
   35CHL1   H25 3762   4.255   3.042   5.016  0.2222 -1.3700 -0.9683
   35CHL1   C26 3763   4.173   2.857   4.992  0.4561  0.4283 -0.2187
   35CHL1  H26A 3764   4.274   2.810   4.993  0.1029 -0.3973 -1.5959
   35CHL1  H26B 3765   4.103   2.787   5.042  3.5131 -0.8375  2.7087
   35CHL1  H26C 3766   4.147   2.871   4.885  1.9016 -1.2476 -0.8413
   35CHL1   C27 3767   4.039   3.057   5.022  0.0886 -0.3582 -0.6259
   35CHL1  H27A 3768   4.033   3.060   4.911 -0.2759 -0.7487 -0.6178
   35CHL1  H27B 3769   3.950   3.004   5.061  1.1894 -0.8163  1.3888
   35CHL1  H27C 3770   4.043   3.158   5.069  2.5559  0.1460 -1.7160
   36CHL1    C3 3771   2.057   1.847   6.706  0.1387 -0.2808  0.5144
   36CHL1    H3 3772   1.985   1.764   6.722 -1.3706  0.8731 -0.0346
   36CHL1    O3 3773   2.096   1.880   6.835  0.4302  0.1072  0.2308
   36CHL1   H3' 3774   2.019   1.923   6.873 -0.5385 -0.6813 -0.7574
   36CHL1    C4 3775   2.177   1.810   6.616 -0.0008  0.0538 -0.4735
   36CHL1   H4A 3776   2.236   1.904   6.607  1.2428 -0.7715 -1.1332
   36CHL1   H4B 3777   2.226   1.729   6.674  0.7499  0.3134 -0.7373
   36CHL1    C5 3778   2.131   1.755   6.485 -0.3966  0.5447  0.3370
   36CHL1    C6 3779   2.161   1.629   6.445  0.0115 -0.0349 -0.2368
   36CHL1    H6 3780   2.233   1.577   6.509 -0.9330  0.9391  1.6925
   36CHL1    C7 3781   2.112   1.565   6.323 -0.3788  0.0578 -0.3957
   36CHL1   H7A 3782   2.194   1.494   6.298 -0.0463 -1.0415  3.1833
   36CHL1   H7B 3783   2.017   1.516   6.353  1.0059 -1.4277  1.9432
   36CHL1    C8 3784   2.082   1.678   6.223 -0.3703 -0.2536 -0.5354
   36CHL1    H8 3785   2.178   1.725   6.195  0.2189 -0.4840  1.0049
   36CHL1   C14 3786   2.031   1.612   6.098 -0.7347 -0.5692 -0.4394
   36CHL1   H14 3787   1.937   1.560   6.124 -0.2715 -1.5568 -0.6932
   36CHL1   C15 3788   2.112   1.506   6.036  0.1460  0.0520 -0.6856
   36CHL1  H15A 3789   2.215   1.545   6.020  0.3105  0.5501  1.2976
   36CHL1  H15B 3790   2.108   1.404   6.081 -0.9506 -0.8608 -2.7412
   36CHL1   C16 3791   2.065   1.502   5.895  0.3218  0.2534  0.4303
   36CHL1  H16A 3792   2.163   1.523   5.847  1.5071  0.2965  2.7195
   36CHL1  H16B 3793   2.036   1.403   5.854  2.4409 -0.2483  0.0331
   36CHL1   C17 3794   1.950   1.610   5.876  0.0878 -0.4897 -0.8042
   36CHL1   H17 3795   1.852   1.567   5.905 -0.3004  1.5350  1.1720
   36CHL1   C13 3796   1.981   1.713   5.988 -0.1930 -0.0558  0.0748
   36CHL1   C18 3797   2.104   1.796   5.937  0.5927 -0.4540 -0.6719
   36CHL1  H18A 3798   2.185   1.729   5.901  1.9343  1.5126 -1.4683
   36CHL1  H18B 3799   2.076   1.869   5.858  2.1881  1.0593  0.0989
   36CHL1  H18C 3800   2.146   1.864   6.014  0.3998 -0.6609 -0.3841
   36CHL1   C12 3801   1.879   1.809   6.051  0.3617  0.1467  0.4372
   36CHL1  H12A 3802   1.842   1.876   5.970 -2.0970 -1.0200  0.5008
   36CHL1  H12B 3803   1.787   1.751   6.076  1.1934 -1.1373  0.5775
   36CHL1   C11 3804   1.933   1.882   6.171  0.4531 -0.3015  0.7811
   36CHL1  H11A 3805   2.008   1.960   6.146  2.0347 -1.8720  0.3783
   36CHL1  H11B 3806   1.842   1.926   6.218  1.1368  2.6351 -0.4590
   36CHL1    C9 3807   1.990   1.786   6.279 -0.1728 -0.0763  0.4860
   36CHL1    H9 3808   1.902   1.726   6.311 -2.1915  2.6059  0.2728
   36CHL1   C10 3809   2.042   1.854   6.405 -0.0662  0.3032 -0.1927
   36CHL1   C19 3810   2.134   1.972   6.355 -0.5954  0.1881 -0.6039
   36CHL1  H19A 3811   2.208   2.017   6.424  1.5383 -0.9154 -2.0647
   36CHL1  H19B 3812   2.187   1.923   6.271  0.8806 -1.3831  1.1764
   36CHL1  H19C 3813   2.076   2.062   6.324  0.1180  0.8309 -0.0938
   36CHL1    C1 3814   1.930   1.899   6.496  0.9490 -0.5644  0.7681
   36CHL1   H1A 3815   1.865   1.966   6.435  1.0434 -0.8419  0.3580
   36CHL1   H1B 3816   1.880   1.801   6.516  0.9296 -0.9711 -1.0785
   36CHL1    C2 3817   1.972   1.953   6.632 -0.5085 -0.5689  0.7403
   36CHL1   H2A 3818   1.878   1.963   6.690 -0.4584 -2.1419  1.1490
   36CHL1   H2B 3819   2.022   2.052   6.638  1.0873 -1.3921  1.7288
   36CHL1   C20 3820   1.938   1.671   5.735 -0.1161  0.4657  0.3494
   36CHL1   H20 3821   2.032   1.723   5.710  0.8358 -1.5093 -0.3986
   36CHL1   C21 3822   1.820   1.770   5.731  0.2669 -0.1097  0.8775
   36CHL1  H21A 3823   1.828   1.869   5.780  0.9046 -1.2315  3.1441
   36CHL1  H21B 3824   1.739   1.728   5.795 -1.3305  0.1881 -0.8503
   36CHL1  H21C 3825   1.782   1.786   5.628 -1.0252 -1.7879  1.0452
   36CHL1   C22 3826   1.922   1.570   5.622 -0.8154 -0.2567  0.2910
   36CHL1  H22A 3827   1.985   1.482   5.648  3.3700  1.7948 -1.7842
   36CHL1  H22B 3828   1.818   1.537   5.605 -0.5660 -0.1044 -1.7521
   36CHL1   C23 3829   1.969   1.637   5.497  0.0254 -0.6609  0.3738
   36CHL1  H23A 3830   1.877   1.687   5.458  0.1567  0.0062  0.9116
   36CHL1  H23B 3831   2.056   1.707   5.497 -0.5789  0.1051  1.3993
   36CHL1   C24 3832   2.007   1.534   5.381 -0.0732  0.0154 -0.0100
   36CHL1  H24A 3833   2.036   1.588   5.289  2.7538 -0.2262  0.6430
   36CHL1  H24B 3834   2.107   1.491   5.405  0.5752  1.2532 -0.3928
   36CHL1   C25 3835   1.901   1.425   5.358 -0.1016 -0.0720  1.0003
   36CHL1   H25 3836   1.885   1.368   5.453 -1.1866 -2.2293 -0.3770
   36CHL1   C26 3837   1.773   1.493   5.305  0.4281 -0.1829  0.1314
   36CHL1  H26A 3838   1.804   1.549   5.214  1.7114 -1.0057  0.0323
   36CHL1  H26B 3839   1.695   1.423   5.268  0.8345  0.7601 -2.8176
   36CHL1  H26C 3840   1.738   1.572   5.376  1.0815 -0.1771  0.4572
   36CHL1   C27 3841   1.949   1.311   5.262 -0.0253  0.0532  0.0264
   36CHL1  H27A 3842   1.953   1.349   5.158 -1.5469 -0.2379 -0.1561
   36CHL1  H27B 3843   2.042   1.260   5.295 -1.3199 -0.8842  2.4930
   36CHL1  H27C 3844   1.878   1.225   5.261  1.6116 -1.3503 -0.6268
   37CHL1    C3 3845   2.310   5.706   6.834 -0.1218  0.7259 -0.3445
   37CHL1    H3 3846   2.216   5.676   6.784  0.3399 -0.8995 -0.3197
   37CHL1    O3 3847   2.284   5.712   6.973 -0.5658  0.5711  0.3783
   37CHL1   H3' 3848   2.370   5.724   7.013 -0.3672 -1.0252  0.5202
   37CHL1    C4 3849   2.408   5.599   6.790 -0.5962 -0.3612  0.6027
   37CHL1   H4A 3850   2.511   5.623   6.826 -0.6256 -0.6947  0.9153
   37CHL1   H4B 3851   2.379   5.499   6.828  1.5529 -1.3878 -0.2649
   37CHL1    C5 3852   2.421   5.596   6.639 -0.5806  0.2600 -0.6794
   37CHL1    C6 3853   2.394   5.482   6.575  0.0770 -0.6856 -0.6679
   37CHL1    H6 3854   2.368   5.396   6.639  2.2915 -0.2790  0.9030
   37CHL1    C7 3855   2.390   5.472   6.428 -0.2308 -0.8457 -0.8378
   37CHL1   H7A 3856   2.425   5.370   6.398 -0.7167 -1.1043 -0.5421
   37CHL1   H7B 3857   2.286   5.472   6.389 -0.5515 -2.1012 -0.0627
   37CHL1    C8 3858   2.473   5.585   6.360  0.3301  0.5757 -0.0797
   37CHL1    H8 3859   2.582   5.568   6.373  0.3202 -1.4612 -1.9684
   37CHL1   C14 3860   2.445   5.584   6.214  0.1343  0.1347  0.3040
   37CHL1   H14 3861   2.334   5.590   6.207  0.0165 -2.2535 -0.6371
   37CHL1   C15 3862   2.461   5.461   6.120  0.4917 -0.4033 -0.3009
   37CHL1  H15A 3863   2.556   5.409   6.146 -0.0368 -0.5205  1.5031
   37CHL1  H15B 3864   2.369   5.400   6.132  0.1544  0.1025 -0.2923
   37CHL1   C16 3865   2.469   5.508   5.979 -0.1640  0.0414  0.1146
   37CHL1  H16A 3866   2.562   5.480   5.926 -1.5690  0.3071 -2.6193
   37CHL1  H16B 3867   2.388   5.482   5.909  1.1956  0.5500 -1.7274
   37CHL1   C17 3868   2.462   5.661   5.978 -0.5355 -0.1354 -0.4257
   37CHL1   H17 3869   2.357   5.694   5.975 -0.4050  0.2259 -1.3266
   37CHL1   C13 3870   2.512   5.697   6.123  0.1286 -0.0596 -0.8297
   37CHL1   C18 3871   2.658   5.679   6.136 -0.5869  0.4497 -0.0057
   37CHL1  H18A 3872   2.689   5.583   6.089 -1.0514  0.7288 -0.9076
   37CHL1  H18B 3873   2.715   5.753   6.077  1.4678 -1.8076 -1.0418
   37CHL1  H18C 3874   2.694   5.676   6.241  0.3301  3.0564 -0.1855
   37CHL1   C12 3875   2.469   5.829   6.188  0.7392 -0.3380 -0.3674
   37CHL1  H12A 3876   2.515   5.918   6.140 -0.5669 -0.3190 -1.6608
   37CHL1  H12B 3877   2.360   5.837   6.170  1.1341  0.3124 -2.9011
   37CHL1   C11 3878   2.501   5.837   6.339 -0.3286 -0.3162  0.9335
   37CHL1  H11A 3879   2.612   5.851   6.343 -0.3181  0.9878 -1.7343
   37CHL1  H11B 3880   2.468   5.939   6.369 -0.2778 -0.4376  1.4159
   37CHL1    C9 3881   2.431   5.721   6.419 -0.7545  0.4171  0.2792
   37CHL1    H9 3882   2.325   5.751   6.405 -0.9016  0.3957  1.2973
   37CHL1   C10 3883   2.455   5.727   6.573 -0.4580  0.3712 -0.3066
   37CHL1   C19 3884   2.604   5.743   6.597 -0.4603  0.2177  0.0235
   37CHL1  H19A 3885   2.666   5.668   6.543 -1.4421 -1.1353  0.7108
   37CHL1  H19B 3886   2.630   5.847   6.567 -0.5651  0.6621  1.4016
   37CHL1  H19C 3887   2.635   5.739   6.704  0.1785  0.1477 -0.1591
   37CHL1    C1 3888   2.372   5.852   6.633 -0.9474 -0.4317  0.1209
   37CHL1   H1A 3889   2.410   5.954   6.611  0.5736 -1.0667 -0.3456
   37CHL1   H1B 3890   2.265   5.852   6.602 -1.6253  1.4176  2.1977
   37CHL1    C2 3891   2.360   5.846   6.785  0.9487  0.5368 -0.0657
   37CHL1   H2A 3892   2.279   5.913   6.819  1.7996  1.8691 -0.6001
   37CHL1   H2B 3893   2.453   5.862   6.844  0.0801 -1.4809  2.0387
   37CHL1   C20 3894   2.532   5.727   5.855  0.2686  0.8404 -0.2293
   37CHL1   H20 3895   2.636   5.689   5.849  0.4957  1.2874  0.7200
   37CHL1   C21 3896   2.530   5.876   5.866  0.4184 -0.2796  0.2411
   37CHL1  H21A 3897   2.429   5.916   5.885  1.0679  1.4359  0.2648
   37CHL1  H21B 3898   2.573   5.922   5.774  3.3027 -0.0910  1.5842
   37CHL1  H21C 3899   2.593   5.918   5.947 -1.2392  4.4062 -0.5554
   37CHL1   C22 3900   2.459   5.672   5.723  0.0505  0.3877  0.7091
   37CHL1  H22A 3901   2.459   5.561   5.720  1.5274  0.3660  0.7041
   37CHL1  H22B 3902   2.359   5.719   5.710 -0.6171 -1.5228 -1.6503
   37CHL1   C23 3903   2.549   5.694   5.590  0.4159 -0.2186  0.6720
   37CHL1  H23A 3904   2.535   5.803   5.572 -1.9483 -0.5694  0.0477
   37CHL1  H23B 3905   2.657   5.682   5.614  1.6712  0.4442 -3.6864
   37CHL1   C24 3906   2.510   5.631   5.456  0.8572 -0.0816 -0.2994
   37CHL1  H24A 3907   2.408   5.664   5.429  0.6051 -0.0492  0.6319
   37CHL1  H24B 3908   2.575   5.670   5.375 -0.0978  0.2007 -0.9391
   37CHL1   C25 3909   2.512   5.473   5.446  0.5012 -0.2193  1.0830
   37CHL1   H25 3910   2.445   5.438   5.527  0.5949  0.6525  1.5525
   37CHL1   C26 3911   2.466   5.414   5.316  0.0970  0.1228  0.1314
   37CHL1  H26A 3912   2.466   5.303   5.313 -3.1188 -0.0131  1.0455
   37CHL1  H26B 3913   2.356   5.426   5.304  0.0984 -1.0065 -1.2399
   37CHL1  H26C 3914   2.523   5.456   5.231 -2.2910 -0.6723 -1.9809
   37CHL1   C27 3915   2.656   5.428   5.468 -0.0530  0.4366  0.3074
   37CHL1  H27A 3916   2.724   5.460   5.386  0.5770  0.5457  0.8643
   37CHL1  H27B 3917   2.704   5.463   5.562  0.1723 -1.4016  0.9173
   37CHL1  H27C 3918   2.673   5.318   5.461  0.3300  0.4638  0.7877
   38CHL1    C3 3919   4.271   6.334   6.830  0.2955 -0.0525 -0.0439
   38CHL1    H3 3920   4.316   6.235   6.854  0.9435 -0.1458 -1.5318
   38CHL1    O3 3921   4.206   6.386   6.946 -0.0545  0.7637 -0.2985
   38CHL1   H3' 3922   4.114   6.361   6.956  0.4308 -0.7485  0.6367
   38CHL1    C4 3923   4.380   6.435   6.792  0.2689  0.1693 -0.4173
   38CHL1   H4A 3924   4.335   6.537   6.784  0.7491  0.4053 -0.1498
   38CHL1   H4B 3925   4.451   6.443   6.878  1.4595 -0.2217 -1.3420
   38CHL1    C5 3926   4.441   6.395   6.660 -0.0676  0.2727 -0.1465
   38CHL1    C6 3927   4.573   6.377   6.656  0.3220  0.0904  0.0562
   38CHL1    H6 3928   4.630   6.400   6.748  0.8667  0.9666 -0.4785
   38CHL1    C7 3929   4.659   6.351   6.535  0.0394 -0.0886 -0.1433
   38CHL1   H7A 3930   4.751   6.413   6.528  0.1316  0.0512  1.8125
   38CHL1   H7B 3931   4.700   6.249   6.551  1.4605  0.2190 -1.5995
   38CHL1    C8 3932   4.576   6.350   6.409 -0.9263  0.3594  1.0548
   38CHL1    H8 3933   4.583   6.455   6.372  1.9257  0.1697  0.8143
   38CHL1   C14 3934   4.650   6.265   6.299  0.2089  0.0529  0.2286
   38CHL1   H14 3935   4.634   6.161   6.333 -4.1146 -0.7635 -3.2928
   38CHL1   C15 3936   4.800   6.295   6.279 -0.5145 -0.5732  0.2519
   38CHL1  H15A 3937   4.810   6.406   6.271 -0.4126 -0.6662 -1.2263
   38CHL1  H15B 3938   4.863   6.263   6.364  0.3396  0.7210  0.1485
   38CHL1   C16 3939   4.827   6.229   6.143 -0.2655 -1.1336  0.1357
   38CHL1  H16A 3940   4.877   6.310   6.086 -2.3407  0.7960  0.8907
   38CHL1  H16B 3941   4.889   6.137   6.150  2.6090  0.6361 -0.2260
   38CHL1   C17 3942   4.685   6.194   6.087  0.2797 -0.5172  0.5086
   38CHL1   H17 3943   4.662   6.093   6.125 -1.0593  0.8513  3.7002
   38CHL1   C13 3944   4.582   6.283   6.165 -0.4549 -0.1051  0.3733
   38CHL1   C18 3945   4.589   6.422   6.105 -0.3606 -0.2369  0.2696
   38CHL1  H18A 3946   4.528   6.441   6.015  3.0803  2.9735 -1.6304
   38CHL1  H18B 3947   4.550   6.491   6.182 -1.5464  0.2883 -0.7857
   38CHL1  H18C 3948   4.690   6.455   6.072 -0.7112  0.1787 -0.4095
   38CHL1   C12 3949   4.439   6.211   6.177  0.0881  0.1921 -0.4611
   38CHL1  H12A 3950   4.383   6.231   6.083 -1.0189  3.8089  0.8195
   38CHL1  H12B 3951   4.463   6.103   6.190  0.6620  0.4194  0.4517
   38CHL1   C11 3952   4.357   6.277   6.286 -0.0297 -0.4318 -0.1492
   38CHL1  H11A 3953   4.339   6.379   6.245  0.5185  0.7787  2.4132
   38CHL1  H11B 3954   4.256   6.232   6.284  0.2569 -1.0868 -1.8084
   38CHL1    C9 3955   4.433   6.299   6.420 -0.0128  0.5296 -0.0503
   38CHL1    H9 3956   4.456   6.198   6.461 -0.9979  0.8308  1.3182
   38CHL1   C10 3957   4.354   6.371   6.535  0.0274  1.0730 -0.7622
   38CHL1   C19 3958   4.297   6.494   6.477  0.5397  0.0412 -0.0449
   38CHL1  H19A 3959   4.364   6.544   6.404 -1.0336 -0.0622 -1.6087
   38CHL1  H19B 3960   4.215   6.465   6.408 -2.8810  0.5013  3.4730
   38CHL1  H19C 3961   4.254   6.568   6.548  2.0029 -0.1430  1.1000
   38CHL1    C1 3962   4.244   6.265   6.585 -0.2626 -0.9394 -0.1565
   38CHL1   H1A 3963   4.171   6.244   6.504  0.8185  0.5839 -1.5786
   38CHL1   H1B 3964   4.291   6.165   6.596 -3.1601 -2.3148  0.7929
   38CHL1    C2 3965   4.172   6.319   6.711  0.2422 -0.5341 -1.1645
   38CHL1   H2A 3966   4.107   6.234   6.743  0.7745 -0.6128 -0.2410
   38CHL1   H2B 3967   4.113   6.409   6.684 -0.9899 -0.4246  1.5985
   38CHL1   C20 3968   4.683   6.187   5.932  0.1033  0.8062  0.6991
   38CHL1   H20 3969   4.700   6.292   5.897 -2.2105  0.7958 -0.6965
   38CHL1   C21 3970   4.547   6.149   5.873  0.5606  0.7957 -1.1661
   38CHL1  H21A 3971   4.513   6.059   5.928  1.1367  1.6387  0.6324
   38CHL1  H21B 3972   4.543   6.134   5.763  0.5231  2.3193 -1.3973
   38CHL1  H21C 3973   4.479   6.237   5.883  0.7955  0.9048 -0.4413
   38CHL1   C22 3974   4.789   6.093   5.871  0.3711  0.2344 -0.2861
   38CHL1  H22A 3975   4.885   6.118   5.920  0.1673  1.9941 -0.6870
   38CHL1  H22B 3976   4.773   5.989   5.907 -0.5253  0.3821 -0.2171
   38CHL1   C23 3977   4.813   6.100   5.722  0.2008  0.2897 -0.0183
   38CHL1  H23A 3978   4.873   6.008   5.708  1.9796  1.3340  0.3851
   38CHL1  H23B 3979   4.726   6.077   5.658 -0.1434  1.2244  0.0985
   38CHL1   C24 3980   4.879   6.226   5.664 -0.8109 -0.4300 -0.1456
   38CHL1  H24A 3981   4.814   6.316   5.667  1.5161  1.3076  0.9632
   38CHL1  H24B 3982   4.967   6.243   5.728 -0.7133  1.2156 -0.6663
   38CHL1   C25 3983   4.935   6.198   5.522 -0.1517  0.5346 -0.9542
   38CHL1   H25 3984   5.018   6.124   5.524 -1.5010 -1.0079  0.0724
   38CHL1   C26 3985   4.825   6.139   5.434 -0.7569 -0.8138 -0.3000
   38CHL1  H26A 3986   4.732   6.198   5.447 -1.0171 -0.1482 -4.0922
   38CHL1  H26B 3987   4.852   6.147   5.326  0.5705 -0.7528  0.0253
   38CHL1  H26C 3988   4.823   6.029   5.452  2.3676 -0.7636  1.0687
   38CHL1   C27 3989   4.992   6.324   5.459 -0.8861  0.1199  0.6655
   38CHL1  H27A 3990   4.987   6.413   5.525  0.8228  1.0307 -0.3774
   38CHL1  H27B 3991   5.101   6.317   5.437 -1.3700  0.4569 -2.1409
   38CHL1  H27C 3992   4.953   6.334   5.356  5.6618  2.7176 -2.0788
   39CHL1    C3 3993   5.047   5.284   6.336  0.0167 -0.2533 -0.1508
   39CHL1    H3 3994   4.955   5.331   6.295  0.3231 -0.8175 -1.5216
   39CHL1    O3 3995   5.046   5.277   6.479  0.1889  0.1505 -0.3862
   39CHL1   H3' 3996   4.959   5.260   6.515  0.9648  0.4759  1.7831
   39CHL1    C4 3997   5.052   5.141   6.286  0.5481  0.1341 -0.6988
   39CHL1   H4A 3998   5.152   5.105   6.321  0.3618  0.2131 -0.0713
   39CHL1   H4B 3999   4.975   5.077   6.332 -2.7405  3.3551 -1.2498
   39CHL1    C5 4000   5.035   5.144   6.138 -0.3045 -0.5241 -0.0311
   39CHL1    C6 4001   4.942   5.089   6.063 -0.5293  0.1599 -0.8302
   39CHL1    H6 4002   4.860   5.034   6.111  0.4576 -0.0507  0.7143
   39CHL1    C7 4003   4.935   5.081   5.915 -0.3502 -0.1696  0.5651
   39CHL1   H7A 4004   4.905   4.983   5.872  2.5295 -0.8078 -0.2089
   39CHL1   H7B 4005   4.846   5.145   5.898  0.8707  1.3988 -0.2405
   39CHL1    C8 4006   5.066   5.119   5.848  0.0006 -0.1316  0.2531
   39CHL1    H8 4007   5.128   5.027   5.854  1.8514  0.9599 -1.0843
   39CHL1   C14 4008   5.039   5.151   5.701  0.5642  0.3102 -0.2186
   39CHL1   H14 4009   4.977   5.243   5.698  0.2543  0.0763 -1.2333
   39CHL1   C15 4010   4.960   5.046   5.624 -0.1279  0.3262 -0.2901
   39CHL1  H15A 4011   4.978   4.942   5.659 -1.9268  0.2304  0.4265
   39CHL1  H15B 4012   4.854   5.077   5.631  0.0770  1.0288 -0.2626
   39CHL1   C16 4013   5.004   5.066   5.475  0.8781  0.5623 -0.4062
   39CHL1  H16A 4014   5.055   4.977   5.432 -0.8451 -0.4794 -0.3846
   39CHL1  H16B 4015   4.916   5.100   5.416  1.5117 -1.5076 -2.7144
   39CHL1   C17 4016   5.106   5.187   5.480  0.4575 -1.3009  0.0057
   39CHL1   H17 4017   5.037   5.274   5.476 -0.2777 -1.9053 -1.8326
   39CHL1   C13 4018   5.168   5.187   5.619  0.7416  0.1359 -0.2159
   39CHL1   C18 4019   5.259   5.054   5.620  0.3458  0.4596  0.1763
   39CHL1  H18A 4020   5.346   5.071   5.553  0.0240  2.4798  0.1804
   39CHL1  H18B 4021   5.293   5.028   5.723  0.6034  0.1529  0.0165
   39CHL1  H18C 4022   5.210   4.964   5.580 -1.7624  1.7946 -0.3825
   39CHL1   C12 4023   5.232   5.308   5.683  0.3871  0.8976 -0.0894
   39CHL1  H12A 4024   5.324   5.345   5.632 -0.3859  0.9288 -1.5101
   39CHL1  H12B 4025   5.156   5.389   5.675 -4.4366 -3.0634  0.8086
   39CHL1   C11 4026   5.255   5.285   5.831  0.0893 -0.7899  0.0357
   39CHL1  H11A 4027   5.338   5.211   5.831 -1.4928 -2.6634  0.5601
   39CHL1  H11B 4028   5.288   5.380   5.880 -0.8486  0.0306 -0.8719
   39CHL1    C9 4029   5.130   5.244   5.914 -0.7636  0.0224 -0.2065
   39CHL1    H9 4030   5.044   5.312   5.902 -0.1685  0.9195  0.4128
   39CHL1   C10 4031   5.155   5.217   6.067  0.0390 -0.2914 -0.2256
   39CHL1   C19 4032   5.284   5.134   6.075 -0.0512 -0.0615 -0.2125
   39CHL1  H19A 4033   5.322   5.111   6.177  0.0250  2.9673  0.5326
   39CHL1  H19B 4034   5.270   5.041   6.016 -0.0248 -0.1598 -0.0630
   39CHL1  H19C 4035   5.371   5.191   6.035 -0.4291  0.9602  0.3838
   39CHL1    C1 4036   5.181   5.356   6.126 -0.1827 -0.0783  0.4021
   39CHL1   H1A 4037   5.287   5.386   6.110  0.6857 -2.1141  1.8239
   39CHL1   H1B 4038   5.124   5.438   6.079  2.0474  0.3352 -1.7655
   39CHL1    C2 4039   5.166   5.363   6.280 -0.3465 -0.4241 -0.0665
   39CHL1   H2A 4040   5.158   5.472   6.300 -1.4067 -0.1304 -1.8549
   39CHL1   H2B 4041   5.263   5.329   6.322  0.3117  0.2312 -1.0157
   39CHL1   C20 4042   5.197   5.201   5.352  0.2368 -0.1881 -0.3594
   39CHL1   H20 4043   5.270   5.117   5.357 -1.2293 -1.5054 -0.2088
   39CHL1   C21 4044   5.272   5.337   5.342  0.5514  0.0637 -0.6746
   39CHL1  H21A 4045   5.357   5.333   5.413 -1.3631 -1.9858  1.7104
   39CHL1  H21B 4046   5.216   5.428   5.374 -1.0073 -0.6171 -1.3473
   39CHL1  H21C 4047   5.305   5.359   5.238  0.9278  2.3501 -0.1177
   39CHL1   C22 4048   5.121   5.183   5.217  0.3824 -0.2388  0.1903
   39CHL1  H22A 4049   5.027   5.128   5.238  1.1244 -1.4107  0.5294
   39CHL1  H22B 4050   5.096   5.285   5.181  3.5182  1.1913  1.6997
   39CHL1   C23 4051   5.193   5.118   5.097 -0.4590  0.8844  1.0973
   39CHL1  H23A 4052   5.275   5.179   5.054  1.8513 -1.6337  1.6142
   39CHL1  H23B 4053   5.256   5.032   5.131 -1.0133 -0.5762 -1.2741
   39CHL1   C24 4054   5.099   5.075   4.982  0.5089  0.1266  0.4493
   39CHL1  H24A 4055   5.061   4.973   5.005 -3.8222  1.8560  1.8514
   39CHL1  H24B 4056   5.012   5.141   4.961  0.2973 -0.3878 -0.3615
   39CHL1   C25 4057   5.162   5.083   4.837  0.6571  0.4089  0.7275
   39CHL1   H25 4058   5.212   5.181   4.823 -1.0109  1.1648 -0.2071
   39CHL1   C26 4059   5.264   4.970   4.811 -0.3433  0.0417 -0.6327
   39CHL1  H26A 4060   5.352   4.966   4.880  2.5045  0.5019 -3.9451
   39CHL1  H26B 4061   5.210   4.873   4.815 -1.7385  0.8102 -0.3814
   39CHL1  H26C 4062   5.293   4.989   4.705  0.6741 -2.8446 -0.9554
   39CHL1   C27 4063   5.049   5.090   4.730 -0.8421 -0.2052  0.5455
   39CHL1  H27A 4064   4.957   5.032   4.754 -1.5992  0.7073 -0.0748
   39CHL1  H27B 4065   5.027   5.199   4.720  1.1498  0.2643  0.8313
   39CHL1  H27C 4066   5.085   5.061   4.630 -0.7183  0.0366  0.5189
   40CHL1    C3 4067   4.585   2.295   6.564  0.0564  0.0896  0.2014
   40CHL1    H3 4068   4.568   2.186   6.551  0.6778 -0.1201  1.0682
   40CHL1    O3 4069   4.537   2.326   6.686  0.1456  0.2573 -0.3170
   40CHL1   H3' 4070   4.474   2.397   6.677  0.9012  1.0269  0.2935
   40CHL1    C4 4071   4.734   2.333   6.542  0.0872  0.0354 -0.4968
   40CHL1   H4A 4072   4.752   2.443   6.546  0.4881 -0.0200 -0.6678
   40CHL1   H4B 4073   4.803   2.287   6.616 -0.2418  1.1438  0.5348
   40CHL1    C5 4074   4.766   2.295   6.395  0.2479 -0.1772  0.7249
   40CHL1    C6 4075   4.867   2.214   6.367 -0.3342 -0.1462  0.3400
   40CHL1    H6 4076   4.923   2.181   6.455 -1.1343 -2.5082  0.0598
   40CHL1    C7 4077   4.909   2.176   6.228  0.1298 -0.1901 -0.0874
   40CHL1   H7A 4078   5.019   2.189   6.217  0.0258  0.2696 -0.6708
   40CHL1   H7B 4079   4.881   2.070   6.209  0.3282 -0.2236 -0.1976
   40CHL1    C8 4080   4.840   2.271   6.123  0.3375 -0.4068  0.6730
   40CHL1    H8 4081   4.874   2.375   6.139 -1.4036 -0.0148  2.2246
   40CHL1   C14 4082   4.848   2.217   5.980 -0.6563 -0.2329 -0.7607
   40CHL1   H14 4083   4.791   2.122   5.987 -1.4603  0.1164 -2.2233
   40CHL1   C15 4084   4.999   2.185   5.934 -0.3800 -0.4153  0.5202
   40CHL1  H15A 4085   5.061   2.275   5.952 -1.2734 -0.1127  2.2579
   40CHL1  H15B 4086   5.039   2.092   5.980  1.1846  0.3313  0.7413
   40CHL1   C16 4087   4.985   2.183   5.777  0.3100 -0.1144 -0.2711
   40CHL1  H16A 4088   5.048   2.264   5.734 -1.8264  0.1561 -3.1939
   40CHL1  H16B 4089   5.020   2.084   5.742 -0.1409 -0.3531 -0.0511
   40CHL1   C17 4090   4.839   2.210   5.751 -0.9921  0.5174  0.4512
   40CHL1   H17 4091   4.790   2.111   5.756  2.8332 -1.4879  2.2981
   40CHL1   C13 4092   4.781   2.296   5.865 -0.2700  1.4955 -0.4779
   40CHL1   C18 4093   4.822   2.440   5.847  0.1377 -0.2471 -0.4938
   40CHL1  H18A 4094   4.784   2.495   5.935  2.5720 -1.1825  1.2400
   40CHL1  H18B 4095   4.931   2.453   5.828  0.2710 -1.1295 -0.3667
   40CHL1  H18C 4096   4.772   2.479   5.755 -0.6450 -0.4272 -0.1513
   40CHL1   C12 4097   4.631   2.268   5.897 -0.0529 -0.8007  0.5690
   40CHL1  H12A 4098   4.563   2.324   5.829  1.6068  1.5530  0.7182
   40CHL1  H12B 4099   4.602   2.161   5.895 -1.7789 -0.4024 -2.3998
   40CHL1   C11 4100   4.602   2.327   6.037 -0.1686 -0.1050  1.1834
   40CHL1  H11A 4101   4.617   2.437   6.032  3.2163 -0.4661  0.9453
   40CHL1  H11B 4102   4.495   2.308   6.061 -0.6561  3.0666  1.8806
   40CHL1    C9 4103   4.691   2.276   6.154  0.1661 -0.7290 -0.6033
   40CHL1    H9 4104   4.662   2.169   6.162  0.7626 -0.9949 -1.6603
   40CHL1   C10 4105   4.663   2.342   6.292 -0.2558  0.0963 -0.3422
   40CHL1   C19 4106   4.698   2.492   6.278  0.1108  0.2960  0.1723
   40CHL1  H19A 4107   4.673   2.550   6.369  0.7048  1.7459 -0.5646
   40CHL1  H19B 4108   4.804   2.516   6.257 -0.7327  2.9334 -1.5324
   40CHL1  H19C 4109   4.627   2.543   6.210 -0.4850  0.5655  0.9754
   40CHL1    C1 4110   4.517   2.323   6.332  0.5056 -0.1122 -0.1532
   40CHL1   H1A 4111   4.445   2.374   6.264  0.7668  2.4453  1.4024
   40CHL1   H1B 4112   4.500   2.213   6.326  1.6212 -0.4439  2.0153
   40CHL1    C2 4113   4.486   2.367   6.474  0.4453  0.6701 -0.2132
   40CHL1   H2A 4114   4.386   2.333   6.509  0.6772  0.9950  0.7847
   40CHL1   H2B 4115   4.488   2.478   6.486  1.1112  0.5382  0.9696
   40CHL1   C20 4116   4.821   2.254   5.606  0.7858  0.1947  0.2140
   40CHL1   H20 4117   4.891   2.338   5.586  1.0168 -0.3280 -1.2310
   40CHL1   C21 4118   4.670   2.285   5.582 -0.1688 -0.2989  0.2413
   40CHL1  H21A 4119   4.661   2.288   5.471  2.5529  0.8703 -0.0309
   40CHL1  H21B 4120   4.646   2.377   5.640  1.5713  1.1560 -1.2303
   40CHL1  H21C 4121   4.600   2.207   5.619  0.4542 -0.6974  0.6057
   40CHL1   C22 4122   4.866   2.139   5.512 -0.0921  0.2201  0.3048
   40CHL1  H22A 4123   4.959   2.092   5.550  0.6985  1.6833  0.2540
   40CHL1  H22B 4124   4.786   2.062   5.511 -1.5030  1.6149  0.6017
   40CHL1   C23 4125   4.894   2.191   5.368 -0.0930  0.7072  0.3626
   40CHL1  H23A 4126   4.830   2.275   5.334  0.0260 -0.6771 -3.8743
   40CHL1  H23B 4127   4.998   2.226   5.387 -0.6062  0.7680  3.6235
   40CHL1   C24 4128   4.885   2.084   5.260  0.3368  0.1573 -0.2807
   40CHL1  H24A 4129   4.945   1.993   5.281 -3.7466 -2.4890  0.9551
   40CHL1  H24B 4130   4.778   2.054   5.260  0.4893 -0.5099  1.9875
   40CHL1   C25 4131   4.936   2.145   5.126  0.1818 -0.2618  0.5158
   40CHL1   H25 4132   4.939   2.256   5.130  1.2142 -0.2857  0.5408
   40CHL1   C26 4133   5.086   2.100   5.098 -0.5783 -0.5584  0.0204
   40CHL1  H26A 4134   5.090   1.990   5.083  1.4757 -0.4724 -0.3743
   40CHL1  H26B 4135   5.130   2.157   5.014  2.0486 -1.0015  0.9866
   40CHL1  H26C 4136   5.155   2.123   5.183  1.5995 -0.2270 -1.7520
   40CHL1   C27 4137   4.855   2.096   5.007 -0.1642 -0.2804 -0.1112
   40CHL1  H27A 4138   4.748   2.091   5.034 -0.6242 -0.1905 -1.7926
   40CHL1  H27B 4139   4.858   2.180   4.934 -0.2829 -0.8788 -0.8150
   40CHL1  H27C 4140   4.892   2.002   4.960 -1.1391 -2.0830  2.5204
   41CHL1    C3 4141   2.176   3.223   6.400 -0.3292 -0.1398 -0.0229
   41CHL1    H3 4142   2.099   3.289   6.356 -0.3898 -1.3907 -1.8889
   41CHL1    O3 4143   2.194   3.252   6.536 -0.2090  0.4770 -0.1412
   41CHL1   H3' 4144   2.217   3.345   6.538  1.4679  0.0937 -0.3546
   41CHL1    C4 4145   2.131   3.077   6.384  0.2428  0.4209 -0.5603
   41CHL1   H4A 4146   2.198   3.011   6.444 -1.4980 -0.1705  0.8189
   41CHL1   H4B 4147   2.031   3.069   6.431  0.5665  1.7777  0.4346
   41CHL1    C5 4148   2.131   3.034   6.241  0.1639  0.1167 -0.5886
   41CHL1    C6 4149   2.024   2.978   6.183  0.1624 -0.3632  0.3022
   41CHL1    H6 4150   1.925   2.981   6.230 -0.6147  0.6453 -1.3160
   41CHL1    C7 4151   2.031   2.912   6.048  0.5473  0.2789  0.7357
   41CHL1   H7A 4152   1.971   2.819   6.045 -0.4418  0.8466  2.1593
   41CHL1   H7B 4153   1.992   2.989   5.978 -0.6468  2.0907  3.2600
   41CHL1    C8 4154   2.170   2.889   5.997 -0.0341 -0.5779 -0.5313
   41CHL1    H8 4155   2.212   2.799   6.046 -0.6459 -0.6544 -0.1339
   41CHL1   C14 4156   2.153   2.867   5.852  0.0596  0.4409 -0.2108
   41CHL1   H14 4157   2.114   2.962   5.811  0.3694  1.2564  1.3409
   41CHL1   C15 4158   2.049   2.753   5.815  0.7730 -0.9388 -0.5528
   41CHL1  H15A 4159   2.067   2.665   5.880  1.4494 -0.7568 -0.4816
   41CHL1  H15B 4160   1.943   2.785   5.814  1.0962  0.2016 -0.1606
   41CHL1   C16 4161   2.089   2.718   5.669  1.2326 -0.2076  0.5243
   41CHL1  H16A 4162   2.121   2.612   5.663 -0.7949 -0.9532  2.0249
   41CHL1  H16B 4163   2.007   2.725   5.596  1.0252 -1.4623  0.6111
   41CHL1   C17 4164   2.220   2.805   5.641  0.5398 -0.0436  0.5099
   41CHL1   H17 4165   2.181   2.897   5.594  2.6105 -0.0751 -1.4524
   41CHL1   C13 4166   2.284   2.844   5.778  0.0130 -0.6329  0.2175
   41CHL1   C18 4167   2.357   2.724   5.825 -0.0064 -0.0448 -0.1330
   41CHL1  H18A 4168   2.442   2.703   5.757 -0.9054  2.7730 -2.3187
   41CHL1  H18B 4169   2.403   2.740   5.925 -1.5635  2.6491  0.2621
   41CHL1  H18C 4170   2.281   2.643   5.826  0.5012 -0.5437  1.5889
   41CHL1   C12 4171   2.365   2.972   5.792  0.4357 -0.5180 -0.1271
   41CHL1  H12A 4172   2.465   2.969   5.744 -0.1631 -0.6099 -1.4094
   41CHL1  H12B 4173   2.309   3.050   5.737  2.0537  0.1661 -0.8603
   41CHL1   C11 4174   2.391   3.003   5.945 -0.1346  0.0944  0.1339
   41CHL1  H11A 4175   2.470   2.936   5.985 -0.7004 -0.3574  0.5082
   41CHL1  H11B 4176   2.435   3.105   5.960 -1.2479  0.8823 -1.6731
   41CHL1    C9 4177   2.255   3.011   6.017  0.2478 -0.2612  0.0101
   41CHL1    H9 4178   2.197   3.093   5.970 -1.2060 -1.8834 -1.1370
   41CHL1   C10 4179   2.269   3.045   6.169 -0.2347  0.2198  0.1182
   41CHL1   C19 4180   2.362   2.942   6.244 -0.5590  0.0894  1.3203
   41CHL1  H19A 4181   2.455   2.952   6.183 -2.2945 -2.5169 -2.0878
   41CHL1  H19B 4182   2.394   2.966   6.348  0.6349  2.9081  0.3778
   41CHL1  H19C 4183   2.319   2.839   6.243  0.3521 -0.3316  2.4588
   41CHL1    C1 4184   2.313   3.192   6.186 -0.0079 -0.1021 -0.0821
   41CHL1   H1A 4185   2.416   3.195   6.146 -0.5593 -2.5496 -2.0139
   41CHL1   H1B 4186   2.244   3.251   6.122 -1.3344 -1.1128  0.3525
   41CHL1    C2 4187   2.314   3.237   6.330 -0.3526  0.9496 -0.0935
   41CHL1   H2A 4188   2.348   3.342   6.346 -0.4644  0.5694  3.5417
   41CHL1   H2B 4189   2.392   3.179   6.384 -0.5317  0.2683 -0.5576
   41CHL1   C20 4190   2.309   2.729   5.534  0.8767 -0.6580 -0.1409
   41CHL1   H20 4191   2.328   2.629   5.579 -0.5286  0.3709  3.0415
   41CHL1   C21 4192   2.434   2.810   5.512  0.4590  0.2391  0.1073
   41CHL1  H21A 4193   2.411   2.901   5.452  2.7845 -0.6203 -2.2707
   41CHL1  H21B 4194   2.491   2.749   5.439 -2.5138  0.6303 -2.7454
   41CHL1  H21C 4195   2.492   2.832   5.604  0.4136  1.0727 -0.0536
   41CHL1   C22 4196   2.232   2.723   5.401  0.1861 -0.1549  0.2732
   41CHL1  H22A 4197   2.150   2.648   5.409 -0.4717  0.3599 -1.2370
   41CHL1  H22B 4198   2.186   2.823   5.383  0.8702  0.2362  0.6457
   41CHL1   C23 4199   2.302   2.687   5.267  0.0635 -0.3255 -0.3794
   41CHL1  H23A 4200   2.362   2.777   5.241 -0.4074 -0.3075 -1.4734
   41CHL1  H23B 4201   2.364   2.595   5.273 -0.3149 -0.8240 -2.9341
   41CHL1   C24 4202   2.193   2.674   5.155 -0.0656  0.2254 -0.5007
   41CHL1  H24A 4203   2.129   2.588   5.186  0.5355  0.7705  2.4933
   41CHL1  H24B 4204   2.133   2.767   5.146  0.6627  0.6767 -0.7254
   41CHL1   C25 4205   2.265   2.642   5.025 -0.2655 -1.0845  0.3490
   41CHL1   H25 4206   2.336   2.559   5.045  0.1654 -0.6425  0.6610
   41CHL1   C26 4207   2.169   2.590   4.916  0.5818 -0.0515  0.1246
   41CHL1  H26A 4208   2.122   2.491   4.937  0.6075 -0.3772 -1.2421
   41CHL1  H26B 4209   2.088   2.665   4.906  0.3241 -0.2137  0.9100
   41CHL1  H26C 4210   2.216   2.564   4.819 -1.6915 -1.6110 -0.6426
   41CHL1   C27 4211   2.349   2.762   4.973  0.7325 -0.1103 -0.4698
   41CHL1  H27A 4212   2.400   2.749   4.875  2.7655 -2.2199  0.7474
   41CHL1  H27B 4213   2.281   2.850   4.978 -3.1322 -2.6769 -2.9842
   41CHL1  H27C 4214   2.436   2.782   5.040 -0.3200  2.5407  0.2300
   42CHL1    C3 4215   6.579   4.618   6.811  0.2849 -1.3230  1.2741
   42CHL1    H3 4216   6.495   4.684   6.840  0.9129  0.2207 -0.2673
   42CHL1    O3 4217   6.650   4.600   6.926 -0.3599  1.2690 -0.3975
   42CHL1   H3' 4218   6.681   4.686   6.954 -0.7212  1.3558 -0.2659
   42CHL1    C4 4219   6.518   4.495   6.754  0.4376 -0.0568  0.7211
   42CHL1   H4A 4220   6.597   4.417   6.759  0.9091  0.3231 -0.3715
   42CHL1   H4B 4221   6.444   4.465   6.831  2.0894  0.7115  2.7056
   42CHL1    C5 4222   6.468   4.524   6.613 -0.0058  0.1932 -0.1239
   42CHL1    C6 4223   6.339   4.492   6.582 -0.7202 -0.7160 -1.0483
   42CHL1    H6 4224   6.280   4.441   6.660  0.1821 -0.0799  0.0834
   42CHL1    C7 4225   6.291   4.497   6.437 -0.5183  0.7889 -0.0914
   42CHL1   H7A 4226   6.238   4.404   6.407 -1.5401  0.6648  1.8828
   42CHL1   H7B 4227   6.222   4.583   6.421 -0.3603  1.4703  2.4079
   42CHL1    C8 4228   6.400   4.522   6.327 -0.7076  0.0874 -0.0831
   42CHL1    H8 4229   6.455   4.426   6.318 -2.7920 -1.6104  3.1258
   42CHL1   C14 4230   6.347   4.558   6.190 -0.0277  0.4480 -0.1124
   42CHL1   H14 4231   6.290   4.652   6.208  0.9488  1.4713 -1.9763
   42CHL1   C15 4232   6.242   4.461   6.131 -0.5778  0.0681 -0.5492
   42CHL1  H15A 4233   6.270   4.356   6.154  1.3762  0.6003 -0.2921
   42CHL1  H15B 4234   6.144   4.477   6.180  1.1024  2.6034  2.4053
   42CHL1   C16 4235   6.255   4.479   5.983  0.8882  0.4089 -0.0267
   42CHL1  H16A 4236   6.280   4.387   5.927 -1.9433  0.0239 -0.8340
   42CHL1  H16B 4237   6.161   4.514   5.934 -0.0471 -0.0908  1.3475
   42CHL1   C17 4238   6.364   4.590   5.958 -0.5748  0.4849 -0.1155
   42CHL1   H17 4239   6.312   4.688   5.956  0.3191  0.9768  0.3146
   42CHL1   C13 4240   6.450   4.579   6.082 -0.3311 -0.0673 -0.6909
   42CHL1   C18 4241   6.535   4.449   6.067 -0.5387 -0.1394 -0.4518
   42CHL1  H18A 4242   6.589   4.427   6.162 -1.9964  0.4637  0.5584
   42CHL1  H18B 4243   6.481   4.358   6.031 -0.3100 -1.0273  1.2954
   42CHL1  H18C 4244   6.616   4.460   5.992 -0.6306  0.9031 -0.4077
   42CHL1   C12 4245   6.527   4.704   6.129  0.1106 -0.1450 -0.2642
   42CHL1  H12A 4246   6.610   4.740   6.065  1.4087 -0.3229  1.2429
   42CHL1  H12B 4247   6.464   4.795   6.141  1.2677  0.6533 -0.0628
   42CHL1   C11 4248   6.593   4.679   6.263 -0.4336  0.2286 -0.0911
   42CHL1  H11A 4249   6.666   4.598   6.242 -1.1427  0.3198 -3.3780
   42CHL1  H11B 4250   6.640   4.772   6.302  0.9070 -0.1930 -0.6465
   42CHL1    C9 4251   6.498   4.626   6.369 -0.5496 -0.2706 -0.0894
   42CHL1    H9 4252   6.430   4.712   6.391 -0.0670 -0.2010  1.2552
   42CHL1   C10 4253   6.568   4.589   6.509  0.6921 -0.9152 -0.8924
   42CHL1   C19 4254   6.691   4.503   6.482  1.1239 -0.0144  0.6112
   42CHL1  H19A 4255   6.774   4.560   6.433  1.7357 -0.8245  0.6883
   42CHL1  H19B 4256   6.734   4.464   6.577 -0.9210 -0.9247  1.2186
   42CHL1  H19C 4257   6.659   4.419   6.418  0.3012  0.5197  0.3046
   42CHL1    C1 4258   6.611   4.722   6.585 -0.5502 -0.4444 -0.2924
   42CHL1   H1A 4259   6.693   4.772   6.529 -0.8048 -0.5065 -0.7281
   42CHL1   H1B 4260   6.526   4.790   6.605  0.0357  0.8086 -1.8365
   42CHL1    C2 4261   6.676   4.699   6.720 -0.0098 -0.3067  0.6947
   42CHL1   H2A 4262   6.694   4.792   6.779 -0.9668  0.9305 -0.8768
   42CHL1   H2B 4263   6.768   4.639   6.699 -1.2015 -1.7182 -0.7435
   42CHL1   C20 4264   6.433   4.588   5.819  0.3398 -0.0494 -0.2358
   42CHL1   H20 4265   6.466   4.482   5.815 -2.3163 -0.9168 -0.7998
   42CHL1   C21 4266   6.551   4.686   5.804 -0.3182  0.5779 -0.7068
   42CHL1  H21A 4267   6.629   4.647   5.873 -2.1934 -1.6317  0.3071
   42CHL1  H21B 4268   6.523   4.793   5.808 -1.8142  0.2254 -1.0215
   42CHL1  H21C 4269   6.592   4.663   5.703  0.5155  0.6552 -0.3935
   42CHL1   C22 4270   6.330   4.622   5.706  0.1286  0.5190  0.5488
   42CHL1  H22A 4271   6.241   4.557   5.718  0.8766 -0.3064  1.9946
   42CHL1  H22B 4272   6.308   4.729   5.726 -0.7989  0.7374 -1.4329
   42CHL1   C23 4273   6.379   4.590   5.572 -0.0778 -0.1671  0.3834
   42CHL1  H23A 4274   6.464   4.659   5.556  1.4871 -1.6506  1.8613
   42CHL1  H23B 4275   6.434   4.493   5.577 -0.9421 -0.8015 -1.4170
   42CHL1   C24 4276   6.284   4.597   5.458  0.8450  0.6962  0.6247
   42CHL1  H24A 4277   6.179   4.580   5.488  0.7974 -1.1632 -0.4697
   42CHL1  H24B 4278   6.301   4.698   5.414 -0.2797  0.4111 -0.5074
   42CHL1   C25 4279   6.303   4.487   5.344 -0.4178 -0.1717 -0.3688
   42CHL1   H25 4280   6.408   4.469   5.312 -0.3075  0.2173 -0.2396
   42CHL1   C26 4281   6.246   4.352   5.396 -0.4481  0.0228  0.3492
   42CHL1  H26A 4282   6.273   4.337   5.503 -0.8009  0.2298  0.4678
   42CHL1  H26B 4283   6.135   4.354   5.401 -0.4329 -0.6185  1.2557
   42CHL1  H26C 4284   6.282   4.254   5.358  1.1414  1.2621 -1.5532
   42CHL1   C27 4285   6.221   4.533   5.221  0.0504  0.6283 -0.4473
   42CHL1  H27A 4286   6.278   4.615   5.172  2.6673 -1.6698 -1.5313
   42CHL1  H27B 4287   6.215   4.457   5.140  1.5102  0.5443 -0.5037
   42CHL1  H27C 4288   6.120   4.565   5.254 -0.3780  0.2514 -1.3609
   43CHL1    C3 4289   0.973   0.889   6.781  0.0235  0.0915 -0.6194
   43CHL1    H3 4290   0.948   0.998   6.778 -0.3989  0.1335  2.1440
   43CHL1    O3 4291   0.990   0.876   6.915 -0.5152 -0.0659  0.0173
   43CHL1   H3' 4292   0.902   0.884   6.953 -1.5916 -0.2230 -2.3251
   43CHL1    C4 4293   0.858   0.805   6.731 -0.1347  0.1925 -0.0851
   43CHL1   H4A 4294   0.879   0.701   6.765 -2.7736 -0.5686 -0.5522
   43CHL1   H4B 4295   0.767   0.823   6.792  0.1518 -1.5122  0.9181
   43CHL1    C5 4296   0.842   0.805   6.582  0.3375  0.4956 -0.3760
   43CHL1    C6 4297   0.724   0.838   6.521  1.1503 -0.3492 -0.1427
   43CHL1    H6 4298   0.648   0.887   6.584  0.4833 -0.5197 -0.8055
   43CHL1    C7 4299   0.701   0.820   6.372  0.2539 -0.1983  0.5106
   43CHL1   H7A 4300   0.602   0.768   6.370  0.3357 -0.3457 -0.9317
   43CHL1   H7B 4301   0.687   0.911   6.310  0.1273 -1.1482 -0.9060
   43CHL1    C8 4302   0.817   0.733   6.307  0.0072  0.0844  0.5040
   43CHL1    H8 4303   0.809   0.629   6.344 -1.4011  0.2051  0.6057
   43CHL1   C14 4304   0.801   0.740   6.154  0.6508  0.4642  0.8933
   43CHL1   H14 4305   0.807   0.847   6.122 -0.7793  0.3448  0.1667
   43CHL1   C15 4306   0.661   0.704   6.097 -1.0070 -0.0460 -0.2637
   43CHL1  H15A 4307   0.628   0.606   6.138  0.9917 -0.2531  0.9394
   43CHL1  H15B 4308   0.587   0.787   6.105 -0.0735  0.7329  0.4572
   43CHL1   C16 4309   0.702   0.682   5.952  0.7560  0.4365 -0.1169
   43CHL1  H16A 4310   0.655   0.591   5.910 -0.0857  1.1835 -0.8521
   43CHL1  H16B 4311   0.668   0.771   5.895  1.7634  1.3359  0.6403
   43CHL1   C17 4312   0.853   0.673   5.932 -0.6457  0.8695 -0.1964
   43CHL1   H17 4313   0.895   0.773   5.909  0.6369  0.6612  1.0279
   43CHL1   C13 4314   0.910   0.660   6.076  0.2318 -0.2395  0.4927
   43CHL1   C18 4315   0.901   0.515   6.117 -0.0446 -0.8382 -0.1565
   43CHL1  H18A 4316   0.939   0.500   6.220 -0.5010  0.4356  0.2051
   43CHL1  H18B 4317   0.799   0.470   6.111 -1.4061  1.9978  0.3245
   43CHL1  H18C 4318   0.960   0.448   6.051  0.1955 -0.4195 -0.3714
   43CHL1   C12 4319   1.040   0.726   6.114 -0.3036 -0.3897  0.1973
   43CHL1  H12A 4320   1.131   0.680   6.070  0.7125  1.8445 -0.1606
   43CHL1  H12B 4321   1.038   0.829   6.073  2.1918 -0.8099 -1.1801
   43CHL1   C11 4322   1.073   0.722   6.268  0.2753 -0.5813  0.3195
   43CHL1  H11A 4323   1.086   0.615   6.294  1.5712 -0.0464  1.9982
   43CHL1  H11B 4324   1.162   0.784   6.290 -0.6895  0.9040  0.2254
   43CHL1    C9 4325   0.954   0.783   6.356  0.0664 -0.2554  1.0399
   43CHL1    H9 4326   0.956   0.892   6.334 -0.2664 -0.7007 -1.4682
   43CHL1   C10 4327   0.966   0.763   6.509  0.5388 -0.1546  0.5361
   43CHL1   C19 4328   1.010   0.615   6.541 -0.1623  0.0378 -0.8160
   43CHL1  H19A 4329   1.023   0.606   6.651 -0.6615 -1.8480 -0.8732
   43CHL1  H19B 4330   0.941   0.538   6.500  1.6442 -1.5310 -1.0185
   43CHL1  H19C 4331   1.114   0.592   6.510  0.9417  1.6688  1.3670
   43CHL1    C1 4332   1.084   0.853   6.556 -0.2628 -0.0481  0.0781
   43CHL1   H1A 4333   1.173   0.799   6.518 -1.2199 -2.8120  1.4570
   43CHL1   H1B 4334   1.071   0.957   6.519  1.6395  0.3046  0.3099
   43CHL1    C2 4335   1.104   0.870   6.711  0.6208  0.7622  0.1588
   43CHL1   H2A 4336   1.180   0.948   6.732  0.7548  0.3050  1.4326
   43CHL1   H2B 4337   1.131   0.769   6.747  1.6110  1.3984  1.2427
   43CHL1   C20 4338   0.896   0.567   5.817 -0.2587  0.2607  0.6018
   43CHL1   H20 4339   0.865   0.465   5.846  0.2807 -0.4309 -1.1207
   43CHL1   C21 4340   1.051   0.577   5.819  0.4024 -0.2894  0.9326
   43CHL1  H21A 4341   1.082   0.681   5.797  0.6446 -0.0765  2.1814
   43CHL1  H21B 4342   1.100   0.496   5.760 -1.4874 -1.0354  0.2946
   43CHL1  H21C 4343   1.084   0.550   5.922 -0.0184 -2.6901  0.4932
   43CHL1   C22 4344   0.830   0.592   5.677  0.1102  0.0747 -0.2004
   43CHL1  H22A 4345   0.720   0.587   5.692  0.2101  2.1166  1.7824
   43CHL1  H22B 4346   0.854   0.695   5.642 -1.2770  0.2100 -0.8086
   43CHL1   C23 4347   0.866   0.494   5.570  0.0387 -0.1233 -0.2438
   43CHL1  H23A 4348   0.974   0.470   5.573 -0.1328 -0.9231 -0.2794
   43CHL1  H23B 4349   0.808   0.402   5.592 -1.4782  1.6146  4.0270
   43CHL1   C24 4350   0.821   0.542   5.430  0.3018  0.1841  0.8741
   43CHL1  H24A 4351   0.711   0.560   5.436 -0.5599 -4.1430  1.4677
   43CHL1  H24B 4352   0.854   0.642   5.395 -1.4343  0.3233 -0.5013
   43CHL1   C25 4353   0.849   0.442   5.318 -0.0273 -0.5688  0.5945
   43CHL1   H25 4354   0.953   0.404   5.321 -0.3757 -1.6282 -0.1017
   43CHL1   C26 4355   0.765   0.311   5.330 -0.5623  0.7209  0.3849
   43CHL1  H26A 4356   0.787   0.257   5.424 -1.2370  0.5127  0.4309
   43CHL1  H26B 4357   0.656   0.328   5.313 -0.4634 -0.2527 -1.5245
   43CHL1  H26C 4358   0.789   0.243   5.245  0.2462  0.0895  1.0973
   43CHL1   C27 4359   0.812   0.500   5.181 -0.2570  0.2562 -0.5726
   43CHL1  H27A 4360   0.708   0.537   5.168 -0.2897  0.4155  0.1371
   43CHL1  H27B 4361   0.875   0.587   5.152 -0.9995  0.8620 -0.3924
   43CHL1  H27C 4362   0.823   0.418   5.106  2.2953 -2.4899  2.4939
   44CHL1    C3 4363   1.562   2.262   6.448  0.1897  0.0605 -0.0528
   44CHL1    H3 4364   1.671   2.264   6.429  0.0939 -1.5961 -0.9485
   44CHL1    O3 4365   1.542   2.304   6.581 -0.8771 -0.8987 -0.2636
   44CHL1   H3' 4366   1.544   2.223   6.632  0.1655 -0.1973  0.8595
   44CHL1    C4 4367   1.483   2.356   6.355  0.9108  0.3481 -0.0348
   44CHL1   H4A 4368   1.379   2.370   6.391  0.3160 -0.2499 -1.4656
   44CHL1   H4B 4369   1.530   2.456   6.368  1.3871 -0.0743  1.9367
   44CHL1    C5 4370   1.495   2.306   6.211  0.3728 -0.0185 -0.0861
   44CHL1    C6 4371   1.534   2.398   6.111  0.2830  0.1920 -0.8124
   44CHL1    H6 4372   1.540   2.504   6.141 -1.9068  0.5013 -1.3015
   44CHL1    C7 4373   1.538   2.363   5.961  0.3288  0.7793 -0.3946
   44CHL1   H7A 4374   1.502   2.449   5.900 -0.4395  0.3173 -0.6060
   44CHL1   H7B 4375   1.646   2.344   5.940  0.4452 -1.6361  1.8216
   44CHL1    C8 4376   1.472   2.222   5.925 -0.4620 -0.0208 -0.5002
   44CHL1    H8 4377   1.364   2.244   5.914 -0.7479 -0.2462  1.4384
   44CHL1   C14 4378   1.525   2.163   5.793 -0.7841  0.1580 -0.6094
   44CHL1   H14 4379   1.631   2.136   5.811 -0.6265 -0.2291 -2.0287
   44CHL1   C15 4380   1.523   2.257   5.674  0.1299  0.0708  0.0348
   44CHL1  H15A 4381   1.417   2.287   5.657 -0.7723 -2.5627  0.6326
   44CHL1  H15B 4382   1.585   2.349   5.674 -1.6618  1.3343  0.1362
   44CHL1   C16 4383   1.560   2.167   5.555 -0.0664  0.1213 -0.0157
   44CHL1  H16A 4384   1.478   2.194   5.485 -0.4407  4.2471  1.6932
   44CHL1  H16B 4385   1.660   2.186   5.512  0.0624 -1.5025 -0.5180
   44CHL1   C17 4386   1.537   2.017   5.604  0.2672  0.4460 -0.9070
   44CHL1   H17 4387   1.639   1.985   5.636 -0.9546 -3.2131 -0.2325
   44CHL1   C13 4388   1.464   2.033   5.742  0.8935  0.5841  0.2790
   44CHL1   C18 4389   1.306   2.039   5.719 -0.4070  0.0288 -0.2768
   44CHL1  H18A 4390   1.254   2.100   5.795 -0.9577 -0.2416 -0.4304
   44CHL1  H18B 4391   1.288   2.097   5.626 -0.7588 -0.1793 -0.3381
   44CHL1  H18C 4392   1.266   1.937   5.703 -0.5927  0.3654 -2.2123
   44CHL1   C12 4393   1.492   1.929   5.857 -1.1756 -0.1165  0.1996
   44CHL1  H12A 4394   1.442   1.832   5.835 -2.2728  0.9132 -2.2623
   44CHL1  H12B 4395   1.601   1.909   5.863 -0.8830  1.3175  0.0950
   44CHL1   C11 4396   1.446   1.975   6.002 -0.6727 -0.1425  0.3416
   44CHL1  H11A 4397   1.335   1.979   6.003 -0.7403 -1.3416  1.9273
   44CHL1  H11B 4398   1.481   1.910   6.084 -0.4207 -0.5294 -0.0675
   44CHL1    C9 4399   1.505   2.117   6.033 -0.1002  0.8998 -0.0721
   44CHL1    H9 4400   1.616   2.110   6.036 -0.1673 -1.1211 -0.8409
   44CHL1   C10 4401   1.468   2.156   6.185 -0.1449 -0.4159  0.5440
   44CHL1   C19 4402   1.317   2.140   6.205 -0.3533  0.0389  0.0138
   44CHL1  H19A 4403   1.281   2.194   6.295 -3.0530 -0.9823 -0.3393
   44CHL1  H19B 4404   1.267   2.174   6.112  0.4709  0.9027 -0.1303
   44CHL1  H19C 4405   1.294   2.031   6.211  0.3272 -0.1068  0.0496
   44CHL1    C1 4406   1.534   2.061   6.287  0.1221  0.0224 -0.2797
   44CHL1   H1A 4407   1.483   1.962   6.282  0.3688 -0.1859  0.8843
   44CHL1   H1B 4408   1.642   2.046   6.266  0.1399  0.1776 -0.2995
   44CHL1    C2 4409   1.516   2.116   6.432 -0.2735 -0.0458  0.0692
   44CHL1   H2A 4410   1.553   2.047   6.511 -0.7708  0.2892  0.6095
   44CHL1   H2B 4411   1.406   2.115   6.447 -0.2170 -0.5456  0.4817
   44CHL1   C20 4412   1.495   1.926   5.490  0.2017 -0.3363 -0.2614
   44CHL1   H20 4413   1.402   1.971   5.449 -0.6227 -1.1028  0.6838
   44CHL1   C21 4414   1.466   1.790   5.549 -0.4244 -0.3403  0.2489
   44CHL1  H21A 4415   1.405   1.727   5.481  0.0845 -2.4472  1.6536
   44CHL1  H21B 4416   1.408   1.807   5.642 -0.9659 -0.3618 -0.0792
   44CHL1  H21C 4417   1.554   1.728   5.574 -0.7196 -0.8376  0.0663
   44CHL1   C22 4418   1.594   1.922   5.363  0.7848  0.6283 -0.2214
   44CHL1  H22A 4419   1.637   2.023   5.344  1.8250 -0.0409 -1.5878
   44CHL1  H22B 4420   1.678   1.853   5.386 -1.0192 -1.1383  1.3743
   44CHL1   C23 4421   1.523   1.848   5.242  0.2783  0.5205 -0.2538
   44CHL1  H23A 4422   1.519   1.742   5.274  0.4686  0.6843  0.3375
   44CHL1  H23B 4423   1.423   1.892   5.225 -0.2005 -2.0545 -7.6490
   44CHL1   C24 4424   1.594   1.850   5.109  0.2084 -0.3569  0.4216
   44CHL1  H24A 4425   1.626   1.953   5.084  2.2478 -1.3127 -1.1941
   44CHL1  H24B 4426   1.686   1.787   5.112  0.0453 -0.7113 -1.0133
   44CHL1   C25 4427   1.512   1.797   4.986 -0.4059  0.1146 -0.0322
   44CHL1   H25 4428   1.416   1.853   4.980  0.3162  1.5976  1.2456
   44CHL1   C26 4429   1.599   1.817   4.862 -0.3223 -0.5973  0.1121
   44CHL1  H26A 4430   1.699   1.772   4.876 -0.1297  0.1906  1.4707
   44CHL1  H26B 4431   1.552   1.786   4.766  1.5575  0.9469 -1.4121
   44CHL1  H26C 4432   1.610   1.926   4.843 -0.2392 -0.7367 -0.7022
   44CHL1   C27 4433   1.481   1.647   5.004 -0.1817 -0.0092 -0.8651
   44CHL1  H27A 4434   1.579   1.595   5.017  0.3471  1.1408 -0.0376
   44CHL1  H27B 4435   1.431   1.630   5.101  1.3908 -0.1294 -0.0498
   44CHL1  H27C 4436   1.423   1.599   4.922 -0.7510 -0.4062 -0.2360
   45CHL1    C3 4437   2.445   2.188   6.331  0.1637 -0.3638 -0.7713
   45CHL1    H3 4438   2.419   2.081   6.311 -1.5192 -0.3100  0.8940
   45CHL1    O3 4439   2.467   2.205   6.472  0.0533  0.0036 -0.0551
   45CHL1   H3' 4440   2.463   2.300   6.485 -3.5441  0.1111 -1.0442
   45CHL1    C4 4441   2.587   2.219   6.263  1.3377  0.2335 -0.5202
   45CHL1   H4A 4442   2.613   2.326   6.280 -0.7807  0.5922  0.8647
   45CHL1   H4B 4443   2.660   2.148   6.307  0.3094  0.5282  1.7682
   45CHL1    C5 4444   2.574   2.212   6.108  0.5329  0.8637  0.4439
   45CHL1    C6 4445   2.659   2.132   6.042 -0.6336  0.1374  0.0091
   45CHL1    H6 4446   2.748   2.092   6.093 -0.9603  0.7503  1.0888
   45CHL1    C7 4447   2.662   2.127   5.892 -0.3844  0.5138  0.0862
   45CHL1   H7A 4448   2.766   2.155   5.864 -0.5009  1.4553  0.5706
   45CHL1   H7B 4449   2.646   2.030   5.841 -2.1654 -0.6918  2.7325
   45CHL1    C8 4450   2.568   2.232   5.826 -0.3763 -0.3057 -0.2239
   45CHL1    H8 4451   2.624   2.327   5.832  0.3585 -0.6602 -1.2611
   45CHL1   C14 4452   2.543   2.193   5.682 -0.7198 -0.4489 -0.6911
   45CHL1   H14 4453   2.481   2.101   5.691  1.8461 -2.1633  0.8619
   45CHL1   C15 4454   2.674   2.152   5.603 -0.0688  0.1548 -0.9013
   45CHL1  H15A 4455   2.763   2.216   5.625 -0.6177  0.9143 -0.8432
   45CHL1  H15B 4456   2.703   2.047   5.624  1.7049  1.1759  2.6040
   45CHL1   C16 4457   2.619   2.156   5.459 -1.0804  0.1577  0.8183
   45CHL1  H16A 4458   2.696   2.214   5.404 -0.4777  0.9829  2.4838
   45CHL1  H16B 4459   2.629   2.052   5.420  1.6197  0.8421 -0.5716
   45CHL1   C17 4460   2.476   2.213   5.459 -0.0199  0.1516  0.9687
   45CHL1   H17 4461   2.397   2.136   5.466 -0.7105  0.5994 -1.0283
   45CHL1   C13 4462   2.468   2.287   5.590 -0.6691 -0.2467 -0.1026
   45CHL1   C18 4463   2.539   2.421   5.581  0.0363  0.0157 -0.4736
   45CHL1  H18A 4464   2.639   2.418   5.534 -0.2850  0.4011 -1.1935
   45CHL1  H18B 4465   2.477   2.494   5.525  0.2987  1.4696  1.0601
   45CHL1  H18C 4466   2.555   2.472   5.678  2.1639 -0.0582 -0.7414
   45CHL1   C12 4467   2.329   2.311   5.662  0.3188  0.0898  0.5671
   45CHL1  H12A 4468   2.276   2.391   5.606 -0.6725 -1.0615 -0.2026
   45CHL1  H12B 4469   2.277   2.213   5.649 -3.1502  1.6611  1.2688
   45CHL1   C11 4470   2.342   2.340   5.816  0.0831 -0.2032 -0.2970
   45CHL1  H11A 4471   2.402   2.434   5.814  1.7895 -1.2452 -2.6966
   45CHL1  H11B 4472   2.241   2.360   5.858 -0.0657  0.0075 -0.7474
   45CHL1    C9 4473   2.433   2.242   5.896  0.2950 -0.0407 -0.7815
   45CHL1    H9 4474   2.395   2.138   5.884 -0.9920  0.6186 -3.2654
   45CHL1   C10 4475   2.452   2.286   6.047 -0.1729 -0.2647  0.3473
   45CHL1   C19 4476   2.483   2.435   6.045  0.1877  0.2457 -1.0802
   45CHL1  H19A 4477   2.402   2.509   6.030  1.1455  1.4332 -0.5370
   45CHL1  H19B 4478   2.536   2.460   6.139  0.3612 -0.3411 -1.0152
   45CHL1  H19C 4479   2.556   2.458   5.964 -0.2890 -1.0419 -1.9048
   45CHL1    C1 4480   2.314   2.260   6.125  0.2103 -0.4841 -0.0988
   45CHL1   H1A 4481   2.236   2.334   6.095  0.7395 -0.2686 -0.9999
   45CHL1   H1B 4482   2.282   2.154   6.116 -0.1926 -0.4254  0.5981
   45CHL1    C2 4483   2.331   2.274   6.281 -0.5338 -0.0950 -0.8202
   45CHL1   H2A 4484   2.240   2.261   6.343 -1.1876 -0.7388 -1.8813
   45CHL1   H2B 4485   2.347   2.382   6.300 -1.8323 -0.2923  1.8440
   45CHL1   C20 4486   2.444   2.284   5.333 -0.4481  0.1955  0.3104
   45CHL1   H20 4487   2.509   2.373   5.323 -0.3168  0.0154 -0.5140
   45CHL1   C21 4488   2.303   2.334   5.336 -0.1319 -0.0328 -0.0043
   45CHL1  H21A 4489   2.239   2.252   5.376  0.1762 -0.5411 -0.5387
   45CHL1  H21B 4490   2.271   2.365   5.234 -0.2396  0.3985  0.1602
   45CHL1  H21C 4491   2.284   2.421   5.402  0.7561 -1.0939  1.7275
   45CHL1   C22 4492   2.466   2.199   5.202  0.6679  0.0091 -0.2527
   45CHL1  H22A 4493   2.571   2.162   5.205  1.3597  1.8899 -0.1501
   45CHL1  H22B 4494   2.400   2.110   5.214 -1.1926  0.7206 -3.9868
   45CHL1   C23 4495   2.425   2.254   5.065 -0.4347 -0.0709  0.3412
   45CHL1  H23A 4496   2.316   2.235   5.065 -0.1612 -2.1521 -1.9489
   45CHL1  H23B 4497   2.464   2.358   5.063  2.3814 -1.0340 -1.6295
   45CHL1   C24 4498   2.490   2.172   4.955 -0.0306 -0.1468  0.1721
   45CHL1  H24A 4499   2.597   2.147   4.973 -0.1216 -1.2213 -0.6639
   45CHL1  H24B 4500   2.435   2.075   4.947 -1.9452  0.9605 -0.7029
   45CHL1   C25 4501   2.446   2.238   4.820  0.1155  0.9066  0.2981
   45CHL1   H25 4502   2.483   2.343   4.817  1.1494  0.5648  0.4121
   45CHL1   C26 4503   2.517   2.163   4.709 -0.1649  0.0548 -0.2805
   45CHL1  H26A 4504   2.508   2.212   4.610  1.9167  0.1720 -0.4628
   45CHL1  H26B 4505   2.626   2.152   4.727 -0.1032 -0.1051 -0.7469
   45CHL1  H26C 4506   2.488   2.057   4.700  0.0099  0.0482 -0.7888
   45CHL1   C27 4507   2.290   2.244   4.790  0.7134  0.0875  0.3566
   45CHL1  H27A 4508   2.232   2.296   4.869  1.9479 -1.5545  2.4251
   45CHL1  H27B 4509   2.272   2.296   4.693 -0.8917  0.3295  0.7650
   45CHL1  H27C 4510   2.246   2.143   4.773 -1.5448  1.1821 -0.7319
   46CHL1    C3 4511   3.196   4.330   6.906  0.0593  0.4724  0.1450
   46CHL1    H3 4512   3.224   4.437   6.903 -0.5031  0.6018 -1.9517
   46CHL1    O3 4513   3.189   4.287   7.042  0.1492 -0.2959  0.2852
   46CHL1   H3' 4514   3.144   4.359   7.086  0.8306  0.4174 -0.1745
   46CHL1    C4 4515   3.069   4.301   6.826 -0.1827  0.0241  0.2458
   46CHL1   H4A 4516   3.042   4.194   6.834 -0.9493  0.1314 -0.7368
   46CHL1   H4B 4517   2.995   4.368   6.873  3.1041  3.7804  0.6212
   46CHL1    C5 4518   3.081   4.322   6.678  0.1743  0.1823  0.6550
   46CHL1    C6 4519   3.005   4.419   6.619  0.6876  0.0490  0.4172
   46CHL1    H6 4520   2.934   4.478   6.679 -0.1173 -0.5503  0.0673
   46CHL1    C7 4521   3.016   4.446   6.470 -0.3101 -0.6753 -0.4703
   46CHL1   H7A 4522   2.917   4.435   6.421  0.2569 -0.8340 -1.6180
   46CHL1   H7B 4523   3.049   4.549   6.448 -2.5741  0.3637  0.6622
   46CHL1    C8 4524   3.103   4.341   6.387  0.7248 -0.0974  0.7415
   46CHL1    H8 4525   3.044   4.247   6.388  0.8072 -0.1997 -1.2044
   46CHL1   C14 4526   3.125   4.379   6.248  0.4624  0.0285  0.2575
   46CHL1   H14 4527   3.184   4.473   6.258 -2.8931  2.3086  0.2604
   46CHL1   C15 4528   3.000   4.427   6.166  0.3412  0.3597  0.0277
   46CHL1  H15A 4529   2.919   4.350   6.158  0.6695 -0.0301  0.4243
   46CHL1  H15B 4530   2.964   4.518   6.217  1.9548 -0.3253  2.5502
   46CHL1   C16 4531   3.066   4.441   6.031  0.6097 -0.1699 -0.1664
   46CHL1  H16A 4532   3.008   4.384   5.956  0.7675  2.0272 -2.0537
   46CHL1  H16B 4533   3.078   4.543   5.989 -1.6280  0.0089 -0.4681
   46CHL1   C17 4534   3.216   4.386   6.028  1.2454 -0.4031 -0.2599
   46CHL1   H17 4535   3.279   4.471   6.060 -0.3919  0.1539  1.6629
   46CHL1   C13 4536   3.213   4.295   6.156 -1.3814  0.3000 -0.6138
   46CHL1   C18 4537   3.141   4.161   6.128 -0.7083 -0.2446 -0.6910
   46CHL1  H18A 4538   3.112   4.111   6.223 -0.1445  1.6151  0.5053
   46CHL1  H18B 4539   3.046   4.181   6.074 -0.5759 -0.8077 -1.1342
   46CHL1  H18C 4540   3.204   4.103   6.057 -2.7354  0.4488 -3.2029
   46CHL1   C12 4541   3.348   4.266   6.233  0.0831  0.7969 -0.3902
   46CHL1  H12A 4542   3.395   4.189   6.168 -0.3379  0.1818  0.0231
   46CHL1  H12B 4543   3.402   4.362   6.244  1.0986  0.2999 -0.9173
   46CHL1   C11 4544   3.326   4.201   6.378 -0.3993 -0.2221  1.1986
   46CHL1  H11A 4545   3.293   4.095   6.369  1.6458 -0.8900  0.9991
   46CHL1  H11B 4546   3.431   4.196   6.414 -0.6489 -1.1078  1.8463
   46CHL1    C9 4547   3.235   4.298   6.459  0.2612  0.2851 -0.2019
   46CHL1    H9 4548   3.294   4.393   6.465  1.1237 -0.1622 -1.2814
   46CHL1   C10 4549   3.207   4.254   6.605  0.0593  0.5410 -0.4135
   46CHL1   C19 4550   3.166   4.106   6.608  0.2234  0.1610  0.0556
   46CHL1  H19A 4551   3.245   4.034   6.576 -1.7502 -2.9478  1.6989
   46CHL1  H19B 4552   3.136   4.068   6.708 -1.7141 -1.9261 -1.2201
   46CHL1  H19C 4553   3.087   4.087   6.532 -0.3572  1.7839  0.2227
   46CHL1    C1 4554   3.335   4.273   6.687  0.4454  0.2855  0.6130
   46CHL1   H1A 4555   3.410   4.206   6.638 -0.1204 -0.2055  0.4133
   46CHL1   H1B 4556   3.383   4.372   6.675 -1.7404  1.2376 -0.6462
   46CHL1    C2 4557   3.313   4.253   6.838 -0.3073  0.1231  0.1377
   46CHL1   H2A 4558   3.402   4.288   6.894 -0.6952  0.0419  0.8211
   46CHL1   H2B 4559   3.286   4.146   6.853 -1.4178  0.3245 -0.3381
   46CHL1   C20 4560   3.262   4.335   5.891  0.4504  0.5238 -0.2342
   46CHL1   H20 4561   3.213   4.235   5.890  0.5712  0.3340  2.6719
   46CHL1   C21 4562   3.420   4.316   5.890  0.9427  0.6246 -0.0999
   46CHL1  H21A 4563   3.453   4.418   5.916  1.5352  0.1182  1.2210
   46CHL1  H21B 4564   3.448   4.269   5.793 -2.1866 -1.7229 -0.0561
   46CHL1  H21C 4565   3.439   4.244   5.973 -0.6588  0.7257  0.3882
   46CHL1   C22 4566   3.227   4.423   5.763 -0.3380 -0.6420 -0.6602
   46CHL1  H22A 4567   3.140   4.483   5.794  1.1007  1.2033  0.0021
   46CHL1  H22B 4568   3.309   4.498   5.754 -1.8170  1.2892  1.1652
   46CHL1   C23 4569   3.213   4.350   5.630 -0.5863 -0.5618  0.4953
   46CHL1  H23A 4570   3.298   4.282   5.605 -0.1467 -0.4765  1.6736
   46CHL1  H23B 4571   3.119   4.291   5.635 -1.5582  0.8988  0.0922
   46CHL1   C24 4572   3.221   4.450   5.513  0.6752 -0.0040  0.6731
   46CHL1  H24A 4573   3.125   4.507   5.524  0.0095 -0.9509 -0.1077
   46CHL1  H24B 4574   3.300   4.526   5.533 -0.1609  0.5849  1.9777
   46CHL1   C25 4575   3.228   4.376   5.380 -0.0671 -0.0716 -0.4327
   46CHL1   H25 4576   3.324   4.323   5.364 -0.1634  0.2626 -2.5031
   46CHL1   C26 4577   3.104   4.289   5.355 -0.2124  0.4774 -0.5746
   46CHL1  H26A 4578   3.016   4.346   5.391 -0.0454  1.6351 -1.9342
   46CHL1  H26B 4579   3.104   4.266   5.246  0.7360 -2.8770  0.0059
   46CHL1  H26C 4580   3.104   4.192   5.409 -3.6038  0.7325  0.1118
   46CHL1   C27 4581   3.238   4.480   5.259  0.9312 -0.1068 -0.0152
   46CHL1  H27A 4582   3.314   4.549   5.300 -0.9423  1.4572  0.9590
   46CHL1  H27B 4583   3.276   4.436   5.164  0.6790 -0.0171 -0.1609
   46CHL1  H27C 4584   3.142   4.537   5.256  1.8594  1.4901 -0.2841
   47CHL1    C3 4585   4.034   3.982   6.920  0.9130 -0.5304 -0.2341
   47CHL1    H3 4586   4.132   3.945   6.884  0.8704  0.6329 -1.6192
   47CHL1    O3 4587   4.048   3.978   7.064 -0.2195 -0.3173  0.6401
   47CHL1   H3' 4588   3.964   4.008   7.101 -1.6544  0.3295 -2.7081
   47CHL1    C4 4589   3.999   4.130   6.881  0.0976  0.0116 -0.3400
   47CHL1   H4A 4590   3.901   4.169   6.914 -0.1680  1.0127 -2.1823
   47CHL1   H4B 4591   4.081   4.195   6.918 -1.5885  2.4717 -0.7012
   47CHL1    C5 4592   3.993   4.128   6.729  0.2053 -0.4822 -0.0266
   47CHL1    C6 4593   4.093   4.191   6.662 -0.4544  0.1082  0.7187
   47CHL1    H6 4594   4.172   4.255   6.705 -0.6541  2.3877 -2.0422
   47CHL1    C7 4595   4.087   4.216   6.510 -0.1510 -0.6542 -0.5240
   47CHL1   H7A 4596   4.116   4.318   6.478  1.0561 -0.8424 -0.1021
   47CHL1   H7B 4597   4.159   4.147   6.461  0.7672  0.4900 -0.8347
   47CHL1    C8 4598   3.953   4.180   6.454  0.7139 -0.0694 -0.4627
   47CHL1    H8 4599   3.873   4.248   6.491 -0.9980 -1.6247 -1.1740
   47CHL1   C14 4600   3.964   4.174   6.298  0.1324  0.0604 -0.9597
   47CHL1   H14 4601   4.027   4.085   6.276  0.4174  0.0227 -0.0220
   47CHL1   C15 4602   4.021   4.291   6.213  0.9270 -0.0218  0.6008
   47CHL1  H15A 4603   3.977   4.392   6.228 -1.0586 -0.4131 -1.8440
   47CHL1  H15B 4604   4.128   4.299   6.243  1.0208 -0.3922  0.3798
   47CHL1   C16 4605   3.984   4.254   6.072 -0.2806  0.3362 -0.0937
   47CHL1  H16A 4606   3.930   4.333   6.016 -0.9571 -0.7326 -0.9999
   47CHL1  H16B 4607   4.074   4.224   6.013 -1.2769  0.5783 -1.8191
   47CHL1   C17 4608   3.878   4.132   6.082 -0.7989 -0.1568  0.4266
   47CHL1   H17 4609   3.935   4.038   6.070 -1.7626 -0.5150 -1.7675
   47CHL1   C13 4610   3.830   4.135   6.231  0.3304  0.0733 -0.3142
   47CHL1   C18 4611   3.717   4.243   6.239 -0.3519 -0.0712  0.7792
   47CHL1  H18A 4612   3.621   4.208   6.197  1.0951 -0.1264 -2.7842
   47CHL1  H18B 4613   3.682   4.271   6.341 -1.7525  0.2403  0.2391
   47CHL1  H18C 4614   3.739   4.332   6.176  0.2023 -1.8577 -1.6547
   47CHL1   C12 4615   3.783   3.998   6.278  0.0952 -0.6313  0.4122
   47CHL1  H12A 4616   3.689   3.971   6.225 -0.7266  2.1618  0.2718
   47CHL1  H12B 4617   3.860   3.923   6.251 -0.1412 -0.0030 -2.3458
   47CHL1   C11 4618   3.774   4.007   6.430 -0.1027 -0.1249  0.0462
   47CHL1  H11A 4619   3.690   4.075   6.455 -0.9969 -0.3851 -1.9984
   47CHL1  H11B 4620   3.731   3.911   6.468  0.4136 -0.4470 -0.1723
   47CHL1    C9 4621   3.902   4.050   6.512  0.0486 -0.0436 -0.7342
   47CHL1    H9 4622   3.970   3.966   6.487 -0.0091 -0.0518 -0.8588
   47CHL1   C10 4623   3.888   4.051   6.661 -0.2613  0.1170 -0.9417
   47CHL1   C19 4624   3.753   4.124   6.693  0.1953 -0.3166 -0.4428
   47CHL1  H19A 4625   3.672   4.053   6.666  0.3360 -0.4936 -0.3980
   47CHL1  H19B 4626   3.742   4.150   6.801 -3.1001 -1.1342 -0.4757
   47CHL1  H19C 4627   3.736   4.226   6.651 -0.9287 -0.6225 -0.7705
   47CHL1    C1 4628   3.897   3.908   6.721  0.7117 -0.0281 -0.2856
   47CHL1   H1A 4629   3.796   3.870   6.692  0.7656 -1.2539  1.0276
   47CHL1   H1B 4630   3.976   3.843   6.680 -0.9528 -2.0788 -0.4174
   47CHL1    C2 4631   3.910   3.900   6.873 -0.4619 -0.3098 -0.3150
   47CHL1   H2A 4632   3.918   3.793   6.904  0.6065  0.0472  0.7311
   47CHL1   H2B 4633   3.817   3.945   6.915  0.7085  1.0959  0.9060
   47CHL1   C20 4634   3.774   4.142   5.969  0.3274 -0.0809  0.0823
   47CHL1   H20 4635   3.722   4.239   5.982 -2.5532 -1.2169 -1.8733
   47CHL1   C21 4636   3.666   4.038   5.974 -0.5144  0.0359  0.0449
   47CHL1  H21A 4637   3.621   4.033   5.872  0.8946  1.5352 -0.7048
   47CHL1  H21B 4638   3.587   4.058   6.049  0.0551  1.9096  0.1912
   47CHL1  H21C 4639   3.702   3.935   5.994  2.9949  1.0636 -0.3260
   47CHL1   C22 4640   3.841   4.159   5.833 -0.0769  0.0858  0.7402
   47CHL1  H22A 4641   3.756   4.171   5.763 -1.1099 -0.3031  1.9002
   47CHL1  H22B 4642   3.909   4.247   5.829  3.9738 -2.7396 -3.6201
   47CHL1   C23 4643   3.935   4.048   5.781 -0.6227 -0.0846 -0.7132
   47CHL1  H23A 4644   4.024   4.043   5.846 -0.3836  0.2759 -1.0079
   47CHL1  H23B 4645   3.885   3.949   5.788  1.3918 -1.1071  0.0600
   47CHL1   C24 4646   3.969   4.066   5.634  0.6632 -0.7870  0.3153
   47CHL1  H24A 4647   3.889   4.117   5.577  2.1175  0.5941 -0.5826
   47CHL1  H24B 4648   4.053   4.138   5.628 -0.9665  1.3745  1.8261
   47CHL1   C25 4649   4.007   3.936   5.556  0.7025 -0.6004  0.7210
   47CHL1   H25 4650   3.933   3.857   5.580  0.9877 -0.1352  3.4768
   47CHL1   C26 4651   4.017   3.955   5.399 -0.0283  0.0969 -0.0297
   47CHL1  H26A 4652   3.916   3.962   5.353 -0.4089 -1.5974  0.4821
   47CHL1  H26B 4653   4.073   4.050   5.382  0.4306 -0.2880 -0.7122
   47CHL1  H26C 4654   4.067   3.870   5.348 -0.8752  0.6625 -1.9185
   47CHL1   C27 4655   4.148   3.888   5.603  0.4898  0.4170 -0.4183
   47CHL1  H27A 4656   4.145   3.868   5.713 -0.8095 -0.1416 -0.5421
   47CHL1  H27B 4657   4.172   3.800   5.540 -3.0802 -1.1856  0.2246
   47CHL1  H27C 4658   4.235   3.958   5.598  0.3647  0.5349 -0.9638
   48CHL1    C3 4659   1.164   3.997   6.371 -0.2715 -0.5790  0.5014
   48CHL1    H3 4660   1.209   3.895   6.366  0.7332 -0.1576  0.7273
   48CHL1    O3 4661   1.171   4.036   6.505  0.0676  0.2244  0.7128
   48CHL1   H3' 4662   1.122   4.119   6.510 -1.1944 -0.4502 -0.0277
   48CHL1    C4 4663   1.247   4.100   6.293  0.0300  0.3744  0.6414
   48CHL1   H4A 4664   1.193   4.197   6.305 -1.5821 -0.4253  0.1865
   48CHL1   H4B 4665   1.344   4.099   6.346 -0.4098  0.3552  1.4773
   48CHL1    C5 4666   1.255   4.070   6.147 -0.0564 -1.0001 -0.2378
   48CHL1    C6 4667   1.369   4.067   6.070 -0.2786  0.9086 -0.6222
   48CHL1    H6 4668   1.466   4.086   6.118 -2.3363  2.7901  3.2489
   48CHL1    C7 4669   1.382   4.051   5.921  0.7730 -0.0656 -0.9716
   48CHL1   H7A 4670   1.436   4.138   5.876  0.8922  1.6358  2.1903
   48CHL1   H7B 4671   1.436   3.955   5.902 -1.7716 -1.7877  0.0600
   48CHL1    C8 4672   1.247   4.045   5.850  0.6510  0.1283 -0.4302
   48CHL1    H8 4673   1.224   4.153   5.840  1.7634  0.2797 -1.5219
   48CHL1   C14 4674   1.254   3.977   5.718  0.1009 -0.6893 -0.0713
   48CHL1   H14 4675   1.267   3.867   5.733 -0.2780 -1.0030 -1.8541
   48CHL1   C15 4676   1.365   4.034   5.622  0.1953 -0.1151 -0.1577
   48CHL1  H15A 4677   1.370   4.144   5.630 -2.0778 -0.0151  0.5719
   48CHL1  H15B 4678   1.459   3.983   5.650  0.1365 -0.6149 -0.8293
   48CHL1   C16 4679   1.314   3.999   5.487 -0.2555  1.1832  0.2664
   48CHL1  H16A 4680   1.291   4.095   5.436  0.9925  1.8867  0.9977
   48CHL1  H16B 4681   1.383   3.929   5.435  0.7785  2.5258 -0.2299
   48CHL1   C17 4682   1.172   3.932   5.503 -0.4285 -0.2935  0.3021
   48CHL1   H17 4683   1.199   3.824   5.509  1.8963 -0.0008 -2.7035
   48CHL1   C13 4684   1.125   3.985   5.643  0.4809  0.3030 -0.2693
   48CHL1   C18 4685   1.067   4.127   5.624 -0.2790 -0.5137  0.0790
   48CHL1  H18A 4686   1.144   4.177   5.562 -1.2600 -1.1100 -1.6769
   48CHL1  H18B 4687   0.973   4.129   5.565 -0.7573  2.1107  0.7980
   48CHL1  H18C 4688   1.057   4.165   5.728  1.9751 -0.3512  0.2928
   48CHL1   C12 4689   1.028   3.897   5.723  0.0482 -0.2118  0.4354
   48CHL1  H12A 4690   0.929   3.897   5.673  0.5456 -0.0575 -0.5906
   48CHL1  H12B 4691   1.066   3.793   5.729  0.4962 -0.1803 -1.3683
   48CHL1   C11 4692   1.004   3.952   5.861 -0.3349 -0.0405 -0.2698
   48CHL1  H11A 4693   0.943   4.044   5.858  1.7720  1.4159 -0.5544
   48CHL1  H11B 4694   0.951   3.877   5.924  0.4750 -1.0716 -0.7774
   48CHL1    C9 4695   1.137   3.977   5.939 -0.9188 -0.6229  0.0405
   48CHL1    H9 4696   1.173   3.873   5.955  1.1486  0.1244  0.5192
   48CHL1   C10 4697   1.117   4.047   6.075  0.1470  0.1578  0.0266
   48CHL1   C19 4698   1.046   4.189   6.049  0.4645  0.3075 -0.1357
   48CHL1  H19A 4699   0.940   4.176   6.019 -0.5588  2.6560  2.0247
   48CHL1  H19B 4700   1.037   4.254   6.139  0.3247  2.5639 -1.6933
   48CHL1  H19C 4701   1.090   4.249   5.966  1.7764 -0.6814 -0.1965
   48CHL1    C1 4702   1.021   3.959   6.164 -0.6325  0.0266 -0.0123
   48CHL1   H1A 4703   0.914   3.959   6.135 -2.0053  2.5480  4.1428
   48CHL1   H1B 4704   1.064   3.858   6.152 -1.8697 -0.3288 -1.6780
   48CHL1    C2 4705   1.023   3.985   6.319 -0.2312  0.2657  0.3241
   48CHL1   H2A 4706   0.965   3.906   6.371  0.0558  0.2529  0.6236
   48CHL1   H2B 4707   0.978   4.083   6.347  1.1632  0.9272  0.3724
   48CHL1   C20 4708   1.082   3.948   5.389  0.6380  0.3557  0.2208
   48CHL1   H20 4709   1.058   4.056   5.381  0.9724  0.5432  1.5400
   48CHL1   C21 4710   0.959   3.864   5.397  0.8129  0.0390 -0.2307
   48CHL1  H21A 4711   0.882   3.876   5.317 -2.3853  1.1148  2.7397
   48CHL1  H21B 4712   0.983   3.759   5.421  0.6752  0.0278 -0.1431
   48CHL1  H21C 4713   0.897   3.908   5.478  1.6894  1.7522 -0.4390
   48CHL1   C22 4714   1.161   3.916   5.258 -0.0473 -0.6054 -0.0038
   48CHL1  H22A 4715   1.222   4.009   5.250  1.6818 -1.3862  2.8590
   48CHL1  H22B 4716   1.227   3.828   5.268  1.4360  0.4711  0.0595
   48CHL1   C23 4717   1.072   3.911   5.134  0.4907 -0.4117 -0.0165
   48CHL1  H23A 4718   1.005   3.822   5.128 -2.2349  1.3487  2.0671
   48CHL1  H23B 4719   0.999   3.994   5.125  0.0595 -0.8199 -0.3996
   48CHL1   C24 4720   1.153   3.911   5.001 -0.0883 -0.6974 -0.3274
   48CHL1  H24A 4721   1.209   4.008   4.998  0.0105 -0.6766  1.3174
   48CHL1  H24B 4722   1.219   3.822   5.004 -2.0479 -2.1832  0.1603
   48CHL1   C25 4723   1.073   3.912   4.868  0.0785 -0.2033 -0.8406
   48CHL1   H25 4724   0.983   3.846   4.864 -1.3352  1.5840  0.1817
   48CHL1   C26 4725   1.018   4.055   4.842 -0.1818 -0.6061  0.2382
   48CHL1  H26A 4726   1.104   4.125   4.838 -1.6689  1.3011  0.2295
   48CHL1  H26B 4727   0.962   4.063   4.747 -0.5757  0.9450  0.5770
   48CHL1  H26C 4728   0.959   4.098   4.925 -0.4325 -0.5866  0.0518
   48CHL1   C27 4729   1.162   3.862   4.758 -0.3134 -0.2094  1.0183
   48CHL1  H27A 4730   1.168   3.751   4.757 -0.8002 -0.2355  0.2193
   48CHL1  H27B 4731   1.135   3.890   4.654 -0.2332 -0.0504  1.0400
   48CHL1  H27C 4732   1.265   3.903   4.763  0.2060 -1.3914  0.4522
   49CHL1    C3 4733   0.208   3.157   3.261  0.2070 -0.8465 -0.0826
   49CHL1    H3 4734   0.137   3.241   3.279  0.5550 -0.6704  0.4919
   49CHL1    O3 4735   0.248   3.145   3.123  0.0924 -0.2799  0.3300
   49CHL1   H3' 4736   0.170   3.132   3.068  1.4897 -1.2245 -1.5366
   49CHL1    C4 4737   0.327   3.195   3.353 -0.2386  0.1230  0.0302
   49CHL1   H4A 4738   0.402   3.116   3.331  0.3476 -0.0992  2.5968
   49CHL1   H4B 4739   0.360   3.292   3.310 -0.2726 -0.7782 -2.1855
   49CHL1    C5 4740   0.290   3.202   3.501 -0.5936 -0.4169  0.1634
   49CHL1    C6 4741   0.317   3.309   3.579 -0.3820  0.0709  0.1743
   49CHL1    H6 4742   0.359   3.393   3.522  1.1427 -1.9877 -1.8721
   49CHL1    C7 4743   0.274   3.325   3.720  0.0575 -0.1069 -0.8082
   49CHL1   H7A 4744   0.358   3.371   3.776  0.9661  0.6451 -2.6842
   49CHL1   H7B 4745   0.189   3.396   3.728  1.1022  1.1526 -0.5092
   49CHL1    C8 4746   0.224   3.192   3.781 -0.7789 -0.0388 -0.0836
   49CHL1    H8 4747   0.314   3.134   3.809 -0.6967 -0.0187 -0.3065
   49CHL1   C14 4748   0.144   3.211   3.910  0.8954 -0.4998  0.2824
   49CHL1   H14 4749   0.047   3.257   3.880 -0.1196 -2.4910  0.3984
   49CHL1   C15 4750   0.195   3.305   4.014 -0.2358  0.1950  0.3022
   49CHL1  H15A 4751   0.296   3.265   4.035 -0.1802  0.2766  0.1864
   49CHL1  H15B 4752   0.188   3.415   4.000 -2.3128  0.0793  0.0381
   49CHL1   C16 4753   0.105   3.277   4.135 -0.4673  0.3836 -0.8056
   49CHL1  H16A 4754   0.164   3.243   4.222  0.4559 -1.1659 -1.9935
   49CHL1  H16B 4755   0.045   3.366   4.166  0.3504  0.3913  0.8549
   49CHL1   C17 4756   0.013   3.149   4.098 -0.8296 -0.3319  0.0435
   49CHL1   H17 4757  -0.081   3.199   4.066 -0.3090  0.4001 -0.3611
   49CHL1   C13 4758   0.086   3.088   3.979  0.0351 -0.6143 -0.1398
   49CHL1   C18 4759   0.200   2.996   4.030  0.2377 -0.3396 -0.5441
   49CHL1  H18A 4760   0.147   2.918   4.089 -0.8788  0.7136 -0.1141
   49CHL1  H18B 4761   0.261   2.940   3.956 -2.3725 -3.7775 -0.3750
   49CHL1  H18C 4762   0.279   3.051   4.085  1.8882 -1.0443 -2.1258
   49CHL1   C12 4763   0.003   3.019   3.877  0.0742  0.6143  0.3615
   49CHL1  H12A 4764  -0.043   2.922   3.906  0.5349  0.2184 -0.2240
   49CHL1  H12B 4765  -0.073   3.096   3.854 -1.7060 -1.3804 -0.8594
   49CHL1   C11 4766   0.079   2.991   3.742  0.1148 -0.0734 -0.2796
   49CHL1  H11A 4767   0.155   2.912   3.761  1.2837  0.7928 -1.2435
   49CHL1  H11B 4768   0.010   2.935   3.675  1.6731 -0.4386 -1.6474
   49CHL1    C9 4769   0.141   3.118   3.680  0.3890  0.1542  0.1292
   49CHL1    H9 4770   0.057   3.182   3.645  1.6085  1.6738 -0.1215
   49CHL1   C10 4771   0.214   3.077   3.545  0.0261 -0.2222 -0.0802
   49CHL1   C19 4772   0.319   2.965   3.570  0.4227 -0.2112 -0.8400
   49CHL1  H19A 4773   0.379   2.997   3.658 -0.2351  0.8411 -0.7582
   49CHL1  H19B 4774   0.260   2.874   3.592  0.1334  0.1711 -0.0159
   49CHL1  H19C 4775   0.388   2.939   3.486  1.2189 -1.1093  0.0701
   49CHL1    C1 4776   0.104   3.037   3.441 -0.0084  0.3424  0.1448
   49CHL1   H1A 4777   0.075   2.940   3.486 -0.7906  0.8807  0.8158
   49CHL1   H1B 4778   0.014   3.101   3.450 -0.9834 -0.7257 -1.4337
   49CHL1    C2 4779   0.152   3.024   3.302 -0.4686  0.6470 -0.2483
   49CHL1   H2A 4780   0.067   3.001   3.234  0.9085 -0.8398 -1.5444
   49CHL1   H2B 4781   0.224   2.939   3.300  0.0274  1.0304  0.7551
   49CHL1   C20 4782  -0.037   3.073   4.224  0.0993 -0.2063  1.3933
   49CHL1   H20 4783   0.058   3.039   4.269  2.4898 -1.2615 -3.6881
   49CHL1   C21 4784  -0.128   2.956   4.176 -0.2803  0.0138 -0.6565
   49CHL1  H21A 4785  -0.179   2.918   4.268 -0.1496 -1.0660 -1.0212
   49CHL1  H21B 4786  -0.066   2.882   4.122  1.7835 -0.3610  2.0027
   49CHL1  H21C 4787  -0.210   2.996   4.113 -2.4054 -1.4483  1.0396
   49CHL1   C22 4788  -0.115   3.170   4.325  0.1961 -0.7743 -0.1811
   49CHL1  H22A 4789  -0.044   3.254   4.340  0.7581 -1.1072 -0.8918
   49CHL1  H22B 4790  -0.211   3.209   4.284  0.4644  2.0713  1.6311
   49CHL1   C23 4791  -0.143   3.106   4.459 -0.7782 -0.2430 -0.1186
   49CHL1  H23A 4792  -0.185   3.003   4.453 -1.3534 -0.2373  2.4269
   49CHL1  H23B 4793  -0.049   3.095   4.517 -0.3160  0.8008 -0.6622
   49CHL1   C24 4794  -0.240   3.202   4.537  0.1477  0.0064  1.1081
   49CHL1  H24A 4795  -0.189   3.299   4.558 -2.4769  1.3456  1.7269
   49CHL1  H24B 4796  -0.324   3.228   4.470  1.4471 -0.2898 -0.7291
   49CHL1   C25 4797  -0.295   3.127   4.663  0.7254  0.0263  0.2499
   49CHL1   H25 4798  -0.338   3.029   4.635  0.8747 -0.0409  0.2560
   49CHL1   C26 4799  -0.191   3.107   4.780 -0.5862 -0.3845 -0.3452
   49CHL1  H26A 4800  -0.170   3.204   4.829 -0.5569 -0.7614  0.3986
   49CHL1  H26B 4801  -0.244   3.052   4.860 -1.3620  0.8787  0.0265
   49CHL1  H26C 4802  -0.098   3.062   4.739  0.8812 -2.5562  4.5812
   49CHL1   C27 4803  -0.421   3.202   4.705  0.2277  0.6397 -0.4195
   49CHL1  H27A 4804  -0.502   3.197   4.629 -0.3297  0.7300  0.1594
   49CHL1  H27B 4805  -0.457   3.156   4.799  1.2144 -1.1209 -0.8613
   49CHL1  H27C 4806  -0.398   3.309   4.722  1.0941  0.5520 -0.9651
   50CHL1    C3 4807   3.613   0.145   3.291 -0.0914  0.3926 -0.2219
   50CHL1    H3 4808   3.602   0.039   3.323 -0.3822 -0.0435 -1.7029
   50CHL1    O3 4809   3.601   0.157   3.152 -0.4575  0.0871 -0.2547
   50CHL1   H3' 4810   3.573   0.249   3.147 -2.9687 -0.6199 -0.5029
   50CHL1    C4 4811   3.504   0.231   3.354 -0.2552 -0.3183 -0.1821
   50CHL1   H4A 4812   3.492   0.331   3.308  4.0786  0.7226  0.4572
   50CHL1   H4B 4813   3.407   0.185   3.327 -0.2242  0.2126 -1.2709
   50CHL1    C5 4814   3.523   0.248   3.504  0.5826  0.5339 -0.0653
   50CHL1    C6 4815   3.424   0.208   3.584  0.2266 -0.0572 -0.4043
   50CHL1    H6 4816   3.335   0.156   3.546  0.4443 -0.4368 -0.3946
   50CHL1    C7 4817   3.410   0.232   3.733  0.3563  0.7541  0.1295
   50CHL1   H7A 4818   3.316   0.281   3.768  0.1877  0.4707  0.0757
   50CHL1   H7B 4819   3.420   0.133   3.782 -2.0953 -0.9553 -2.5433
   50CHL1    C8 4820   3.528   0.336   3.776  0.5195  0.7161 -0.1094
   50CHL1    H8 4821   3.487   0.434   3.745 -1.0188 -0.2514 -1.2846
   50CHL1   C14 4822   3.547   0.337   3.928  0.0486 -0.2855 -0.0410
   50CHL1   H14 4823   3.603   0.241   3.929  1.1040  0.2721 -1.8630
   50CHL1   C15 4824   3.421   0.323   4.018 -0.1061  0.4983 -0.2988
   50CHL1  H15A 4825   3.341   0.397   3.994  0.5150  1.5113  0.7069
   50CHL1  H15B 4826   3.392   0.216   4.026  0.8303  0.4011  2.7209
   50CHL1   C16 4827   3.484   0.364   4.161  0.1910  0.4650  0.2208
   50CHL1  H16A 4828   3.420   0.449   4.192  0.8951  1.0134  0.1675
   50CHL1  H16B 4829   3.482   0.289   4.243  0.3114  0.9925  0.7102
   50CHL1   C17 4830   3.631   0.400   4.133  0.1050  0.5399 -0.1660
   50CHL1   H17 4831   3.674   0.299   4.116 -3.9135 -0.9000 -3.7062
   50CHL1   C13 4832   3.632   0.440   3.986 -0.6789  1.3880 -0.2551
   50CHL1   C18 4833   3.561   0.576   3.972 -0.0539  0.1061 -0.1174
   50CHL1  H18A 4834   3.460   0.574   4.018 -1.3792 -1.1110 -2.8605
   50CHL1  H18B 4835   3.621   0.662   4.007 -2.2091  1.4619  0.4265
   50CHL1  H18C 4836   3.547   0.595   3.864 -0.9605 -0.5315 -0.1295
   50CHL1   C12 4837   3.772   0.443   3.915 -0.0594  0.0847  0.3318
   50CHL1  H12A 4838   3.829   0.537   3.927  0.6406  0.1901 -2.8936
   50CHL1  H12B 4839   3.829   0.367   3.973  0.7605  0.5554  0.1557
   50CHL1   C11 4840   3.761   0.426   3.765  0.5868 -0.2518  0.3968
   50CHL1  H11A 4841   3.762   0.524   3.714  3.9151 -0.5099 -0.2230
   50CHL1  H11B 4842   3.861   0.387   3.736  1.0731  0.1551  1.4693
   50CHL1    C9 4843   3.663   0.323   3.708 -0.1029  0.4334 -0.0383
   50CHL1    H9 4844   3.702   0.222   3.734  2.7511  0.9572 -1.9125
   50CHL1   C10 4845   3.649   0.314   3.545 -0.0432 -0.4660 -0.3421
   50CHL1   C19 4846   3.645   0.459   3.490  0.4000  0.4333 -0.2534
   50CHL1  H19A 4847   3.626   0.467   3.380 -2.6013  0.4282  0.1782
   50CHL1  H19B 4848   3.563   0.520   3.533  0.1881  1.2047 -1.6947
   50CHL1  H19C 4849   3.736   0.514   3.519  0.9442 -0.1192 -0.8878
   50CHL1    C1 4850   3.768   0.230   3.488  0.2373 -0.0173 -0.4772
   50CHL1   H1A 4851   3.870   0.271   3.501  0.6973 -0.7811 -1.5717
   50CHL1   H1B 4852   3.755   0.131   3.536 -2.8858  1.5955  2.4689
   50CHL1    C2 4853   3.755   0.207   3.332 -0.2466  0.1723 -0.5034
   50CHL1   H2A 4854   3.839   0.151   3.285  0.1895  0.4157 -0.0334
   50CHL1   H2B 4855   3.786   0.307   3.295  2.6353 -0.2762  0.3923
   50CHL1   C20 4856   3.697   0.477   4.246  0.1976 -0.2097 -0.5703
   50CHL1   H20 4857   3.770   0.544   4.196 -0.1260 -1.9721 -3.6713
   50CHL1   C21 4858   3.779   0.378   4.323  0.1091  0.6406 -0.0207
   50CHL1  H21A 4859   3.719   0.288   4.348  1.3048 -0.6305 -1.5205
   50CHL1  H21B 4860   3.825   0.423   4.414  1.9011 -0.7665 -0.1682
   50CHL1  H21C 4861   3.848   0.333   4.249  0.6124  1.0040  0.2228
   50CHL1   C22 4862   3.595   0.559   4.336 -0.2357  0.3375  0.7579
   50CHL1  H22A 4863   3.537   0.620   4.264 -1.2967 -0.6091  0.7866
   50CHL1  H22B 4864   3.521   0.496   4.390  0.7090  0.8629  2.7802
   50CHL1   C23 4865   3.665   0.647   4.442  0.3011  0.2958  0.4147
   50CHL1  H23A 4866   3.587   0.702   4.499 -1.1737 -1.0535 -0.2277
   50CHL1  H23B 4867   3.728   0.595   4.517  1.3015 -0.0759 -0.6483
   50CHL1   C24 4868   3.763   0.752   4.391 -0.2334  0.1571 -0.5729
   50CHL1  H24A 4869   3.816   0.812   4.468  0.0715  0.8551 -1.3158
   50CHL1  H24B 4870   3.849   0.694   4.352  0.3964 -0.0975  1.1088
   50CHL1   C25 4871   3.719   0.848   4.280  0.2007  0.0400  0.2897
   50CHL1   H25 4872   3.638   0.800   4.221 -1.6230  1.3295  1.6170
   50CHL1   C26 4873   3.651   0.965   4.351 -0.2139  0.5046  0.8293
   50CHL1  H26A 4874   3.638   1.053   4.284  0.8099  0.4558  0.5436
   50CHL1  H26B 4875   3.557   0.922   4.391 -0.5687  0.9457  0.4721
   50CHL1  H26C 4876   3.725   0.995   4.428 -0.1026 -0.1974  1.0023
   50CHL1   C27 4877   3.831   0.895   4.188  0.1162  0.3649  0.0442
   50CHL1  H27A 4878   3.857   0.816   4.115  1.2402  0.7477  0.0155
   50CHL1  H27B 4879   3.800   0.984   4.129 -1.5011 -0.3435 -0.2149
   50CHL1  H27C 4880   3.917   0.927   4.251 -0.4090  0.5756  0.6716
   51CHL1    C3 4881   4.235   1.839   3.153 -0.1517  0.5287 -0.2651
   51CHL1    H3 4882   4.345   1.824   3.158 -0.4976 -2.0487  1.7507
   51CHL1    O3 4883   4.188   1.823   3.021 -0.0897 -0.2275  0.1531
   51CHL1   H3' 4884   4.101   1.864   3.020  0.5286  1.1334 -0.8046
   51CHL1    C4 4885   4.173   1.724   3.230  1.1536  0.0229  0.2625
   51CHL1   H4A 4886   4.070   1.722   3.191  2.2821  0.9958 -3.1140
   51CHL1   H4B 4887   4.217   1.628   3.196  2.4078  0.4140  0.6971
   51CHL1    C5 4888   4.192   1.751   3.377 -0.0244 -0.1241 -0.7165
   51CHL1    C6 4889   4.240   1.648   3.448 -0.3642  0.1038  0.3109
   51CHL1    H6 4890   4.268   1.552   3.403  1.1776 -0.8594  3.0560
   51CHL1    C7 4891   4.276   1.666   3.594  0.3936  0.6365 -0.3626
   51CHL1   H7A 4892   4.249   1.574   3.649 -1.3231 -0.0723 -2.2567
   51CHL1   H7B 4893   4.385   1.678   3.612  0.7403  0.4334 -2.1362
   51CHL1    C8 4894   4.193   1.775   3.668 -0.1206 -0.1828  0.4680
   51CHL1    H8 4895   4.089   1.740   3.650  1.1504 -2.9567 -2.5335
   51CHL1   C14 4896   4.222   1.784   3.819 -0.1535 -0.6134  0.1344
   51CHL1   H14 4897   4.327   1.820   3.822 -0.4785  1.2628 -3.9985
   51CHL1   C15 4898   4.205   1.660   3.908 -0.0569  0.3714  0.2467
   51CHL1  H15A 4899   4.111   1.606   3.883 -0.7858  1.5143  0.4593
   51CHL1  H15B 4900   4.291   1.592   3.888  1.3809  2.0141  0.6022
   51CHL1   C16 4901   4.201   1.714   4.046 -0.2870 -0.1472 -0.0014
   51CHL1  H16A 4902   4.112   1.674   4.098  0.1835 -0.2795  0.7194
   51CHL1  H16B 4903   4.295   1.690   4.101 -0.8986  0.1798  1.2115
   51CHL1   C17 4904   4.194   1.871   4.034 -0.0612 -0.4696 -1.1344
   51CHL1   H17 4905   4.297   1.911   4.027  0.3891 -1.6260 -1.4200
   51CHL1   C13 4906   4.144   1.898   3.895  0.5395 -0.2914  0.1806
   51CHL1   C18 4907   3.991   1.868   3.896 -0.6047 -0.3526  0.1748
   51CHL1  H18A 4908   3.925   1.935   3.955 -0.3262 -0.3975  0.5409
   51CHL1  H18B 4909   3.949   1.853   3.794 -0.4278 -0.1497  0.0691
   51CHL1  H18C 4910   3.969   1.769   3.941 -1.4758 -1.2233 -2.0031
   51CHL1   C12 4911   4.176   2.031   3.830  0.6899 -0.2778 -0.5089
   51CHL1  H12A 4912   4.112   2.117   3.859  1.0638  0.0880 -0.7473
   51CHL1  H12B 4913   4.284   2.056   3.842  1.0665 -1.9416 -0.2713
   51CHL1   C11 4914   4.152   2.027   3.677 -0.6704 -0.1337  0.4932
   51CHL1  H11A 4915   4.042   2.019   3.665 -0.5940  0.0507 -0.3862
   51CHL1  H11B 4916   4.181   2.123   3.629  2.1499 -0.6147  1.0327
   51CHL1    C9 4917   4.204   1.906   3.594 -0.9357 -0.1157 -0.2224
   51CHL1    H9 4918   4.313   1.925   3.602 -0.6506 -2.0841  1.3635
   51CHL1   C10 4919   4.164   1.888   3.444  0.3101  0.4373 -0.1776
   51CHL1   C19 4920   4.000   1.897   3.442 -0.1852 -0.4986 -0.3271
   51CHL1  H19A 4921   3.951   1.818   3.502  0.4544 -1.7532 -1.4009
   51CHL1  H19B 4922   3.961   1.998   3.470  0.4045 -0.2634 -0.3381
   51CHL1  H19C 4923   3.961   1.880   3.339 -1.1431  0.5056 -0.1517
   51CHL1    C1 4924   4.225   1.999   3.355 -0.2540 -0.7990 -0.1825
   51CHL1   H1A 4925   4.179   2.098   3.374 -1.3743 -1.4192  0.3926
   51CHL1   H1B 4926   4.333   2.006   3.380 -0.7012  2.6287  1.3182
   51CHL1    C2 4927   4.195   1.973   3.214 -0.0642 -0.6816  0.6050
   51CHL1   H2A 4928   4.261   2.045   3.161  0.6156 -1.7014  0.0268
   51CHL1   H2B 4929   4.090   1.997   3.187 -0.3517 -1.3409  1.0806
   51CHL1   C20 4930   4.132   1.938   4.157  0.3137  0.2029 -0.4405
   51CHL1   H20 4931   4.027   1.901   4.165  0.5317 -0.1706  0.9567
   51CHL1   C21 4932   4.151   2.093   4.162  0.7480  0.1070  0.2825
   51CHL1  H21A 4933   4.120   2.140   4.067 -3.0147 -0.3454  1.1310
   51CHL1  H21B 4934   4.259   2.108   4.183  1.2305 -1.6751 -0.7106
   51CHL1  H21C 4935   4.095   2.150   4.240  0.9634  0.6476  0.0456
   51CHL1   C22 4936   4.201   1.888   4.291 -0.5266  0.2591 -0.6490
   51CHL1  H22A 4937   4.170   1.781   4.289 -0.2724  0.1517  0.2796
   51CHL1  H22B 4938   4.310   1.902   4.276 -0.2710  1.7667  1.8635
   51CHL1   C23 4939   4.160   1.945   4.430 -0.7661  0.4531 -0.2967
   51CHL1  H23A 4940   4.226   1.897   4.506 -0.2757 -0.3760 -1.2217
   51CHL1  H23B 4941   4.187   2.052   4.447 -1.0501  0.6597 -1.1483
   51CHL1   C24 4942   4.020   1.901   4.473 -0.6194 -0.4060 -0.0769
   51CHL1  H24A 4943   3.945   1.927   4.396 -1.6707  0.5257  1.2153
   51CHL1  H24B 4944   4.020   1.791   4.487 -1.2537 -0.7631 -2.4080
   51CHL1   C25 4945   3.960   1.972   4.597 -0.7274  0.1122  0.2184
   51CHL1   H25 4946   3.948   2.081   4.575  0.1658 -0.0766 -1.3031
   51CHL1   C26 4947   3.826   1.913   4.623  0.0482 -0.2651  0.1283
   51CHL1  H26A 4948   3.825   1.806   4.595 -0.8004 -0.3862  0.5778
   51CHL1  H26B 4949   3.790   1.920   4.728  0.9391 -1.2554  0.5207
   51CHL1  H26C 4950   3.752   1.956   4.551 -0.3652 -0.8307  0.2059
   51CHL1   C27 4951   4.051   1.954   4.717 -0.5249  0.0433  0.2094
   51CHL1  H27A 4952   4.076   1.846   4.728  2.0180  0.6069  0.4451
   51CHL1  H27B 4953   4.141   2.017   4.707 -0.3049 -0.3209 -0.1271
   51CHL1  H27C 4954   3.991   1.978   4.808 -2.4658 -0.5505 -0.8372
   52CHL1    C3 4955   4.806   2.809   3.262  0.2504 -0.3351  0.3004
   52CHL1    H3 4956   4.892   2.878   3.250 -0.8446  0.8644 -1.0430
   52CHL1    O3 4957   4.747   2.801   3.130 -0.5583 -0.3591 -0.3080
   52CHL1   H3' 4958   4.667   2.749   3.143 -0.4918 -0.2790  0.4861
   52CHL1    C4 4959   4.845   2.668   3.305 -0.2128 -0.1646 -0.6021
   52CHL1   H4A 4960   4.752   2.608   3.293 -0.4850  0.0986  0.0850
   52CHL1   H4B 4961   4.916   2.623   3.233 -0.6466 -1.0764 -0.4650
   52CHL1    C5 4962   4.889   2.657   3.448 -0.7062  0.1193 -0.0544
   52CHL1    C6 4963   5.012   2.615   3.490  0.4564 -0.1051  0.2947
   52CHL1    H6 4964   5.090   2.592   3.416  0.5208 -0.8043  0.5752
   52CHL1    C7 4965   5.047   2.608   3.636  0.1766  0.0444  1.0037
   52CHL1   H7A 4966   5.088   2.506   3.653 -0.5403 -0.7058 -1.3484
   52CHL1   H7B 4967   5.130   2.680   3.652 -0.0771  0.3848  0.8073
   52CHL1    C8 4968   4.936   2.629   3.739  0.1720 -0.4563 -0.0816
   52CHL1    H8 4969   4.874   2.536   3.740 -1.4703  0.5958  0.1112
   52CHL1   C14 4970   4.990   2.650   3.878 -0.5098  0.9863  0.7908
   52CHL1   H14 4971   5.043   2.747   3.885 -0.5885  1.0165  0.9571
   52CHL1   C15 4972   5.092   2.542   3.923  0.4408 -0.6967 -0.4823
   52CHL1  H15A 4973   5.065   2.445   3.875  1.0252 -1.0444 -0.1252
   52CHL1  H15B 4974   5.193   2.568   3.885 -0.3188 -0.0038 -2.0996
   52CHL1   C16 4975   5.077   2.547   4.076 -0.1623  0.7239 -0.3822
   52CHL1  H16A 4976   5.024   2.455   4.106 -2.7770  1.8332 -1.2887
   52CHL1  H16B 4977   5.170   2.576   4.130 -1.4751  0.2558  2.2606
   52CHL1   C17 4978   4.974   2.656   4.108 -0.0157  0.3108 -0.0627
   52CHL1   H17 4979   5.027   2.753   4.116  3.0145 -1.1899 -0.6562
   52CHL1   C13 4980   4.882   2.663   3.983  0.0799 -0.5475 -0.2062
   52CHL1   C18 4981   4.791   2.542   3.985  0.3451 -0.5052 -0.0088
   52CHL1  H18A 4982   4.713   2.554   4.063  0.9222 -3.6531  1.2349
   52CHL1  H18B 4983   4.744   2.536   3.884 -0.9942 -0.7255  0.5997
   52CHL1  H18C 4984   4.849   2.450   4.007 -1.2363 -1.6535 -0.4673
   52CHL1   C12 4985   4.811   2.796   3.945  0.0826  0.8405  0.5897
   52CHL1  H12A 4986   4.730   2.816   4.019  0.6902 -1.2670  1.9235
   52CHL1  H12B 4987   4.883   2.878   3.962 -1.0558  1.7072  1.4718
   52CHL1   C11 4988   4.760   2.805   3.798  0.6372  0.5111  0.4178
   52CHL1  H11A 4989   4.662   2.753   3.787  0.3176  0.3806  3.1895
   52CHL1  H11B 4990   4.735   2.910   3.773 -1.8639 -0.6467 -2.7559
   52CHL1    C9 4991   4.854   2.750   3.691 -0.1843 -0.2604  0.1952
   52CHL1    H9 4992   4.924   2.836   3.680  0.7897 -1.3072 -2.7975
   52CHL1   C10 4993   4.792   2.720   3.547 -0.1517 -1.0181 -0.7315
   52CHL1   C19 4994   4.671   2.621   3.568 -0.0206 -0.2367 -0.3804
   52CHL1  H19A 4995   4.635   2.597   3.465  2.1474 -0.3865 -1.1662
   52CHL1  H19B 4996   4.711   2.529   3.616 -0.6799 -0.9943 -1.2443
   52CHL1  H19C 4997   4.581   2.667   3.613 -1.3663 -0.3651 -2.7580
   52CHL1    C1 4998   4.738   2.861   3.495  0.4016 -0.2066 -0.6409
   52CHL1   H1A 4999   4.667   2.907   3.566  1.5073 -0.8853  0.9574
   52CHL1   H1B 5000   4.821   2.936   3.500 -0.8728  1.2052  0.1754
   52CHL1    C2 5001   4.688   2.862   3.349 -0.5802 -0.2482  0.4421
   52CHL1   H2A 5002   4.657   2.966   3.324 -0.0032  0.0755  1.0359
   52CHL1   H2B 5003   4.598   2.796   3.343 -0.3886 -0.5664  0.9948
   52CHL1   C20 5004   4.908   2.628   4.246  0.1144 -0.8283 -0.7311
   52CHL1   H20 5005   4.858   2.529   4.236 -0.8029 -0.6248  1.2851
   52CHL1   C21 5006   4.799   2.731   4.271  0.0655 -0.3472  0.3263
   52CHL1  H21A 5007   4.714   2.725   4.200  0.8616 -0.1633 -0.6685
   52CHL1  H21B 5008   4.834   2.836   4.256  0.1780 -0.1351  1.8786
   52CHL1  H21C 5009   4.743   2.727   4.367 -0.6244  0.5520 -0.0156
   52CHL1   C22 5010   5.010   2.618   4.357 -0.0164  0.0409 -0.1017
   52CHL1  H22A 5011   5.091   2.548   4.328  0.1940  0.4535 -0.5204
   52CHL1  H22B 5012   5.058   2.717   4.372  2.5559 -1.1256 -0.1752
   52CHL1   C23 5013   4.968   2.574   4.499  0.4734  0.1832  0.0285
   52CHL1  H23A 5014   4.908   2.658   4.540 -0.9563 -0.2464 -1.0662
   52CHL1  H23B 5015   4.905   2.482   4.501 -0.0931  0.5647  2.5176
   52CHL1   C24 5016   5.096   2.559   4.593  0.0828  0.2825 -0.1156
   52CHL1  H24A 5017   5.179   2.523   4.529  0.2741 -1.6909  1.1676
   52CHL1  H24B 5018   5.125   2.656   4.639  1.4787 -0.8342  1.4578
   52CHL1   C25 5019   5.065   2.460   4.710 -0.3059  0.1444  0.6147
   52CHL1   H25 5020   5.018   2.370   4.664  1.4773 -0.4236 -0.1815
   52CHL1   C26 5021   5.193   2.414   4.790 -0.1330 -0.2744 -0.6283
   52CHL1  H26A 5022   5.266   2.361   4.725 -0.3668 -2.2075  0.5924
   52CHL1  H26B 5023   5.236   2.497   4.850 -2.4301  0.9834 -0.5976
   52CHL1  H26C 5024   5.162   2.331   4.858 -0.5449  0.2717 -0.1418
   52CHL1   C27 5025   4.965   2.521   4.803  0.1740 -0.5821  0.2365
   52CHL1  H27A 5026   4.878   2.567   4.749  0.6975 -1.9729 -1.9349
   52CHL1  H27B 5027   4.911   2.445   4.864 -1.3414 -0.8589 -1.3539
   52CHL1  H27C 5028   5.005   2.593   4.877  0.1503 -0.5887  0.2556
   53CHL1    C3 5029   5.631   3.541   3.485  0.3303 -0.6630  0.7780
   53CHL1    H3 5030   5.716   3.487   3.531  1.8372  0.3789 -0.6560
   53CHL1    O3 5031   5.649   3.539   3.342 -0.0780 -0.3516 -0.4071
   53CHL1   H3' 5032   5.652   3.627   3.305  1.0745  0.1737  0.8345
   53CHL1    C4 5033   5.503   3.472   3.522 -0.2883  0.2121  0.4199
   53CHL1   H4A 5034   5.418   3.519   3.467 -0.6082 -2.6095 -1.7223
   53CHL1   H4B 5035   5.515   3.372   3.475  0.5202  0.1544  0.7410
   53CHL1    C5 5036   5.485   3.462   3.671 -0.4320 -0.2225 -0.6920
   53CHL1    C6 5037   5.493   3.347   3.736 -0.8831  0.0064 -0.9068
   53CHL1    H6 5038   5.518   3.251   3.688 -1.8676 -2.1398  2.4975
   53CHL1    C7 5039   5.483   3.335   3.887  0.4959 -0.6822  0.2320
   53CHL1   H7A 5040   5.419   3.250   3.918  0.3530 -0.3629  0.8206
   53CHL1   H7B 5041   5.587   3.319   3.924 -0.3007 -1.0077  2.4886
   53CHL1    C8 5042   5.427   3.465   3.955  0.1977 -0.0093  0.0862
   53CHL1    H8 5043   5.321   3.479   3.927  1.0949  0.7706 -3.5208
   53CHL1   C14 5044   5.435   3.451   4.109  0.1782  0.2027  0.1350
   53CHL1   H14 5045   5.542   3.443   4.137  0.2563  0.8443  0.0438
   53CHL1   C15 5046   5.379   3.326   4.174  0.6038  0.3067  0.3437
   53CHL1  H15A 5047   5.273   3.311   4.145  0.3169  2.6800  0.0258
   53CHL1  H15B 5048   5.440   3.233   4.163  1.4722  0.8665  0.3493
   53CHL1   C16 5049   5.393   3.363   4.323 -0.0372 -0.3175 -0.3022
   53CHL1  H16A 5050   5.297   3.337   4.373  1.4923 -2.1942  1.8372
   53CHL1  H16B 5051   5.476   3.301   4.364  1.3066  0.2751 -2.0282
   53CHL1   C17 5052   5.415   3.522   4.330 -0.1727  0.2174  0.2737
   53CHL1   H17 5053   5.526   3.532   4.337 -0.1305  0.0733 -0.1630
   53CHL1   C13 5054   5.385   3.570   4.182 -0.2457  0.6514 -0.0564
   53CHL1   C18 5055   5.229   3.590   4.167 -0.0809 -0.6338  0.3295
   53CHL1  H18A 5056   5.185   3.676   4.222 -1.8378  0.8940 -3.1404
   53CHL1  H18B 5057   5.212   3.591   4.057  2.3443 -2.0818 -0.1419
   53CHL1  H18C 5058   5.186   3.497   4.210  0.9524 -0.4410  1.8366
   53CHL1   C12 5059   5.461   3.696   4.137 -0.8839  0.2912 -0.5340
   53CHL1  H12A 5060   5.416   3.787   4.182 -3.1624 -1.3496  0.6973
   53CHL1  H12B 5061   5.567   3.690   4.170 -0.7170  0.9116 -0.9257
   53CHL1   C11 5062   5.461   3.714   3.985 -0.2944 -0.9839  0.7639
   53CHL1  H11A 5063   5.364   3.760   3.956  0.4240  1.2158  1.6724
   53CHL1  H11B 5064   5.533   3.796   3.971 -1.5888 -0.2589 -2.6356
   53CHL1    C9 5065   5.499   3.593   3.901  0.0826 -0.1070  0.8436
   53CHL1    H9 5066   5.605   3.572   3.926  0.2697  1.7454  1.7855
   53CHL1   C10 5067   5.482   3.601   3.748 -0.1563  0.3488 -0.3427
   53CHL1   C19 5068   5.352   3.669   3.720 -0.1892 -0.1132 -0.2027
   53CHL1  H19A 5069   5.324   3.657   3.613  0.2441 -0.6702 -0.2528
   53CHL1  H19B 5070   5.266   3.624   3.774 -1.7098  3.5908  0.8488
   53CHL1  H19C 5071   5.359   3.774   3.757  0.7131 -1.5172  4.1303
   53CHL1    C1 5072   5.597   3.692   3.694 -0.4396 -0.0393 -0.4514
   53CHL1   H1A 5073   5.582   3.795   3.733 -1.3861  0.1937 -1.3766
   53CHL1   H1B 5074   5.692   3.659   3.740 -0.2641  0.0885 -0.7180
   53CHL1    C2 5075   5.630   3.691   3.547  0.0020  0.4893 -0.4436
   53CHL1   H2A 5076   5.716   3.749   3.506  1.0283 -1.2684 -0.8462
   53CHL1   H2B 5077   5.545   3.731   3.486  1.3901  0.6675 -2.3494
   53CHL1   C20 5078   5.346   3.604   4.442  0.2619  0.2841 -0.1755
   53CHL1   H20 5079   5.235   3.597   4.434  0.4165 -1.5186 -1.2351
   53CHL1   C21 5080   5.399   3.747   4.438 -0.3950  0.5422 -0.6147
   53CHL1  H21A 5081   5.356   3.805   4.354 -4.0367 -2.0947 -0.8129
   53CHL1  H21B 5082   5.510   3.740   4.442 -0.2989  1.9191 -0.0488
   53CHL1  H21C 5083   5.367   3.786   4.538 -1.4472 -2.4725  0.3146
   53CHL1   C22 5084   5.387   3.539   4.578 -0.2914  0.8999  0.5146
   53CHL1  H22A 5085   5.404   3.431   4.560 -1.2672  0.5925  1.3603
   53CHL1  H22B 5086   5.487   3.576   4.611  0.3544  0.1480 -0.5228
   53CHL1   C23 5087   5.280   3.565   4.684  0.1961 -1.0304 -0.2500
   53CHL1  H23A 5088   5.282   3.676   4.687  3.8837 -0.9597  1.9426
   53CHL1  H23B 5089   5.181   3.523   4.658 -0.4533  1.1857 -1.5770
   53CHL1   C24 5090   5.333   3.519   4.823  0.8730  0.7615 -0.0320
   53CHL1  H24A 5091   5.373   3.416   4.813  2.3541  1.2369  0.6317
   53CHL1  H24B 5092   5.418   3.589   4.842  0.1275  2.0652 -1.3425
   53CHL1   C25 5093   5.233   3.533   4.943  0.0584  0.4058  0.0135
   53CHL1   H25 5094   5.135   3.492   4.908  0.2327 -0.7533  0.8303
   53CHL1   C26 5095   5.293   3.459   5.063  0.5105 -0.1702 -0.0170
   53CHL1  H26A 5096   5.284   3.350   5.046  1.3408 -0.3433  0.5767
   53CHL1  H26B 5097   5.401   3.486   5.070  1.1075 -2.1620 -0.8269
   53CHL1  H26C 5098   5.223   3.483   5.146 -0.9065  1.8354 -1.6965
   53CHL1   C27 5099   5.213   3.678   4.986 -0.4242 -0.1406 -0.5783
   53CHL1  H27A 5100   5.181   3.754   4.912 -1.1171  2.4422  2.1817
   53CHL1  H27B 5101   5.148   3.665   5.075 -0.9920 -2.0323 -1.2043
   53CHL1  H27C 5102   5.311   3.716   5.020 -0.9915  2.0985 -1.3421
   54CHL1    C3 5103   4.290   3.987   2.976  0.4507 -0.2703 -0.3896
   54CHL1    H3 5104   4.233   4.082   2.984  0.4373 -0.2943 -0.2073
   54CHL1    O3 5105   4.325   3.965   2.838  0.3505  0.2834  0.3716
   54CHL1   H3' 5106   4.304   3.875   2.811  0.5722  0.2190  0.4157
   54CHL1    C4 5107   4.423   3.999   3.060 -0.0573 -0.4015 -0.1790
   54CHL1   H4A 5108   4.490   3.912   3.045  1.9622  0.6599  1.9696
   54CHL1   H4B 5109   4.480   4.086   3.021 -1.6222  0.5205 -0.5017
   54CHL1    C5 5110   4.402   4.005   3.212 -0.4819 -0.0994  0.8884
   54CHL1    C6 5111   4.456   4.103   3.287  0.2423  1.0413 -0.5133
   54CHL1    H6 5112   4.511   4.188   3.242  2.1571 -0.6923 -1.6128
   54CHL1    C7 5113   4.444   4.096   3.434  0.2210  0.3627  0.3952
   54CHL1   H7A 5114   4.546   4.104   3.478  0.3202  0.5316  0.1330
   54CHL1   H7B 5115   4.391   4.190   3.458 -0.7560  0.2960 -1.3747
   54CHL1    C8 5116   4.381   3.970   3.501  0.7310  0.1872  0.7627
   54CHL1    H8 5117   4.471   3.906   3.491  0.1766 -0.2965 -1.9471
   54CHL1   C14 5118   4.329   4.000   3.641 -0.3034 -0.5352 -0.2317
   54CHL1   H14 5119   4.250   4.077   3.630  1.7887  2.0258  1.4227
   54CHL1   C15 5120   4.425   4.069   3.741 -0.2771  0.5495 -1.1098
   54CHL1  H15A 5121   4.522   4.015   3.736 -1.1813 -1.2410 -0.3743
   54CHL1  H15B 5122   4.444   4.176   3.721  0.3008  0.3758 -1.4964
   54CHL1   C16 5123   4.355   4.045   3.878  0.0900 -0.2330 -0.0993
   54CHL1  H16A 5124   4.427   3.978   3.929  1.1591  0.1325 -1.0665
   54CHL1  H16B 5125   4.332   4.145   3.922  1.0707 -0.8342  1.8890
   54CHL1   C17 5126   4.226   3.967   3.847 -0.4962  1.2848 -0.3027
   54CHL1   H17 5127   4.146   4.039   3.820 -2.0908 -0.0879  0.5816
   54CHL1   C13 5128   4.258   3.887   3.714 -0.9208  0.0651 -0.6614
   54CHL1   C18 5129   4.360   3.771   3.741 -1.0167  0.4624 -0.4139
   54CHL1  H18A 5130   4.438   3.804   3.813 -0.7873 -1.4926  0.2749
   54CHL1  H18B 5131   4.318   3.676   3.778 -0.7713  1.0386  1.4821
   54CHL1  H18C 5132   4.411   3.744   3.647 -0.5727 -0.1171 -0.0129
   54CHL1   C12 5133   4.139   3.833   3.629 -0.9269  0.0623  0.1506
   54CHL1  H12A 5134   4.098   3.740   3.675  0.6613 -0.3801  0.7421
   54CHL1  H12B 5135   4.058   3.909   3.637  0.0720  1.0659  1.2630
   54CHL1   C11 5136   4.184   3.801   3.483 -0.6801 -0.0434  0.2803
   54CHL1  H11A 5137   4.249   3.711   3.483  0.7708  0.9674 -0.6471
   54CHL1  H11B 5138   4.107   3.767   3.410  1.3782  0.2993 -2.1458
   54CHL1    C9 5139   4.263   3.917   3.418  0.2189  0.1146  0.4440
   54CHL1    H9 5140   4.180   3.990   3.401  0.6223 -0.0669 -2.9098
   54CHL1   C10 5141   4.305   3.895   3.268 -0.3198 -0.1380  0.2361
   54CHL1   C19 5142   4.387   3.763   3.266  0.8594 -0.3487  0.4777
   54CHL1  H19A 5143   4.317   3.677   3.269  2.6163 -1.8452  0.4451
   54CHL1  H19B 5144   4.428   3.747   3.164  0.2353 -1.4772  0.3804
   54CHL1  H19C 5145   4.462   3.756   3.348  2.7408  1.5819 -0.9879
   54CHL1    C1 5146   4.184   3.881   3.177 -0.5348 -0.5967 -0.4447
   54CHL1   H1A 5147   4.143   3.781   3.204  0.0459 -1.6791 -3.2765
   54CHL1   H1B 5148   4.100   3.946   3.211 -1.0832 -1.7198  0.4603
   54CHL1    C2 5149   4.201   3.873   3.032 -0.4123 -0.9148  0.3653
   54CHL1   H2A 5150   4.104   3.877   2.978  1.2627  1.4623 -2.8993
   54CHL1   H2B 5151   4.245   3.775   3.005  1.3556 -0.3187  0.9463
   54CHL1   C20 5152   4.173   3.885   3.969 -0.4822  0.1990 -0.1114
   54CHL1   H20 5153   4.232   3.791   3.961  0.7046  0.8419  0.8349
   54CHL1   C21 5154   4.028   3.852   3.944 -0.1366  0.2607  0.0874
   54CHL1  H21A 5155   3.973   3.946   3.919  0.4070  0.2866 -1.0893
   54CHL1  H21B 5156   3.977   3.806   4.031  3.0432 -1.8732  1.0138
   54CHL1  H21C 5157   4.015   3.785   3.856 -1.6240 -1.2334  1.3654
   54CHL1   C22 5158   4.188   3.961   4.102 -0.9476  0.2718 -0.5869
   54CHL1  H22A 5159   4.147   3.887   4.174 -1.6857  3.0551  2.0383
   54CHL1  H22B 5160   4.292   3.972   4.139 -1.1037  1.0581 -0.3675
   54CHL1   C23 5161   4.117   4.095   4.130 -0.3042 -0.5407 -0.2298
   54CHL1  H23A 5162   4.158   4.163   4.052  0.7325 -0.4916  0.3266
   54CHL1  H23B 5163   4.011   4.080   4.101 -0.4244  2.8255 -1.9654
   54CHL1   C24 5164   4.147   4.141   4.273 -0.0209 -0.0392 -0.3984
   54CHL1  H24A 5165   4.132   4.061   4.348  1.0545  1.3612  1.4126
   54CHL1  H24B 5166   4.254   4.167   4.282  0.0440 -0.4233 -0.0550
   54CHL1   C25 5167   4.061   4.255   4.317 -0.5870  0.1350 -0.0019
   54CHL1   H25 5168   3.958   4.215   4.321 -0.0426 -1.2044  1.3570
   54CHL1   C26 5169   4.096   4.307   4.457  0.5398 -0.1684 -0.3510
   54CHL1  H26A 5170   4.085   4.227   4.533 -1.1436  2.0166  1.8463
   54CHL1  H26B 5171   4.194   4.358   4.458  0.9439 -0.9518  0.7155
   54CHL1  H26C 5172   4.014   4.379   4.480 -1.8062 -2.4389 -1.0291
   54CHL1   C27 5173   4.076   4.371   4.220  0.1028  0.5285  0.0693
   54CHL1  H27A 5174   4.020   4.463   4.245 -1.0599  0.2708 -1.4490
   54CHL1  H27B 5175   4.180   4.408   4.208 -0.0887  1.3652  0.9287
   54CHL1  H27C 5176   4.048   4.339   4.117  1.2526 -0.6479  0.0918
   55CHL1    C3 5177   5.278   6.377   3.180 -0.9554  0.7062 -0.5536
   55CHL1    H3 5178   5.191   6.310   3.195  0.5864 -1.2021  0.1280
   55CHL1    O3 5179   5.275   6.425   3.050  0.2263  0.0109 -0.2174
   55CHL1   H3' 5180   5.298   6.518   3.057 -0.3656  0.2820 -1.5690
   55CHL1    C4 5181   5.286   6.491   3.287  0.0589 -0.1346 -0.6196
   55CHL1   H4A 5182   5.375   6.555   3.269  0.5264 -0.4864  0.3719
   55CHL1   H4B 5183   5.202   6.563   3.285  1.8641  2.1223  0.1047
   55CHL1    C5 5184   5.286   6.423   3.428 -1.0796 -0.4620 -0.5401
   55CHL1    C6 5185   5.185   6.447   3.515 -1.1897  0.4233 -0.5851
   55CHL1    H6 5186   5.102   6.511   3.480 -1.3889  1.7792  2.1128
   55CHL1    C7 5187   5.181   6.388   3.652  0.1380 -0.2325 -0.2457
   55CHL1   H7A 5188   5.130   6.452   3.727 -0.8162 -0.6935 -0.4850
   55CHL1   H7B 5189   5.114   6.299   3.651  0.0918 -0.2091  0.3769
   55CHL1    C8 5190   5.324   6.347   3.703  0.3323 -0.4879  0.5277
   55CHL1    H8 5191   5.380   6.442   3.715 -1.2247  0.7542 -1.4193
   55CHL1   C14 5192   5.312   6.263   3.830 -1.3491 -0.9450  0.3254
   55CHL1   H14 5193   5.255   6.171   3.806 -1.2179 -1.3851  1.5993
   55CHL1   C15 5194   5.250   6.329   3.954  0.4038  0.1934  0.1312
   55CHL1  H15A 5195   5.259   6.440   3.956 -0.5251  0.2695  1.1652
   55CHL1  H15B 5196   5.140   6.316   3.956  0.3338  0.6190 -0.5347
   55CHL1   C16 5197   5.311   6.260   4.081  0.6569  0.1547 -0.1880
   55CHL1  H16A 5198   5.349   6.338   4.151 -1.8364 -0.6502  2.2129
   55CHL1  H16B 5199   5.240   6.203   4.144 -0.2799  3.2248  1.7494
   55CHL1   C17 5200   5.418   6.162   4.021  0.2448 -0.0829  0.5120
   55CHL1   H17 5201   5.372   6.063   4.001 -0.1614  0.1356  0.3450
   55CHL1   C13 5202   5.450   6.220   3.879 -0.0669  0.3059  0.1151
   55CHL1   C18 5203   5.547   6.342   3.891 -0.0716  0.8311  0.1229
   55CHL1  H18A 5204   5.642   6.309   3.938  0.0119 -1.0915 -1.2626
   55CHL1  H18B 5205   5.563   6.406   3.802 -0.0839 -1.6411 -1.7478
   55CHL1  H18C 5206   5.506   6.414   3.965 -0.6333  2.1255 -1.3837
   55CHL1   C12 5207   5.506   6.117   3.775  0.6517 -0.2230 -0.2324
   55CHL1  H12A 5208   5.597   6.072   3.819  0.2769 -0.9318 -0.1711
   55CHL1  H12B 5209   5.448   6.024   3.756  0.7327 -0.3386  0.0781
   55CHL1   C11 5210   5.533   6.192   3.646  0.5553 -0.0182 -0.6367
   55CHL1  H11A 5211   5.617   6.262   3.669  0.0905 -0.1277  1.7082
   55CHL1  H11B 5212   5.566   6.115   3.574 -0.6819  1.0270 -2.4085
   55CHL1    C9 5213   5.400   6.264   3.595  0.1124  0.1672 -0.0510
   55CHL1    H9 5214   5.326   6.184   3.573  0.2540  0.9648 -4.3011
   55CHL1   C10 5215   5.410   6.334   3.451 -0.2217  0.7243 -0.2612
   55CHL1   C19 5216   5.540   6.418   3.451  0.3041  0.0149  0.3393
   55CHL1  H19A 5217   5.546   6.481   3.360 -0.2219 -1.0752 -0.4720
   55CHL1  H19B 5218   5.541   6.483   3.541 -2.1039 -1.2264  1.3491
   55CHL1  H19C 5219   5.624   6.351   3.476 -0.6741 -1.6901 -0.7766
   55CHL1    C1 5220   5.418   6.222   3.345  0.4170 -0.0564  0.2714
   55CHL1   H1A 5221   5.513   6.166   3.353  0.2085 -0.5750 -0.6756
   55CHL1   H1B 5222   5.323   6.166   3.358  1.1779 -1.3894  0.2943
   55CHL1    C2 5223   5.406   6.286   3.200  0.6915 -0.4847 -0.0636
   55CHL1   H2A 5224   5.391   6.208   3.122 -0.6198  2.0358 -2.5156
   55CHL1   H2B 5225   5.493   6.351   3.176 -0.6044  0.3447 -2.9778
   55CHL1   C20 5226   5.531   6.136   4.124  0.2512  0.2185 -0.1336
   55CHL1   H20 5227   5.608   6.214   4.113  0.1767  0.3381  0.1858
   55CHL1   C21 5228   5.589   5.997   4.104 -0.2247  0.3900 -0.1673
   55CHL1  H21A 5229   5.628   5.995   4.000 -2.0009  1.1243 -0.8978
   55CHL1  H21B 5230   5.510   5.920   4.113 -0.4614  0.6238 -0.2233
   55CHL1  H21C 5231   5.679   5.985   4.167 -0.1772 -0.1029 -0.3272
   55CHL1   C22 5232   5.502   6.150   4.276 -0.1955  0.6877  0.1465
   55CHL1  H22A 5233   5.601   6.134   4.323 -0.3283  0.7630  0.4543
   55CHL1  H22B 5234   5.476   6.256   4.298  0.4873  0.6455  1.2320
   55CHL1   C23 5235   5.397   6.062   4.345  0.0397 -0.3081  0.2885
   55CHL1  H23A 5236   5.295   6.083   4.305  0.5088 -0.4828 -1.0366
   55CHL1  H23B 5237   5.428   5.962   4.307  1.6224  0.7180 -1.2843
   55CHL1   C24 5238   5.408   6.070   4.499 -0.7125  0.0271  0.1091
   55CHL1  H24A 5239   5.508   6.033   4.529 -0.5688 -0.2406 -0.6857
   55CHL1  H24B 5240   5.408   6.173   4.541 -0.4948 -1.1520  3.3325
   55CHL1   C25 5241   5.307   5.981   4.577  0.1282 -0.5387  0.3812
   55CHL1   H25 5242   5.342   5.983   4.682  2.4341 -1.1937 -0.3027
   55CHL1   C26 5243   5.158   6.043   4.554 -0.6709  0.1594  0.2214
   55CHL1  H26A 5244   5.139   6.037   4.445  1.4330  1.2516 -0.2620
   55CHL1  H26B 5245   5.081   5.989   4.613  1.4933 -1.7411  1.4423
   55CHL1  H26C 5246   5.157   6.152   4.574  0.3427  0.3320 -0.5844
   55CHL1   C27 5247   5.313   5.834   4.544  0.0593 -0.2816  0.6456
   55CHL1  H27A 5248   5.414   5.790   4.558  0.6574  0.9511  0.2906
   55CHL1  H27B 5249   5.244   5.773   4.606  1.9583 -2.3043  0.9073
   55CHL1  H27C 5250   5.288   5.822   4.436 -0.6244  0.0185  0.7650
   56CHL1    C3 5251   0.694   0.289   3.351  0.0954  0.1602  0.7000
   56CHL1    H3 5252   0.799   0.255   3.361  0.8306  2.4100  1.2271
   56CHL1    O3 5253   0.672   0.302   3.211  0.2798  0.5682  0.3882
   56CHL1   H3' 5254   0.619   0.381   3.197 -0.1201  0.1900 -0.2978
   56CHL1    C4 5255   0.615   0.177   3.412  0.6995 -0.2300  0.6747
   56CHL1   H4A 5256   0.507   0.185   3.390  0.5938 -1.2589  0.7830
   56CHL1   H4B 5257   0.664   0.092   3.361 -1.4498  0.1768 -2.3043
   56CHL1    C5 5258   0.615   0.167   3.561  0.2742 -0.3675  0.3421
   56CHL1    C6 5259   0.633   0.047   3.622  0.2574 -0.0710 -0.3936
   56CHL1    H6 5260   0.645  -0.044   3.561  0.6519 -1.0847  1.1217
   56CHL1    C7 5261   0.657   0.032   3.771 -0.1296  0.4761 -0.2253
   56CHL1   H7A 5262   0.596  -0.050   3.814  0.8924 -1.5330 -2.3600
   56CHL1   H7B 5263   0.760  -0.005   3.790  0.4470  0.7295 -2.5681
   56CHL1    C8 5264   0.636   0.158   3.848 -0.4948 -0.8629  0.5681
   56CHL1    H8 5265   0.526   0.162   3.860 -0.5092 -0.4500  0.3215
   56CHL1   C14 5266   0.708   0.146   3.981 -0.1423 -0.1593  0.1492
   56CHL1   H14 5267   0.816   0.147   3.957  0.0487 -2.5138  0.7133
   56CHL1   C15 5268   0.708   0.020   4.054 -0.0049 -0.5796 -0.0815
   56CHL1  H15A 5269   0.604  -0.020   4.062  0.3248 -1.8110 -1.4457
   56CHL1  H15B 5270   0.776  -0.051   4.003  2.0274  1.6602 -0.6727
   56CHL1   C16 5271   0.754   0.054   4.198  0.6235 -0.5970  0.7106
   56CHL1  H16A 5272   0.672   0.020   4.265 -1.2686  2.7841  0.2826
   56CHL1  H16B 5273   0.850   0.002   4.223  0.0585 -0.2373  4.1655
   56CHL1   C17 5274   0.773   0.210   4.199 -0.0706 -0.1988  0.0465
   56CHL1   H17 5275   0.878   0.238   4.176 -0.3964  0.5170 -0.5929
   56CHL1   C13 5276   0.693   0.265   4.075 -0.0687 -0.4271 -0.0866
   56CHL1   C18 5277   0.545   0.280   4.124 -0.0194  0.7301 -0.3114
   56CHL1  H18A 5278   0.504   0.193   4.179  0.6386  0.9523  0.5608
   56CHL1  H18B 5279   0.527   0.370   4.186 -0.7932 -0.7775  1.7697
   56CHL1  H18C 5280   0.483   0.279   4.032  2.4066 -3.8758 -2.2309
   56CHL1   C12 5281   0.741   0.394   4.011 -0.6074  0.8163 -0.1456
   56CHL1  H12A 5282   0.712   0.484   4.070 -0.6678 -0.0747  1.2279
   56CHL1  H12B 5283   0.849   0.386   3.984 -0.1360 -1.1487  2.0045
   56CHL1   C11 5284   0.675   0.407   3.867 -0.1526 -0.3587 -1.6502
   56CHL1  H11A 5285   0.572   0.443   3.890  0.7040  0.7781  0.6685
   56CHL1  H11B 5286   0.711   0.499   3.817 -1.3474  0.5412 -0.9099
   56CHL1    C9 5287   0.686   0.284   3.778  0.0942  0.5017 -0.4564
   56CHL1    H9 5288   0.795   0.277   3.761  0.0456 -0.6586 -0.4329
   56CHL1   C10 5289   0.623   0.306   3.639  0.0702  0.6605  0.2319
   56CHL1   C19 5290   0.482   0.362   3.647 -0.1835  0.5843  0.1915
   56CHL1  H19A 5291   0.431   0.366   3.548 -0.9738 -1.2784  0.4867
   56CHL1  H19B 5292   0.416   0.299   3.711  0.8792 -1.2470 -0.4694
   56CHL1  H19C 5293   0.488   0.466   3.686  0.6745 -0.3858  2.8232
   56CHL1    C1 5294   0.713   0.397   3.557 -0.0117  0.3806 -0.3889
   56CHL1   H1A 5295   0.708   0.502   3.593  1.6231  0.2110  0.4193
   56CHL1   H1B 5296   0.818   0.364   3.560 -0.2060 -0.4401 -1.8028
   56CHL1    C2 5297   0.674   0.421   3.410  0.8869  0.0050  0.1493
   56CHL1   H2A 5298   0.745   0.499   3.374  2.6848 -0.4311  2.4985
   56CHL1   H2B 5299   0.569   0.456   3.405  0.1719 -1.9518  0.5628
   56CHL1   C20 5300   0.756   0.273   4.342  0.0887 -0.0078 -0.0490
   56CHL1   H20 5301   0.665   0.232   4.390  0.9050  0.5708  2.0788
   56CHL1   C21 5302   0.752   0.429   4.335  0.0144 -0.6192  0.3470
   56CHL1  H21A 5303   0.767   0.478   4.434  0.1275  1.2025 -0.5208
   56CHL1  H21B 5304   0.662   0.475   4.290  0.3789 -1.2735 -1.0981
   56CHL1  H21C 5305   0.838   0.474   4.282 -1.8111 -0.0025 -2.2849
   56CHL1   C22 5306   0.867   0.241   4.445 -0.4825  0.1575  0.4134
   56CHL1  H22A 5307   0.880   0.131   4.440  1.7544  0.2081  3.0053
   56CHL1  H22B 5308   0.962   0.290   4.415 -0.5827  0.0890 -0.0292
   56CHL1   C23 5309   0.838   0.264   4.595  0.6464  0.2917  0.6030
   56CHL1  H23A 5310   0.780   0.357   4.610  0.6030  0.8031 -2.1598
   56CHL1  H23B 5311   0.777   0.177   4.628  3.6438 -3.2656 -2.2307
   56CHL1   C24 5312   0.960   0.279   4.684 -0.3876 -0.1790  0.0205
   56CHL1  H24A 5313   0.922   0.293   4.787 -1.3640 -0.9793 -0.2077
   56CHL1  H24B 5314   1.018   0.185   4.695  0.6790  0.4849  0.1422
   56CHL1   C25 5315   1.047   0.405   4.665 -0.1348 -0.8663 -0.0976
   56CHL1   H25 5316   1.070   0.404   4.556 -1.8091 -1.4445 -0.4737
   56CHL1   C26 5317   0.976   0.533   4.697  0.1715 -0.0446  0.1326
   56CHL1  H26A 5318   1.025   0.623   4.654 -1.9075  1.4350  0.6828
   56CHL1  H26B 5319   0.872   0.535   4.655  1.1218  0.8011 -2.3790
   56CHL1  H26C 5320   0.971   0.544   4.807 -0.7198 -2.3229  0.3898
   56CHL1   C27 5321   1.173   0.393   4.754  0.4169 -0.2497  0.0105
   56CHL1  H27A 5322   1.236   0.483   4.765 -0.1740  0.3330 -1.1052
   56CHL1  H27B 5323   1.139   0.356   4.853 -0.9756 -1.7674 -0.9806
   56CHL1  H27C 5324   1.245   0.311   4.732  1.0923  0.2442  0.3530
   57CHL1    C3 5325   6.421   6.753   3.382 -0.1860  0.7293  0.3245
   57CHL1    H3 5326   6.354   6.670   3.415  2.2062 -1.4757 -0.0246
   57CHL1    O3 5327   6.404   6.784   3.248 -0.3697 -0.8358 -0.3000
   57CHL1   H3' 5328   6.453   6.864   3.227  0.3180 -1.0878  0.3039
   57CHL1    C4 5329   6.363   6.876   3.451  0.4561  0.4180  0.1197
   57CHL1   H4A 5330   6.427   6.963   3.427 -1.3413  1.7501 -0.0116
   57CHL1   H4B 5331   6.261   6.900   3.415  0.6270 -0.7304 -1.2442
   57CHL1    C5 5332   6.363   6.845   3.603 -0.0462 -0.8592  0.8879
   57CHL1    C6 5333   6.249   6.840   3.677  0.2664  0.3619  0.0007
   57CHL1    H6 5334   6.156   6.872   3.628 -0.5250 -0.1678  1.1086
   57CHL1    C7 5335   6.247   6.795   3.817  0.1034 -0.7551  0.2087
   57CHL1   H7A 5336   6.174   6.842   3.886  0.6451 -1.0817  1.0230
   57CHL1   H7B 5337   6.224   6.686   3.814 -0.4558 -0.6594  0.7663
   57CHL1    C8 5338   6.382   6.820   3.890  0.6566  0.2160 -0.1815
   57CHL1    H8 5339   6.409   6.927   3.899 -0.1376  0.5976 -1.8882
   57CHL1   C14 5340   6.381   6.763   4.027 -0.1103  0.4958 -0.3307
   57CHL1   H14 5341   6.367   6.655   4.008 -2.6384  0.9243 -1.2890
   57CHL1   C15 5342   6.277   6.811   4.131 -0.5193  0.0738  0.0132
   57CHL1  H15A 5343   6.273   6.922   4.138 -2.9516  0.0100  0.4535
   57CHL1  H15B 5344   6.177   6.764   4.127  0.0698 -1.3340  1.1173
   57CHL1   C16 5345   6.337   6.761   4.264  0.3308 -0.1791  0.1929
   57CHL1  H16A 5346   6.342   6.847   4.335  0.4675 -1.3132  1.5857
   57CHL1  H16B 5347   6.285   6.676   4.311  2.4245 -2.3296 -1.1121
   57CHL1   C17 5348   6.477   6.703   4.236 -0.3406 -1.0613 -0.1547
   57CHL1   H17 5349   6.459   6.597   4.210  0.2972 -1.1332 -0.3176
   57CHL1   C13 5350   6.517   6.766   4.099 -0.2074  0.8472  1.0420
   57CHL1   C18 5351   6.563   6.914   4.118 -0.6190  0.6240 -0.1095
   57CHL1  H18A 5352   6.494   6.974   4.180 -0.2204  1.0897 -0.1129
   57CHL1  H18B 5353   6.662   6.915   4.168 -0.1891 -1.0598 -0.8420
   57CHL1  H18C 5354   6.575   6.967   4.021 -2.4838 -1.6167 -1.6939
   57CHL1   C12 5355   6.620   6.688   4.009  0.6580  0.4074 -0.2246
   57CHL1  H12A 5356   6.710   6.661   4.068 -0.8814 -0.1542  1.9811
   57CHL1  H12B 5357   6.583   6.585   3.987  0.1516  0.8515 -1.5761
   57CHL1   C11 5358   6.631   6.751   3.871 -0.5256 -0.4848 -0.6031
   57CHL1  H11A 5359   6.674   6.851   3.891  1.1124 -1.2043 -0.3659
   57CHL1  H11B 5360   6.698   6.682   3.816  0.3286 -1.7870  1.9074
   57CHL1    C9 5361   6.492   6.758   3.803 -0.5615 -0.2325  0.1710
   57CHL1    H9 5362   6.459   6.655   3.778 -0.6370  0.6192 -3.8441
   57CHL1   C10 5363   6.503   6.822   3.659  0.4877 -0.6235 -0.7788
   57CHL1   C19 5364   6.587   6.950   3.677  0.0045  0.4488  0.3422
   57CHL1  H19A 5365   6.562   7.001   3.581  0.1271  0.5458  0.3619
   57CHL1  H19B 5366   6.542   7.007   3.761  1.7657 -0.0165  1.6311
   57CHL1  H19C 5367   6.696   6.941   3.692  0.0574  2.4719  1.4529
   57CHL1    C1 5368   6.575   6.715   3.564 -1.1369 -0.0023 -0.4253
   57CHL1   H1A 5369   6.683   6.727   3.588 -1.2158 -0.7085  0.3424
   57CHL1   H1B 5370   6.533   6.615   3.588  0.1823 -0.4923 -0.0736
   57CHL1    C2 5371   6.562   6.720   3.419  0.0675 -0.1121 -0.5366
   57CHL1   H2A 5372   6.599   6.626   3.373 -0.5225 -0.7624  0.2708
   57CHL1   H2B 5373   6.623   6.807   3.389  0.1443 -0.2168 -0.6865
   57CHL1   C20 5374   6.572   6.716   4.362 -0.2022 -0.5198  0.1608
   57CHL1   H20 5375   6.578   6.822   4.397  2.6569  0.2838 -2.3198
   57CHL1   C21 5376   6.716   6.668   4.322 -0.0675 -0.0951  0.6821
   57CHL1  H21A 5377   6.695   6.581   4.255 -0.3407  0.9405 -0.6111
   57CHL1  H21B 5378   6.773   6.639   4.413 -0.7968 -0.2923  1.0851
   57CHL1  H21C 5379   6.771   6.744   4.264 -0.2609  0.6475  1.4547
   57CHL1   C22 5380   6.519   6.628   4.482  0.1861  0.5154 -0.1028
   57CHL1  H22A 5381   6.410   6.649   4.495  0.5633  1.3543  2.0585
   57CHL1  H22B 5382   6.538   6.520   4.460  2.0732  0.7280  0.3720
   57CHL1   C23 5383   6.577   6.661   4.618 -0.0206 -0.4588 -0.9209
   57CHL1  H23A 5384   6.685   6.635   4.620  0.3681  1.0487  0.2482
   57CHL1  H23B 5385   6.592   6.771   4.627  0.0335 -0.5302 -0.0370
   57CHL1   C24 5386   6.527   6.592   4.738  0.6205 -0.0917 -1.0021
   57CHL1  H24A 5387   6.553   6.485   4.754  0.3459  0.2063  2.2447
   57CHL1  H24B 5388   6.586   6.629   4.824  1.2306 -2.1841 -0.4788
   57CHL1   C25 5389   6.376   6.618   4.772 -0.2763 -0.5952 -0.0807
   57CHL1   H25 5390   6.330   6.595   4.674 -0.6923  1.1796 -0.3287
   57CHL1   C26 5391   6.328   6.524   4.884 -0.0715 -0.0275  0.4632
   57CHL1  H26A 5392   6.366   6.572   4.977  1.0188 -1.7417  0.9529
   57CHL1  H26B 5393   6.218   6.519   4.896  0.0705  0.2588  2.2021
   57CHL1  H26C 5394   6.361   6.418   4.878 -1.0551 -0.2616 -2.0222
   57CHL1   C27 5395   6.345   6.761   4.819  0.3519  0.0617  0.3811
   57CHL1  H27A 5396   6.383   6.837   4.747 -1.2084  1.7282  1.2487
   57CHL1  H27B 5397   6.235   6.774   4.823  0.1308 -1.4918 -0.0185
   57CHL1  H27C 5398   6.383   6.790   4.919 -0.2030  1.6773  0.1453
   58CHL1    C3 5399   6.607   5.842   3.070  0.3491 -0.3555  0.7307
   58CHL1    H3 5400   6.560   5.743   3.050 -0.8631  0.1909  0.7641
   58CHL1    O3 5401   6.636   5.904   2.942 -0.0606  0.4047  0.6841
   58CHL1   H3' 5402   6.694   5.978   2.961  0.8229 -0.4753  1.5101
   58CHL1    C4 5403   6.520   5.938   3.145  0.0946 -0.1432 -0.1459
   58CHL1   H4A 5404   6.560   6.041   3.155 -0.6075  0.1360 -0.1621
   58CHL1   H4B 5405   6.427   5.944   3.084 -0.6978 -1.8469  0.8105
   58CHL1    C5 5406   6.491   5.898   3.287  0.3427 -0.4968 -0.1066
   58CHL1    C6 5407   6.363   5.881   3.328 -0.0173  0.3859 -0.8411
   58CHL1    H6 5408   6.279   5.904   3.261  0.9585  0.1251 -2.1856
   58CHL1    C7 5409   6.329   5.837   3.478  0.1398 -0.3743 -0.1821
   58CHL1   H7A 5410   6.245   5.893   3.523  0.3684 -1.7155  2.0510
   58CHL1   H7B 5411   6.307   5.729   3.463  1.4207 -0.3943 -2.4114
   58CHL1    C8 5412   6.455   5.869   3.567  0.4156 -0.1175 -0.5741
   58CHL1    H8 5413   6.467   5.980   3.573 -3.2272  0.3973 -0.5532
   58CHL1   C14 5414   6.432   5.801   3.702 -0.0806  0.1301  0.3024
   58CHL1   H14 5415   6.427   5.693   3.678  1.9019  0.1468 -0.3790
   58CHL1   C15 5416   6.300   5.831   3.778 -0.1988 -0.1793  0.1626
   58CHL1  H15A 5417   6.298   5.940   3.758  2.5164 -0.1745 -0.4445
   58CHL1  H15B 5418   6.213   5.771   3.744  0.6817  0.0247 -2.7266
   58CHL1   C16 5419   6.334   5.814   3.923  0.3245 -0.3799 -0.6906
   58CHL1  H16A 5420   6.321   5.911   3.975 -1.2577 -0.2304 -1.3057
   58CHL1  H16B 5421   6.263   5.742   3.968 -1.9520  2.6457  0.9400
   58CHL1   C17 5422   6.486   5.777   3.923 -0.0335 -0.4530 -0.3051
   58CHL1   H17 5423   6.501   5.667   3.919 -0.2999 -0.4655 -1.1397
   58CHL1   C13 5424   6.542   5.828   3.799  0.2400 -0.2275 -0.2181
   58CHL1   C18 5425   6.561   5.981   3.821 -0.8976  0.5533  0.1408
   58CHL1  H18A 5426   6.635   6.005   3.900 -1.4623 -1.8548  1.5072
   58CHL1  H18B 5427   6.608   6.030   3.733  1.4414 -1.5656  0.0893
   58CHL1  H18C 5428   6.464   6.033   3.838 -1.5545 -0.8363  0.8193
   58CHL1   C12 5429   6.667   5.760   3.737 -0.7394  0.0085 -0.3548
   58CHL1  H12A 5430   6.754   5.764   3.807 -1.3344 -1.3135  0.4876
   58CHL1  H12B 5431   6.643   5.654   3.715 -1.1229 -0.1036  0.5682
   58CHL1   C11 5432   6.707   5.821   3.597 -0.2553  0.0392 -0.0510
   58CHL1  H11A 5433   6.751   5.921   3.615  0.5295 -0.4399  0.8443
   58CHL1  H11B 5434   6.785   5.752   3.558 -0.7036 -1.4418  1.5223
   58CHL1    C9 5435   6.585   5.817   3.505 -0.3348 -0.1055 -0.0769
   58CHL1    H9 5436   6.572   5.707   3.499 -0.6581 -0.1387  1.1250
   58CHL1   C10 5437   6.614   5.868   3.366  0.3446  0.4431 -0.4070
   58CHL1   C19 5438   6.684   6.004   3.384  0.2146  0.1420 -0.4173
   58CHL1  H19A 5439   6.702   6.055   3.288 -1.3555 -0.4939 -1.0872
   58CHL1  H19B 5440   6.633   6.072   3.455 -0.3373  0.3941 -1.0414
   58CHL1  H19C 5441   6.789   6.002   3.420 -0.6010  0.4354  2.1582
   58CHL1    C1 5442   6.713   5.774   3.293 -0.6278 -0.0448  0.5231
   58CHL1   H1A 5443   6.811   5.746   3.336  0.0438  0.7201 -0.4643
   58CHL1   H1B 5444   6.658   5.678   3.284 -1.8933  0.6147  0.9836
   58CHL1    C2 5445   6.743   5.822   3.149  1.0181 -1.1521  1.0438
   58CHL1   H2A 5446   6.803   5.750   3.089  2.5483  0.7401  0.1647
   58CHL1   H2B 5447   6.807   5.913   3.142 -0.5036 -0.0734  0.5051
   58CHL1   C20 5448   6.552   5.823   4.061 -0.2570 -0.4537 -0.0561
   58CHL1   H20 5449   6.519   5.927   4.080 -0.8715 -0.7443  0.4926
   58CHL1   C21 5450   6.702   5.812   4.066  0.1408 -0.2218 -1.1373
   58CHL1  H21A 5451   6.764   5.876   3.999 -1.1216 -0.5426 -2.6660
   58CHL1  H21B 5452   6.720   5.709   4.029 -3.0868 -1.4508  0.3751
   58CHL1  H21C 5453   6.737   5.823   4.171 -0.6713  0.4719 -0.9327
   58CHL1   C22 5454   6.486   5.739   4.174 -0.4377  0.0965 -0.1284
   58CHL1  H22A 5455   6.384   5.783   4.174 -0.0569  1.0001 -0.0103
   58CHL1  H22B 5456   6.467   5.632   4.152 -0.8940 -0.2755  1.8203
   58CHL1   C23 5457   6.540   5.749   4.322 -0.4224  0.4754  0.0027
   58CHL1  H23A 5458   6.636   5.693   4.326 -1.2359 -1.0154 -0.5616
   58CHL1  H23B 5459   6.571   5.854   4.341 -0.1401  0.0513  2.0905
   58CHL1   C24 5460   6.438   5.694   4.426 -0.9578  0.2913  0.3868
   58CHL1  H24A 5461   6.338   5.702   4.379  0.1978  1.0552 -2.1334
   58CHL1  H24B 5462   6.463   5.585   4.422  2.9599  1.0701 -1.5242
   58CHL1   C25 5463   6.460   5.746   4.568 -0.5628 -0.8356  0.2282
   58CHL1   H25 5464   6.565   5.732   4.601 -0.4203 -1.3470 -0.4225
   58CHL1   C26 5465   6.424   5.891   4.586  0.0551  0.0666 -0.6805
   58CHL1  H26A 5466   6.321   5.909   4.546  0.3082  0.6207 -1.0983
   58CHL1  H26B 5467   6.440   5.921   4.692 -0.5516  1.5272 -0.9715
   58CHL1  H26C 5468   6.483   5.959   4.521 -1.0902 -1.1629 -3.1559
   58CHL1   C27 5469   6.379   5.657   4.659  0.3906  0.0858  0.5074
   58CHL1  H27A 5470   6.404   5.675   4.766  2.4347  3.4624 -0.3798
   58CHL1  H27B 5471   6.272   5.675   4.634  0.2565 -1.3230 -0.0065
   58CHL1  H27C 5472   6.400   5.551   4.636  1.9255  0.7217 -1.3013
   59CHL1    C3 5473   4.326   6.485   3.448 -0.2361 -0.1358 -0.1991
   59CHL1    H3 5474   4.252   6.566   3.433  1.5668  1.1009 -3.3265
   59CHL1    O3 5475   4.375   6.460   3.317  0.2662 -0.3693 -0.5804
   59CHL1   H3' 5476   4.448   6.400   3.332  0.6994  0.3937  0.4920
   59CHL1    C4 5477   4.437   6.526   3.545 -0.0204 -0.2033 -0.4370
   59CHL1   H4A 5478   4.527   6.462   3.533  0.8476  0.4208  2.1355
   59CHL1   H4B 5479   4.475   6.628   3.523 -0.1733  0.2926  1.4396
   59CHL1    C5 5480   4.392   6.522   3.689  0.0127 -0.1534 -0.2289
   59CHL1    C6 5481   4.408   6.630   3.770  0.2573 -0.4172  0.3787
   59CHL1    H6 5482   4.447   6.724   3.727 -3.6286  1.3049  0.2431
   59CHL1    C7 5483   4.378   6.632   3.911  0.1026 -0.1433 -0.9658
   59CHL1   H7A 5484   4.471   6.671   3.958  0.2029  0.2547 -1.4977
   59CHL1   H7B 5485   4.288   6.688   3.943  0.0953 -1.1351  0.8957
   59CHL1    C8 5486   4.359   6.488   3.969 -0.1106 -0.2902 -0.3123
   59CHL1    H8 5487   4.459   6.440   3.974  0.1057  0.3047  1.6978
   59CHL1   C14 5488   4.291   6.506   4.110 -0.5543  0.3775 -0.1041
   59CHL1   H14 5489   4.192   6.553   4.088 -0.9728 -0.3432  0.1861
   59CHL1   C15 5490   4.361   6.600   4.210  0.0820  0.3053  0.2383
   59CHL1  H15A 5491   4.462   6.554   4.211 -1.6645 -3.9328  0.8865
   59CHL1  H15B 5492   4.352   6.708   4.184 -2.8686 -0.3345 -1.9033
   59CHL1   C16 5493   4.300   6.567   4.342  0.1413 -0.9986  0.2058
   59CHL1  H16A 5494   4.378   6.530   4.412  1.1251  0.2541 -0.1906
   59CHL1  H16B 5495   4.256   6.656   4.393  0.4733 -0.0923 -1.0331
   59CHL1   C17 5496   4.201   6.442   4.321  0.0811  0.5995 -0.2517
   59CHL1   H17 5497   4.102   6.488   4.301 -0.3167  0.2808  0.9012
   59CHL1   C13 5498   4.257   6.384   4.184 -0.3919  0.7373 -0.2122
   59CHL1   C18 5499   4.385   6.299   4.221  0.4327 -1.2398  0.1449
   59CHL1  H18A 5500   4.428   6.246   4.133 -0.3610  1.8046 -2.2736
   59CHL1  H18B 5501   4.452   6.367   4.279 -0.4069  0.1217 -0.4214
   59CHL1  H18C 5502   4.359   6.216   4.289 -0.0882 -1.2198 -0.0214
   59CHL1   C12 5503   4.166   6.294   4.090 -0.4800  0.3937 -0.1094
   59CHL1  H12A 5504   4.145   6.201   4.147 -1.4952  1.0727  0.6753
   59CHL1  H12B 5505   4.067   6.346   4.091  0.5287  2.4456 -0.1414
   59CHL1   C11 5506   4.231   6.270   3.951 -0.1023 -0.3966  0.8822
   59CHL1  H11A 5507   4.308   6.191   3.968 -1.1819 -1.7531 -0.3687
   59CHL1  H11B 5508   4.149   6.226   3.891 -0.5490  1.4934  0.0214
   59CHL1    C9 5509   4.269   6.406   3.882 -0.0772  0.2806  0.0007
   59CHL1    H9 5510   4.169   6.454   3.870  0.0769  0.9068  1.1527
   59CHL1   C10 5511   4.332   6.390   3.745  0.1977 -0.1678 -0.4072
   59CHL1   C19 5512   4.427   6.269   3.734 -0.4340 -0.3503  0.0377
   59CHL1  H19A 5513   4.391   6.166   3.751  0.8309 -1.0182 -1.0829
   59CHL1  H19B 5514   4.479   6.271   3.635 -0.9914  1.5174 -0.2678
   59CHL1  H19C 5515   4.503   6.277   3.815  0.0464  0.6572 -0.4890
   59CHL1    C1 5516   4.215   6.345   3.643 -0.9811 -0.6926  0.3539
   59CHL1   H1A 5517   4.171   6.246   3.665  0.0485 -1.9930 -2.8637
   59CHL1   H1B 5518   4.139   6.425   3.635  2.1775  2.4081 -1.2726
   59CHL1    C2 5519   4.267   6.346   3.493 -0.4743 -0.2214  0.0687
   59CHL1   H2A 5520   4.174   6.337   3.432 -1.2604  2.0981  0.8154
   59CHL1   H2B 5521   4.348   6.272   3.474  0.5630  0.9853 -0.3792
   59CHL1   C20 5522   4.179   6.352   4.440  0.6836 -0.1477 -0.5102
   59CHL1   H20 5523   4.263   6.283   4.460  0.3760  0.4011  3.5943
   59CHL1   C21 5524   4.054   6.269   4.412  1.1925 -0.5404 -0.0427
   59CHL1  H21A 5525   4.035   6.219   4.510 -1.2871 -1.1422 -0.7812
   59CHL1  H21B 5526   4.069   6.190   4.335 -2.3088  1.3923 -2.9950
   59CHL1  H21C 5527   3.964   6.327   4.385  2.1982  2.1279  1.9166
   59CHL1   C22 5528   4.163   6.442   4.570  0.1269  0.0235  0.7736
   59CHL1  H22A 5529   4.237   6.522   4.589 -0.9706  0.8303  1.8307
   59CHL1  H22B 5530   4.065   6.491   4.558 -0.5448 -1.3134  0.5511
   59CHL1   C23 5531   4.166   6.365   4.705  0.1960 -0.3546  0.1007
   59CHL1  H23A 5532   4.085   6.290   4.699  2.1262 -2.5255 -0.1178
   59CHL1  H23B 5533   4.268   6.322   4.718  0.5931  0.5034 -0.0876
   59CHL1   C24 5534   4.143   6.476   4.820 -0.1897  0.4409  0.7047
   59CHL1  H24A 5535   4.238   6.533   4.811  0.1845 -0.1721  0.6592
   59CHL1  H24B 5536   4.050   6.529   4.793 -0.7180  0.3315  2.2175
   59CHL1   C25 5537   4.128   6.430   4.965 -0.7555 -0.1718 -0.1351
   59CHL1   H25 5538   4.181   6.332   4.974 -2.4980 -1.1918 -0.5479
   59CHL1   C26 5539   4.173   6.540   5.068 -0.2004  0.2786 -0.2536
   59CHL1  H26A 5540   4.137   6.645   5.060 -0.0826  0.4272  0.9769
   59CHL1  H26B 5541   4.126   6.506   5.163  0.6668  0.4906  0.2574
   59CHL1  H26C 5542   4.281   6.546   5.091 -0.4162 -0.6174  1.0999
   59CHL1   C27 5543   3.982   6.386   4.999 -0.0167  0.6004  0.2273
   59CHL1  H27A 5544   3.947   6.313   4.923  0.5193  0.2665  0.2978
   59CHL1  H27B 5545   3.976   6.338   5.099 -0.8798 -3.6429 -1.6650
   59CHL1  H27C 5546   3.922   6.480   4.988 -1.5599 -0.1368  1.8874
   60CHL1    C3 5547   0.106   4.458   2.944 -0.3827 -1.1490 -0.5524
   60CHL1    H3 5548   0.081   4.566   2.953  1.4847 -0.3644 -3.3834
   60CHL1    O3 5549   0.159   4.453   2.810  0.5002 -0.3487 -0.9093
   60CHL1   H3' 5550   0.255   4.456   2.821  0.5994 -0.7805 -1.6593
   60CHL1    C4 5551   0.215   4.413   3.043  0.7739  0.1288  0.0287
   60CHL1   H4A 5552   0.251   4.309   3.024  2.6321  1.0579 -1.9991
   60CHL1   H4B 5553   0.293   4.490   3.023 -1.3019  2.3193  0.0348
   60CHL1    C5 5554   0.166   4.433   3.181  0.4822  0.1762 -0.2791
   60CHL1    C6 5555   0.233   4.508   3.274  0.2560  0.0670  0.4198
   60CHL1    H6 5556   0.327   4.554   3.240  2.0367 -3.5267 -0.0923
   60CHL1    C7 5557   0.182   4.535   3.411  0.8767  0.0738  0.2167
   60CHL1   H7A 5558   0.270   4.549   3.477  0.1942 -0.8353  1.3510
   60CHL1   H7B 5559   0.135   4.635   3.413  2.4492  0.9350 -2.2130
   60CHL1    C8 5560   0.089   4.424   3.454 -0.4094 -0.0994 -0.2669
   60CHL1    H8 5561   0.141   4.327   3.470 -0.7984  0.1510  3.0768
   60CHL1   C14 5562   0.034   4.462   3.591 -0.2817 -0.2239 -0.4758
   60CHL1   H14 5563  -0.018   4.557   3.566 -0.1685 -0.6882 -2.7767
   60CHL1   C15 5564   0.136   4.490   3.706 -0.1999  0.1120  0.0824
   60CHL1  H15A 5565   0.208   4.407   3.700 -1.7938 -1.2619 -1.0971
   60CHL1  H15B 5566   0.196   4.581   3.687 -0.2617  0.3566  1.0211
   60CHL1   C16 5567   0.057   4.474   3.835  0.1201  0.4710  0.0221
   60CHL1  H16A 5568   0.109   4.397   3.897  0.2550 -2.8273 -3.8103
   60CHL1  H16B 5569   0.045   4.576   3.878  0.5902  0.4975  0.1038
   60CHL1   C17 5570  -0.083   4.423   3.789  0.1184  0.1243  0.2898
   60CHL1   H17 5571  -0.145   4.516   3.790 -0.2792 -0.0989  2.6547
   60CHL1   C13 5572  -0.068   4.370   3.653  1.3500 -0.0609  0.0576
   60CHL1   C18 5573  -0.018   4.225   3.660  0.1668  0.3487 -0.5616
   60CHL1  H18A 5574   0.015   4.181   3.563 -0.8960 -1.2252 -0.2367
   60CHL1  H18B 5575   0.061   4.215   3.738 -1.4880  0.5520  1.2105
   60CHL1  H18C 5576  -0.100   4.162   3.700  0.3881  0.1673 -0.3878
   60CHL1   C12 5577  -0.186   4.394   3.553  0.2836  0.2010  0.5453
   60CHL1  H12A 5578  -0.275   4.338   3.588 -0.8039  0.2658 -1.9350
   60CHL1  H12B 5579  -0.213   4.501   3.539 -0.3519 -0.3031 -2.9444
   60CHL1   C11 5580  -0.148   4.334   3.411 -0.1291  0.4011 -0.2343
   60CHL1  H11A 5581  -0.111   4.230   3.419  3.0901  1.2927 -1.7156
   60CHL1  H11B 5582  -0.237   4.339   3.344  0.8655 -0.4708 -1.6912
   60CHL1    C9 5583  -0.026   4.416   3.350 -0.3380  0.1659 -0.1234
   60CHL1    H9 5584  -0.058   4.522   3.340 -0.3737  0.2449  0.7632
   60CHL1   C10 5585   0.029   4.366   3.215 -0.1117  0.0955  0.0083
   60CHL1   C19 5586   0.060   4.210   3.217  0.9541  0.1411  0.1498
   60CHL1  H19A 5587   0.093   4.188   3.113  1.0113  1.9736 -0.2565
   60CHL1  H19B 5588   0.139   4.176   3.286  1.2573 -0.7162 -0.5937
   60CHL1  H19C 5589  -0.025   4.142   3.243 -0.1981 -0.3027 -3.9202
   60CHL1    C1 5590  -0.080   4.400   3.111  0.1540  0.1664  0.1943
   60CHL1   H1A 5591  -0.171   4.337   3.118  0.2694 -0.0148  0.1038
   60CHL1   H1B 5592  -0.116   4.503   3.127  0.1490  0.1853  0.0649
   60CHL1    C2 5593  -0.030   4.387   2.959  0.3474  0.4091 -0.3456
   60CHL1   H2A 5594  -0.101   4.440   2.892 -0.2132 -0.5936 -0.5674
   60CHL1   H2B 5595  -0.007   4.281   2.936 -1.8643 -0.7525  2.2438
   60CHL1   C20 5596  -0.159   4.340   3.897 -0.4150  0.8376  0.1138
   60CHL1   H20 5597  -0.088   4.255   3.910  1.6680  1.9650 -2.9074
   60CHL1   C21 5598  -0.301   4.296   3.849  1.1794  0.0543  0.1750
   60CHL1  H21A 5599  -0.361   4.388   3.832  0.5237 -0.2378  0.8460
   60CHL1  H21B 5600  -0.352   4.238   3.929 -1.8703  2.1452 -0.0986
   60CHL1  H21C 5601  -0.300   4.243   3.752 -3.2062  0.4716 -0.2885
   60CHL1   C22 5602  -0.155   4.410   4.037  0.3817 -0.1090  0.2961
   60CHL1  H22A 5603  -0.052   4.438   4.069  0.4101  1.9131 -1.3431
   60CHL1  H22B 5604  -0.217   4.501   4.024 -0.6303 -0.7141  0.8040
   60CHL1   C23 5605  -0.217   4.327   4.151 -0.1576 -0.5988 -0.2284
   60CHL1  H23A 5606  -0.321   4.290   4.141 -1.0541  0.4003  3.5855
   60CHL1  H23B 5607  -0.160   4.232   4.157 -0.5924 -0.8882 -0.6553
   60CHL1   C24 5608  -0.213   4.398   4.290  0.1364  0.0805  0.0856
   60CHL1  H24A 5609  -0.124   4.460   4.316 -0.7361  0.3127  2.9017
   60CHL1  H24B 5610  -0.303   4.462   4.298  0.9795  1.2072  0.7553
   60CHL1   C25 5611  -0.216   4.302   4.417 -0.5363 -0.3022 -0.6194
   60CHL1   H25 5612  -0.132   4.230   4.408 -0.0562  0.0737  0.5945
   60CHL1   C26 5613  -0.193   4.392   4.545 -0.6419  0.0738  0.2037
   60CHL1  H26A 5614  -0.283   4.455   4.566 -0.4835  0.2505  0.3470
   60CHL1  H26B 5615  -0.176   4.327   4.634 -0.1274  1.2204  0.9686
   60CHL1  H26C 5616  -0.101   4.446   4.517 -0.1971 -1.7809 -2.2553
   60CHL1   C27 5617  -0.351   4.229   4.429  0.2474 -0.4787  0.0923
   60CHL1  H27A 5618  -0.367   4.157   4.347 -0.8288  0.1002 -0.2306
   60CHL1  H27B 5619  -0.346   4.166   4.521  3.9201  0.3250  0.6309
   60CHL1  H27C 5620  -0.436   4.300   4.439  0.2566 -0.2347 -1.4297
   61CHL1    C3 5621   0.510   0.778   3.396 -0.0720  0.5052 -0.3517
   61CHL1    H3 5622   0.535   0.670   3.410 -0.8509 -0.1243 -3.2387
   61CHL1    O3 5623   0.509   0.792   3.255  0.1706  0.4676  0.1987
   61CHL1   H3' 5624   0.507   0.883   3.224  0.1117  0.4594  0.1772
   61CHL1    C4 5625   0.382   0.818   3.460 -0.8878 -0.2271 -0.4383
   61CHL1   H4A 5626   0.357   0.921   3.427  1.0338 -0.0590 -1.5106
   61CHL1   H4B 5627   0.291   0.767   3.422 -3.5918  4.7001 -1.4395
   61CHL1    C5 5628   0.384   0.813   3.612 -0.0211  0.4929 -0.4121
   61CHL1    C6 5629   0.290   0.739   3.676 -0.1524  0.1449  0.1569
   61CHL1    H6 5630   0.199   0.704   3.627 -1.2813  1.5632  1.1402
   61CHL1    C7 5631   0.299   0.722   3.825  0.0370 -0.1593 -0.5496
   61CHL1   H7A 5632   0.197   0.727   3.868  0.8412  1.3084  1.3083
   61CHL1   H7B 5633   0.328   0.617   3.845 -0.2489 -0.0807  0.2911
   61CHL1    C8 5634   0.394   0.816   3.904 -0.0329 -0.0356 -0.7683
   61CHL1    H8 5635   0.337   0.911   3.915  0.1390  0.0316 -0.4172
   61CHL1   C14 5636   0.414   0.767   4.045  0.1968 -0.2757 -0.5039
   61CHL1   H14 5637   0.459   0.665   4.047  0.7074 -0.0514  1.5084
   61CHL1   C15 5638   0.293   0.746   4.140  0.0566 -0.3457 -0.2260
   61CHL1  H15A 5639   0.228   0.837   4.138  0.0846 -0.3454 -1.0969
   61CHL1  H15B 5640   0.236   0.651   4.137 -2.5138  0.9854  1.5709
   61CHL1   C16 5641   0.357   0.765   4.277  0.2001 -0.4493  0.4377
   61CHL1  H16A 5642   0.310   0.855   4.322  2.7357  0.9935  0.4047
   61CHL1  H16B 5643   0.334   0.685   4.350 -0.7170  2.6708  3.8790
   61CHL1   C17 5644   0.507   0.793   4.259  0.2474  0.5240  0.3376
   61CHL1   H17 5645   0.555   0.693   4.265 -2.5122 -0.9045  0.2150
   61CHL1   C13 5646   0.512   0.854   4.124  0.1493 -0.1882  0.3822
   61CHL1   C18 5647   0.457   1.002   4.138  0.1216 -0.3236  1.0830
   61CHL1  H18A 5648   0.436   1.048   4.039 -0.1440  0.2053  1.3825
   61CHL1  H18B 5649   0.374   1.026   4.208 -0.7502  1.7798 -0.5416
   61CHL1  H18C 5650   0.543   1.064   4.172 -1.4959  3.0201 -0.4304
   61CHL1   C12 5651   0.644   0.855   4.046 -0.1102  0.2366  0.1509
   61CHL1  H12A 5652   0.711   0.925   4.099  0.5007 -0.6125  0.5251
   61CHL1  H12B 5653   0.684   0.752   4.057  0.5145  0.2478 -1.6851
   61CHL1   C11 5654   0.628   0.897   3.903 -0.2498 -0.4325  0.3674
   61CHL1  H11A 5655   0.592   1.001   3.888 -3.7269 -1.6840 -0.9252
   61CHL1  H11B 5656   0.725   0.894   3.849 -0.1746 -0.8838  0.5157
   61CHL1    C9 5657   0.521   0.818   3.825 -0.3721 -0.6345 -0.9063
   61CHL1    H9 5658   0.554   0.712   3.824 -0.8923 -0.9121  1.9312
   61CHL1   C10 5659   0.505   0.881   3.679 -0.5585  0.1664 -0.0667
   61CHL1   C19 5660   0.483   1.031   3.686  0.1993 -0.5184  0.0443
   61CHL1  H19A 5661   0.451   1.084   3.594 -0.4072 -0.2132  0.4236
   61CHL1  H19B 5662   0.407   1.047   3.766  0.3203 -2.5187  0.6072
   61CHL1  H19C 5663   0.577   1.087   3.705  1.9247 -2.2117 -2.7683
   61CHL1    C1 5664   0.635   0.850   3.600  0.3484 -0.2939  0.0132
   61CHL1   H1A 5665   0.721   0.906   3.642  0.1445 -0.0136  0.0638
   61CHL1   H1B 5666   0.660   0.745   3.625 -2.1796 -1.0045 -0.0829
   61CHL1    C2 5667   0.626   0.864   3.444 -0.4522 -0.0971  0.4455
   61CHL1   H2A 5668   0.723   0.831   3.401  0.0522  0.5634  1.0551
   61CHL1   H2B 5669   0.616   0.969   3.410  3.8599  0.3261 -0.1492
   61CHL1   C20 5670   0.570   0.864   4.386 -0.8643 -0.1159  0.1747
   61CHL1   H20 5671   0.546   0.972   4.384  1.0775  0.4191  1.9552
   61CHL1   C21 5672   0.717   0.843   4.384  0.5807 -0.0930 -0.5635
   61CHL1  H21A 5673   0.763   0.877   4.479  1.1556  0.1867 -0.9339
   61CHL1  H21B 5674   0.767   0.910   4.310  1.0625  2.8730  2.2329
   61CHL1  H21C 5675   0.733   0.733   4.377  0.3084 -0.2242  0.7313
   61CHL1   C22 5676   0.516   0.813   4.527  0.2637  0.1022  0.5830
   61CHL1  H22A 5677   0.570   0.867   4.608 -0.3665 -0.6830  1.5555
   61CHL1  H22B 5678   0.409   0.841   4.539  0.9971  2.2336  3.1130
   61CHL1   C23 5679   0.521   0.659   4.559  0.6429 -0.2135 -0.1668
   61CHL1  H23A 5680   0.501   0.597   4.469 -1.7130 -1.3795  1.0678
   61CHL1  H23B 5681   0.627   0.646   4.589  0.5308 -1.5203 -0.3026
   61CHL1   C24 5682   0.433   0.615   4.679 -0.1578  0.1828 -0.4700
   61CHL1  H24A 5683   0.451   0.678   4.769 -0.1380 -0.6959  0.1658
   61CHL1  H24B 5684   0.328   0.642   4.655 -0.2012 -0.1370 -0.6458
   61CHL1   C25 5685   0.437   0.463   4.723  0.0324  0.1586  0.3151
   61CHL1   H25 5686   0.462   0.401   4.634  0.2008 -1.9626  1.7874
   61CHL1   C26 5687   0.550   0.441   4.824  0.2815  0.3622 -0.2390
   61CHL1  H26A 5688   0.556   0.330   4.833 -0.2976  0.2539 -1.0702
   61CHL1  H26B 5689   0.647   0.473   4.781  0.5317 -0.3177 -0.1970
   61CHL1  H26C 5690   0.525   0.484   4.923 -2.4823 -1.4270 -0.0472
   61CHL1   C27 5691   0.301   0.407   4.761 -0.1109 -0.5041 -0.2216
   61CHL1  H27A 5692   0.307   0.299   4.786  2.9971 -0.3755 -0.0791
   61CHL1  H27B 5693   0.259   0.447   4.855  2.8160 -2.0264  1.8879
   61CHL1  H27C 5694   0.234   0.413   4.672 -0.0155  1.9459 -0.1878
   62CHL1    C3 5695   1.179   6.781   3.354 -0.2319  0.0947 -1.2293
   62CHL1    H3 5696   1.274   6.834   3.375 -0.8216  0.9351 -0.6445
   62CHL1    O3 5697   1.138   6.773   3.223 -0.0762  0.1286 -0.3083
   62CHL1   H3' 5698   1.054   6.727   3.231 -1.4769  2.4094 -0.7853
   62CHL1    C4 5699   1.200   6.635   3.405  0.0671  0.1572  0.1186
   62CHL1   H4A 5700   1.106   6.579   3.384  0.9558 -0.5196 -2.2907
   62CHL1   H4B 5701   1.276   6.586   3.342  0.9038  0.7992  0.6027
   62CHL1    C5 5702   1.228   6.622   3.557 -0.5436 -0.4902  0.2951
   62CHL1    C6 5703   1.332   6.545   3.608  0.2058  0.3804 -0.7114
   62CHL1    H6 5704   1.409   6.501   3.543  1.2292  1.2077 -0.0817
   62CHL1    C7 5705   1.355   6.530   3.759  0.1448  0.6425  0.4653
   62CHL1   H7A 5706   1.382   6.426   3.787  0.4023  0.4789 -0.3657
   62CHL1   H7B 5707   1.441   6.592   3.791  0.3837  0.2845  0.5266
   62CHL1    C8 5708   1.242   6.593   3.849  0.4001 -0.4427  0.1658
   62CHL1    H8 5709   1.158   6.522   3.858  0.0336 -0.2546 -1.3929
   62CHL1   C14 5710   1.294   6.628   3.988  0.1398 -0.1537  0.0741
   62CHL1   H14 5711   1.368   6.707   3.964 -0.7870  0.8115  0.3377
   62CHL1   C15 5712   1.380   6.527   4.061  0.5591  0.2867 -0.2821
   62CHL1  H15A 5713   1.316   6.437   4.059 -1.1171  1.4406 -0.7863
   62CHL1  H15B 5714   1.471   6.488   4.011 -0.1631 -1.9552  0.0406
   62CHL1   C16 5715   1.412   6.597   4.188 -0.2349  0.5520 -0.0411
   62CHL1  H16A 5716   1.405   6.518   4.265 -0.2118 -0.0985 -0.6960
   62CHL1  H16B 5717   1.515   6.639   4.193 -0.1957  0.5441 -0.6821
   62CHL1   C17 5718   1.296   6.700   4.220 -0.0401 -0.1374  0.4341
   62CHL1   H17 5719   1.335   6.803   4.206  0.0149 -0.2569 -0.3243
   62CHL1   C13 5720   1.199   6.685   4.097 -0.4703  0.0290 -0.4848
   62CHL1   C18 5721   1.089   6.585   4.123  0.3656 -0.4619  0.7345
   62CHL1  H18A 5722   1.121   6.480   4.140 -0.4378 -1.2504 -1.9727
   62CHL1  H18B 5723   1.025   6.610   4.211  1.4717  2.7355  0.7729
   62CHL1  H18C 5724   1.023   6.574   4.033 -1.5356  0.1742  1.9829
   62CHL1   C12 5725   1.145   6.815   4.031 -0.1127  0.0727 -0.2396
   62CHL1  H12A 5726   1.063   6.842   4.102 -2.3613 -0.5260 -2.4745
   62CHL1  H12B 5727   1.235   6.880   4.040 -0.0753  0.4436 -2.6214
   62CHL1   C11 5728   1.089   6.797   3.892  0.1317 -0.3001 -1.0086
   62CHL1  H11A 5729   0.990   6.748   3.904  0.4437 -0.3054  2.2476
   62CHL1  H11B 5730   1.063   6.902   3.867 -0.2479  0.3381  1.7720
   62CHL1    C9 5731   1.187   6.725   3.796 -0.2091 -0.3909  0.0064
   62CHL1    H9 5732   1.276   6.791   3.787 -0.7504  0.0443 -4.5153
   62CHL1   C10 5733   1.136   6.707   3.654 -0.5633  0.0086  0.6323
   62CHL1   C19 5734   0.999   6.628   3.652 -0.5303 -0.1838  0.1782
   62CHL1  H19A 5735   0.959   6.621   3.549 -0.5449 -3.1352  0.2974
   62CHL1  H19B 5736   1.007   6.529   3.703  1.7685  0.2894  0.8594
   62CHL1  H19C 5737   0.923   6.689   3.705 -2.1358 -1.4268 -0.6406
   62CHL1    C1 5738   1.115   6.849   3.595  0.3248 -0.6020  0.5019
   62CHL1   H1A 5739   1.044   6.910   3.655  1.1354  0.3133  0.5470
   62CHL1   H1B 5740   1.212   6.901   3.607  0.4673 -0.5367 -0.8057
   62CHL1    C2 5741   1.071   6.850   3.446 -0.9578  0.1775  0.2215
   62CHL1   H2A 5742   1.046   6.950   3.405 -0.7303 -0.1669 -0.7910
   62CHL1   H2B 5743   0.978   6.790   3.436 -0.7959 -0.4111  1.9509
   62CHL1   C20 5744   1.241   6.698   4.363  0.0409  0.3363 -0.4770
   62CHL1   H20 5745   1.180   6.605   4.373  1.0273 -0.3448 -0.6265
   62CHL1   C21 5746   1.143   6.820   4.376  0.5829  0.4061  0.1598
   62CHL1  H21A 5747   1.058   6.802   4.307 -0.7760  0.5812  1.7258
   62CHL1  H21B 5748   1.191   6.916   4.347  2.1607 -0.5483 -0.5286
   62CHL1  H21C 5749   1.107   6.818   4.481  1.6466  0.1120  0.5260
   62CHL1   C22 5750   1.350   6.690   4.477  0.1709 -0.5951  1.2732
   62CHL1  H22A 5751   1.443   6.632   4.463 -0.0192 -0.7210  0.4822
   62CHL1  H22B 5752   1.385   6.794   4.493 -0.1256 -0.4061  0.7270
   62CHL1   C23 5753   1.292   6.644   4.612  0.6188  0.3974  0.7330
   62CHL1  H23A 5754   1.196   6.699   4.627  0.7306  1.1759 -1.0438
   62CHL1  H23B 5755   1.260   6.538   4.600 -0.2581  0.8024 -0.8071
   62CHL1   C24 5756   1.387   6.667   4.729 -0.3085 -0.1344 -1.0601
   62CHL1  H24A 5757   1.481   6.610   4.715 -0.2143 -0.7629  1.6546
   62CHL1  H24B 5758   1.418   6.774   4.731  0.5329 -0.3481  2.5503
   62CHL1   C25 5759   1.326   6.652   4.858 -0.3990  0.4362 -0.7126
   62CHL1   H25 5760   1.242   6.723   4.867 -0.8476 -0.1813  0.1935
   62CHL1   C26 5761   1.280   6.507   4.879  0.4073  0.1336 -0.2411
   62CHL1  H26A 5762   1.362   6.434   4.866  0.7796  0.5391 -0.2125
   62CHL1  H26B 5763   1.238   6.491   4.980  0.1472  2.4149  0.0591
   62CHL1  H26C 5764   1.196   6.497   4.807  0.3437  2.9425 -0.6733
   62CHL1   C27 5765   1.415   6.700   4.978  0.7802 -0.1067  0.4517
   62CHL1  H27A 5766   1.376   6.659   5.074  2.0723  1.8457  1.8861
   62CHL1  H27B 5767   1.521   6.672   4.964  0.9882  1.2043 -0.7838
   62CHL1  H27C 5768   1.397   6.810   4.981  0.4600 -0.1596  0.5486
   63CHL1    C3 5769   0.127   3.848   2.955 -0.2812  0.6384  0.1711
   63CHL1    H3 5770   0.056   3.929   2.982 -0.9605 -0.0620  0.5388
   63CHL1    O3 5771   0.205   3.895   2.852  0.0778 -0.3831 -0.7069
   63CHL1   H3' 5772   0.283   3.842   2.862  0.8859  1.0845  1.5551
   63CHL1    C4 5773   0.218   3.812   3.067 -0.0226 -0.6182  0.0348
   63CHL1   H4A 5774   0.293   3.736   3.036 -0.6889 -0.9977 -0.6703
   63CHL1   H4B 5775   0.275   3.906   3.084  0.6762 -0.7243 -1.6280
   63CHL1    C5 5776   0.142   3.764   3.185 -0.7824  0.1643 -0.8263
   63CHL1    C6 5777   0.161   3.830   3.301  0.2653  0.1537 -0.5918
   63CHL1    H6 5778   0.231   3.913   3.316  0.4134 -0.1465  0.4467
   63CHL1    C7 5779   0.087   3.793   3.429  0.0427 -0.5662 -0.5300
   63CHL1   H7A 5780   0.157   3.780   3.514  0.3171  0.7247 -0.5297
   63CHL1   H7B 5781   0.029   3.883   3.458 -0.4788 -0.7539 -0.9743
   63CHL1    C8 5782   0.010   3.662   3.419 -0.3900 -0.5436 -0.2218
   63CHL1    H8 5783   0.083   3.580   3.437  0.7252 -0.1162 -2.4484
   63CHL1   C14 5784  -0.097   3.658   3.526 -0.8452 -0.4898  0.4321
   63CHL1   H14 5785  -0.164   3.743   3.499  0.7662  0.5758 -0.3333
   63CHL1   C15 5786  -0.051   3.683   3.675 -0.2127 -0.4409  0.6713
   63CHL1  H15A 5787   0.033   3.612   3.692 -0.0073 -0.2427  0.4902
   63CHL1  H15B 5788  -0.017   3.786   3.698  0.9684 -1.1871  2.4905
   63CHL1   C16 5789  -0.175   3.629   3.750 -0.4099 -0.3276 -0.5468
   63CHL1  H16A 5790  -0.132   3.561   3.827 -2.0088  1.1273  1.7664
   63CHL1  H16B 5791  -0.230   3.712   3.799  1.1465 -0.8964  2.4045
   63CHL1   C17 5792  -0.266   3.551   3.656  0.0614  0.0549 -0.7040
   63CHL1   H17 5793  -0.343   3.624   3.624  0.7706  0.5275 -1.3874
   63CHL1   C13 5794  -0.180   3.527   3.533 -0.0025  0.0874 -0.2436
   63CHL1   C18 5795  -0.088   3.405   3.561  0.1279  0.5064 -0.1299
   63CHL1  H18A 5796  -0.018   3.416   3.646 -0.5527  0.1363  0.4902
   63CHL1  H18B 5797  -0.139   3.307   3.571  0.8519  0.0981 -0.3622
   63CHL1  H18C 5798  -0.025   3.384   3.472  0.2403 -1.5726  0.3827
   63CHL1   C12 5799  -0.259   3.512   3.402  0.0042 -0.2659  0.1639
   63CHL1  H12A 5800  -0.301   3.410   3.394  0.7580 -0.5138 -1.0818
   63CHL1  H12B 5801  -0.338   3.583   3.371  0.3927 -0.5226 -1.5246
   63CHL1   C11 5802  -0.161   3.525   3.281 -0.0241  0.5830  0.8745
   63CHL1  H11A 5803  -0.115   3.424   3.273 -2.3656 -0.4087 -3.3758
   63CHL1  H11B 5804  -0.214   3.520   3.183  2.2824 -0.1063 -0.4302
   63CHL1    C9 5805  -0.051   3.641   3.281  0.7509  0.3247 -0.5927
   63CHL1    H9 5806  -0.120   3.727   3.268 -1.0927 -0.8853  0.6790
   63CHL1   C10 5807   0.043   3.645   3.162  0.6491 -0.4454  0.4000
   63CHL1   C19 5808   0.106   3.504   3.137 -0.2843  0.6421  0.2073
   63CHL1  H19A 5809   0.025   3.430   3.124 -0.5773  1.0113 -0.1255
   63CHL1  H19B 5810   0.182   3.491   3.057 -0.2830 -1.4497  0.4984
   63CHL1  H19C 5811   0.157   3.475   3.231  1.8123 -2.1077 -1.5950
   63CHL1    C1 5812  -0.039   3.678   3.026 -0.2493 -0.2315 -0.1092
   63CHL1   H1A 5813  -0.086   3.584   2.992 -1.8149  0.9421 -1.3393
   63CHL1   H1B 5814  -0.125   3.745   3.049 -0.9236 -1.3805  0.7874
   63CHL1    C2 5815   0.049   3.723   2.916 -0.4652 -0.3596  0.4166
   63CHL1   H2A 5816  -0.009   3.736   2.821 -0.5778  0.9692  0.6456
   63CHL1   H2B 5817   0.122   3.647   2.881 -2.5508 -2.4960  0.3995
   63CHL1   C20 5818  -0.327   3.435   3.736 -0.5010 -0.1739 -0.0598
   63CHL1   H20 5819  -0.241   3.380   3.779 -0.1123  1.1720  0.9573
   63CHL1   C21 5820  -0.413   3.341   3.654 -0.0682 -0.5314 -0.3278
   63CHL1  H21A 5821  -0.437   3.245   3.705 -0.6398 -0.5307 -0.5943
   63CHL1  H21B 5822  -0.347   3.310   3.569  1.6651  0.3959  0.6244
   63CHL1  H21C 5823  -0.503   3.388   3.609  0.3134  1.4578  0.8500
   63CHL1   C22 5824  -0.415   3.475   3.861  0.3574  0.1618 -0.2202
   63CHL1  H22A 5825  -0.369   3.564   3.909 -0.9471  0.0594  1.2881
   63CHL1  H22B 5826  -0.517   3.500   3.825 -0.1592 -0.3303  0.8475
   63CHL1   C23 5827  -0.414   3.374   3.975  0.0683  0.9143  0.8136
   63CHL1  H23A 5828  -0.443   3.274   3.938 -1.3054  0.5940  2.5829
   63CHL1  H23B 5829  -0.308   3.355   4.005  0.8672  2.0901 -1.0445
   63CHL1   C24 5830  -0.507   3.409   4.093  0.2356 -0.2928 -0.8325
   63CHL1  H24A 5831  -0.497   3.512   4.134 -1.5179 -0.3574 -0.1699
   63CHL1  H24B 5832  -0.610   3.420   4.055  0.3549  1.6624 -0.6808
   63CHL1   C25 5833  -0.495   3.314   4.216  0.4115 -0.3223 -0.4672
   63CHL1   H25 5834  -0.386   3.317   4.240  0.3270 -1.2745  0.1034
   63CHL1   C26 5835  -0.587   3.359   4.332 -0.0806 -0.9729  0.2379
   63CHL1  H26A 5836  -0.616   3.272   4.395 -1.6261 -0.9004 -0.3230
   63CHL1  H26B 5837  -0.542   3.438   4.396  1.6834 -0.7035 -1.2629
   63CHL1  H26C 5838  -0.692   3.386   4.307  0.4719  0.7084 -0.4057
   63CHL1   C27 5839  -0.513   3.165   4.197 -0.3776 -0.1496  0.1123
   63CHL1  H27A 5840  -0.616   3.143   4.164 -0.6815  2.7093 -1.2323
   63CHL1  H27B 5841  -0.452   3.127   4.112 -0.0814  1.0090 -0.2165
   63CHL1  H27C 5842  -0.477   3.112   4.287  1.3787  1.3617  0.3693
   64CHL1    C3 5843   4.660   3.210   3.050  0.2619  0.2002 -0.9023
   64CHL1    H3 5844   4.686   3.103   3.061 -2.8576 -0.5205  0.6517
   64CHL1    O3 5845   4.679   3.255   2.915  0.4189  0.2225 -0.1820
   64CHL1   H3' 5846   4.608   3.208   2.869 -2.3438  1.9469  1.9655
   64CHL1    C4 5847   4.510   3.214   3.093  0.8503  0.5758  0.1605
   64CHL1   H4A 5848   4.467   3.312   3.064 -0.3334 -0.5404 -2.1890
   64CHL1   H4B 5849   4.460   3.139   3.028 -1.0294  2.8291 -1.1472
   64CHL1    C5 5850   4.484   3.185   3.244 -0.0849  0.4513  0.3357
   64CHL1    C6 5851   4.396   3.099   3.286  0.3821  0.3679  0.1814
   64CHL1    H6 5852   4.343   3.044   3.207  1.8956  2.1635 -2.2330
   64CHL1    C7 5853   4.370   3.070   3.432  0.2099 -0.4347  0.4445
   64CHL1   H7A 5854   4.263   3.090   3.449  0.1811  0.7295 -0.9261
   64CHL1   H7B 5855   4.393   2.964   3.457  2.0476 -0.5155 -1.3069
   64CHL1    C8 5856   4.441   3.172   3.529 -0.0384  0.0030 -0.5870
   64CHL1    H8 5857   4.383   3.266   3.523  1.6929  1.0413 -2.6511
   64CHL1   C14 5858   4.442   3.117   3.674  0.1686 -0.7412 -0.1662
   64CHL1   H14 5859   4.505   3.026   3.667  0.1913 -0.6627 -1.1568
   64CHL1   C15 5860   4.302   3.077   3.737  0.0155  0.3580  0.1301
   64CHL1  H15A 5861   4.223   3.155   3.728 -0.4661 -0.1234  0.1118
   64CHL1  H15B 5862   4.274   2.975   3.705 -1.1875  1.1689 -1.5820
   64CHL1   C16 5863   4.333   3.072   3.887 -0.0408 -0.4218 -0.6583
   64CHL1  H16A 5864   4.260   3.136   3.941  1.8147 -1.5311  3.4881
   64CHL1  H16B 5865   4.317   2.970   3.929 -0.4495 -1.6660 -3.5857
   64CHL1   C17 5866   4.481   3.122   3.913 -0.0251 -0.1574  0.5745
   64CHL1   H17 5867   4.533   3.024   3.919 -1.2293 -0.8247  0.4559
   64CHL1   C13 5868   4.517   3.206   3.778 -0.3731  0.3111 -0.1044
   64CHL1   C18 5869   4.446   3.337   3.787  0.6310 -0.2241 -0.0755
   64CHL1  H18A 5870   4.433   3.386   3.689  1.4516  0.5902  0.2076
   64CHL1  H18B 5871   4.344   3.316   3.826  0.4868 -0.9536 -0.8128
   64CHL1  H18C 5872   4.479   3.410   3.864  0.6493 -1.3004  0.9656
   64CHL1   C12 5873   4.663   3.225   3.726  0.4096  0.2012 -0.4764
   64CHL1  H12A 5874   4.713   3.296   3.795  1.8932 -0.2610 -1.0360
   64CHL1  H12B 5875   4.713   3.126   3.721  1.7081  0.9026 -3.1081
   64CHL1   C11 5876   4.667   3.284   3.585 -0.8699  0.3605 -0.4011
   64CHL1  H11A 5877   4.628   3.387   3.577 -0.1194  0.6997  0.1234
   64CHL1  H11B 5878   4.774   3.290   3.556 -0.9613  1.3101 -0.5554
   64CHL1    C9 5879   4.579   3.204   3.483 -1.0134 -1.2091  0.6267
   64CHL1    H9 5880   4.630   3.105   3.484 -0.0597 -0.7893 -1.0214
   64CHL1   C10 5881   4.575   3.263   3.336  0.9600 -0.8171  0.1790
   64CHL1   C19 5882   4.519   3.412   3.336 -0.1530  0.7079 -0.7586
   64CHL1  H19A 5883   4.586   3.473   3.400  0.2794  1.2106 -1.6646
   64CHL1  H19B 5884   4.524   3.451   3.232 -2.0130  1.3358 -0.6371
   64CHL1  H19C 5885   4.416   3.419   3.377 -0.1255 -0.1537 -0.5216
   64CHL1    C1 5886   4.728   3.261   3.290 -0.0938  0.1632  0.4814
   64CHL1   H1A 5887   4.790   3.320   3.361 -0.8301  1.7233 -0.1400
   64CHL1   H1B 5888   4.762   3.158   3.313 -1.4929 -0.3022  0.5387
   64CHL1    C2 5889   4.749   3.298   3.141 -0.1689  0.4980 -0.0031
   64CHL1   H2A 5890   4.858   3.301   3.117 -0.0212  0.5206  0.6406
   64CHL1   H2B 5891   4.718   3.403   3.123  3.2051  1.6115 -0.1026
   64CHL1   C20 5892   4.495   3.201   4.048  0.4638 -0.0337 -0.3255
   64CHL1   H20 5893   4.423   3.285   4.039  0.0060 -0.0247  2.5496
   64CHL1   C21 5894   4.642   3.261   4.070  0.4231  1.0988 -0.2053
   64CHL1  H21A 5895   4.650   3.317   4.166  1.4518  0.5366  0.0493
   64CHL1  H21B 5896   4.658   3.340   3.994  0.6771  2.6970  1.4314
   64CHL1  H21C 5897   4.720   3.182   4.070 -1.9035 -1.3746 -1.3017
   64CHL1   C22 5898   4.446   3.130   4.176  0.9720 -0.2561 -0.1862
   64CHL1  H22A 5899   4.336   3.127   4.192  1.0919 -1.8979  0.5276
   64CHL1  H22B 5900   4.462   3.021   4.169 -1.8084 -0.6578 -1.5526
   64CHL1   C23 5901   4.505   3.184   4.311  0.4469  0.0906  0.3112
   64CHL1  H23A 5902   4.615   3.166   4.312  0.7607  1.8067 -0.1234
   64CHL1  H23B 5903   4.476   3.291   4.305  0.7497  0.1683  0.1916
   64CHL1   C24 5904   4.431   3.135   4.431 -0.3865  0.6100  0.0463
   64CHL1  H24A 5905   4.334   3.190   4.432 -0.4376  0.5963 -1.5742
   64CHL1  H24B 5906   4.423   3.027   4.407 -1.4618  0.9356 -1.1512
   64CHL1   C25 5907   4.509   3.163   4.568  0.3124 -0.3841 -0.3039
   64CHL1   H25 5908   4.547   3.267   4.581  0.4326 -0.4883  0.2065
   64CHL1   C26 5909   4.419   3.143   4.690 -0.3199 -0.5170 -0.7705
   64CHL1  H26A 5910   4.479   3.142   4.784 -0.5506  0.8448 -0.5934
   64CHL1  H26B 5911   4.345   3.224   4.702 -0.4293 -0.5198 -1.4004
   64CHL1  H26C 5912   4.371   3.043   4.690 -1.7348  0.1390 -0.3317
   64CHL1   C27 5913   4.632   3.070   4.580  0.3663 -0.0639  0.3087
   64CHL1  H27A 5914   4.702   3.076   4.494  1.6155 -1.3224  1.1960
   64CHL1  H27B 5915   4.688   3.107   4.669 -1.2813  2.0808  0.5362
   64CHL1  H27C 5916   4.599   2.965   4.596  0.4967  0.1586  2.3062
   65CHL1    C3 5917   1.857   0.555   3.148 -0.7441 -0.7647 -0.2488
   65CHL1    H3 5918   1.762   0.555   3.206 -1.4850 -0.6124 -1.4268
   65CHL1    O3 5919   1.831   0.585   3.011 -0.0551  0.6507  0.8712
   65CHL1   H3' 5920   1.820   0.680   3.006  1.3283  0.9106  1.9663
   65CHL1    C4 5921   1.953   0.664   3.199  0.0741  0.1846 -0.0399
   65CHL1   H4A 5922   2.044   0.655   3.135 -0.0902  0.2355 -0.2850
   65CHL1   H4B 5923   1.920   0.770   3.194  2.4264  1.2128  3.2982
   65CHL1    C5 5924   1.981   0.643   3.347 -0.1867  0.4835 -0.1266
   65CHL1    C6 5925   1.952   0.728   3.448  0.4846  0.4070  0.3038
   65CHL1    H6 5926   1.908   0.827   3.426 -2.5060 -0.3632  2.2292
   65CHL1    C7 5927   1.967   0.700   3.594 -0.0090  0.6745 -0.1280
   65CHL1   H7A 5928   2.010   0.785   3.650 -0.5408  0.5658  0.4578
   65CHL1   H7B 5929   1.861   0.690   3.628 -0.0638  0.2020 -0.4268
   65CHL1    C8 5930   2.047   0.571   3.622 -0.2034  0.5707  0.1177
   65CHL1    H8 5931   2.155   0.593   3.608  0.0357 -0.0825  0.8819
   65CHL1   C14 5932   2.014   0.533   3.762  0.1286 -0.1427 -0.8877
   65CHL1   H14 5933   1.904   0.525   3.772  0.4064 -0.7521  3.3634
   65CHL1   C15 5934   2.048   0.638   3.871  0.0380  0.0901  0.2527
   65CHL1  H15A 5935   2.134   0.693   3.828 -1.1759  0.6943 -1.5411
   65CHL1  H15B 5936   1.978   0.723   3.884 -0.9932 -0.6968  0.0077
   65CHL1   C16 5937   2.062   0.559   3.997  0.0289  0.1385 -0.2502
   65CHL1  H16A 5938   2.156   0.578   4.053  1.6144 -2.0173 -1.9895
   65CHL1  H16B 5939   1.992   0.573   4.082  2.0444 -1.3207  1.7839
   65CHL1   C17 5940   2.043   0.408   3.957  0.3260 -0.0513  0.2691
   65CHL1   H17 5941   1.937   0.374   3.959  0.5731 -0.9424  2.6402
   65CHL1   C13 5942   2.078   0.400   3.801 -0.1396  0.0325  0.2865
   65CHL1   C18 5943   2.235   0.406   3.786 -0.0971 -0.3053 -0.5062
   65CHL1  H18A 5944   2.283   0.307   3.798  1.0176  0.0240 -1.9086
   65CHL1  H18B 5945   2.267   0.451   3.689 -0.2552  2.5438  0.6659
   65CHL1  H18C 5946   2.272   0.473   3.866  0.9125  0.2511 -1.4039
   65CHL1   C12 5947   2.017   0.289   3.712  0.0567  0.2556 -0.7017
   65CHL1  H12A 5948   2.038   0.188   3.753  0.3230  0.2079 -0.9593
   65CHL1  H12B 5949   1.908   0.306   3.726 -0.3041 -1.2509 -1.4157
   65CHL1   C11 5950   2.049   0.309   3.560 -0.5979 -0.6482 -0.1700
   65CHL1  H11A 5951   2.158   0.300   3.542 -0.4438  0.1813  0.3252
   65CHL1  H11B 5952   1.991   0.231   3.506 -0.8360  0.2606 -1.2604
   65CHL1    C9 5953   2.002   0.456   3.524  0.2492  0.0115  0.1555
   65CHL1    H9 5954   1.891   0.459   3.520  0.2476  1.6853  0.8019
   65CHL1   C10 5955   2.033   0.489   3.378 -0.1563 -0.1221  0.0406
   65CHL1   C19 5956   2.183   0.492   3.353  0.9509  0.2488 -0.5180
   65CHL1  H19A 5957   2.233   0.567   3.417  3.6807 -1.2233 -0.7532
   65CHL1  H19B 5958   2.219   0.388   3.366 -1.2117 -0.4633  0.2496
   65CHL1  H19C 5959   2.207   0.523   3.249  2.9452  0.5639 -0.0023
   65CHL1    C1 5960   1.975   0.378   3.280  0.3755 -0.0405 -0.6451
   65CHL1   H1A 5961   2.039   0.287   3.279  2.1412  1.0217  2.3601
   65CHL1   H1B 5962   1.881   0.349   3.331  1.5533 -1.5446  0.8007
   65CHL1    C2 5963   1.925   0.417   3.139  0.0932 -0.2982 -1.1216
   65CHL1   H2A 5964   1.848   0.347   3.100 -1.0291  0.8789 -1.1111
   65CHL1   H2B 5965   2.009   0.409   3.067  0.1992 -0.0526 -1.0258
   65CHL1   C20 5966   2.120   0.313   4.049  0.3629  0.1236 -0.3694
   65CHL1   H20 5967   2.228   0.336   4.052  0.5839 -0.8417 -0.5993
   65CHL1   C21 5968   2.102   0.164   4.013 -0.5685 -0.1687  0.1567
   65CHL1  H21A 5969   2.141   0.100   4.095  1.1878  0.3820 -0.2159
   65CHL1  H21B 5970   2.165   0.132   3.928 -1.2903 -1.9434  0.2523
   65CHL1  H21C 5971   1.998   0.133   3.989  0.2384 -2.6079 -0.5129
   65CHL1   C22 5972   2.079   0.347   4.196 -0.4705  0.4744 -0.2866
   65CHL1  H22A 5973   2.105   0.449   4.230  1.3854 -0.2328  0.5039
   65CHL1  H22B 5974   1.972   0.321   4.209  0.2221 -3.2414 -0.9388
   65CHL1   C23 5975   2.149   0.257   4.302 -0.4063 -0.3186 -0.1828
   65CHL1  H23A 5976   2.108   0.154   4.304  2.6728 -1.7173 -1.3921
   65CHL1  H23B 5977   2.254   0.250   4.265  0.2002  2.6393  0.6698
   65CHL1   C24 5978   2.143   0.315   4.447 -0.2743  0.2414 -0.3358
   65CHL1  H24A 5979   2.166   0.423   4.444  4.8902 -0.6244 -2.0345
   65CHL1  H24B 5980   2.038   0.313   4.482 -0.8499  0.6599 -1.9818
   65CHL1   C25 5981   2.255   0.245   4.534 -0.0141  0.2253 -0.3744
   65CHL1   H25 5982   2.246   0.289   4.635 -3.8818  2.4873 -1.5026
   65CHL1   C26 5983   2.224   0.094   4.551 -0.3959  0.1215  0.6152
   65CHL1  H26A 5984   2.294   0.032   4.611 -0.1986  1.5301  1.9058
   65CHL1  H26B 5985   2.121   0.069   4.584 -1.0306  1.3391 -0.3709
   65CHL1  H26C 5986   2.227   0.050   4.450  1.7815  0.7208  0.3670
   65CHL1   C27 5987   2.401   0.277   4.485 -0.1702 -0.2107  0.6315
   65CHL1  H27A 5988   2.418   0.380   4.448  2.6071 -1.2896 -1.4492
   65CHL1  H27B 5989   2.472   0.273   4.570  1.4131 -1.9664 -0.7094
   65CHL1  H27C 5990   2.428   0.206   4.404 -0.1841  0.5113 -0.0175
   66CHL1    C3 5991   6.282   0.748   3.360  0.8044 -0.6026  0.3759
   66CHL1    H3 5992   6.182   0.699   3.362 -0.4694  1.6907 -2.0220
   66CHL1    O3 5993   6.299   0.809   3.233  0.2214  0.6231 -0.0872
   66CHL1   H3' 5994   6.389   0.844   3.232  1.6212 -2.6063 -0.4797
   66CHL1    C4 5995   6.282   0.873   3.455 -0.3993 -0.1193  0.0479
   66CHL1   H4A 5996   6.380   0.920   3.431  0.5599 -1.7276  0.6769
   66CHL1   H4B 5997   6.198   0.936   3.417  0.9847  2.2987  0.8197
   66CHL1    C5 5998   6.269   0.847   3.606 -0.4124  0.7002  0.2448
   66CHL1    C6 5999   6.180   0.907   3.682 -0.3429  0.0475 -0.0844
   66CHL1    H6 6000   6.106   0.974   3.638 -0.1476  0.6427  0.4742
   66CHL1    C7 6001   6.171   0.890   3.834 -0.7246 -0.4612 -0.0841
   66CHL1   H7A 6002   6.170   0.988   3.887  2.1840 -0.7032  0.5834
   66CHL1   H7B 6003   6.071   0.846   3.855 -1.5942  1.5981  0.3970
   66CHL1    C8 6004   6.292   0.818   3.899  0.0471  0.6933 -0.2485
   66CHL1    H8 6005   6.370   0.896   3.910  0.6079  0.1745 -0.5137
   66CHL1   C14 6006   6.243   0.736   4.020 -0.2198 -0.8064  0.1541
   66CHL1   H14 6007   6.180   0.655   3.978  0.5665 -1.7865  0.8002
   66CHL1   C15 6008   6.160   0.812   4.119 -0.8764  0.3031 -0.3248
   66CHL1  H15A 6009   6.218   0.899   4.155 -1.8389  0.6846  0.3623
   66CHL1  H15B 6010   6.063   0.846   4.077 -1.7755 -1.0159  0.5893
   66CHL1   C16 6011   6.145   0.715   4.240 -0.1527 -0.6710 -0.0088
   66CHL1  H16A 6012   6.155   0.772   4.334 -2.1218  1.0713 -0.7740
   66CHL1  H16B 6013   6.040   0.676   4.242  0.0962 -1.4249 -0.7086
   66CHL1   C17 6014   6.237   0.595   4.212  0.3640  0.7740 -0.2883
   66CHL1   H17 6015   6.172   0.516   4.169 -1.9703  2.2409  0.3534
   66CHL1   C13 6016   6.333   0.652   4.103 -0.0395  0.2567 -0.3559
   66CHL1   C18 6017   6.438   0.733   4.172  0.0205 -0.1828 -0.3133
   66CHL1  H18A 6018   6.503   0.778   4.093 -0.6712  1.8555  0.2207
   66CHL1  H18B 6019   6.401   0.818   4.233  0.7330  0.5610 -0.8837
   66CHL1  H18C 6020   6.505   0.673   4.237  1.4922 -0.9946 -2.4735
   66CHL1   C12 6021   6.389   0.540   4.010  0.1327 -0.3128  0.8328
   66CHL1  H12A 6022   6.475   0.487   4.058 -1.6740 -2.6335  1.7130
   66CHL1  H12B 6023   6.308   0.466   3.991 -0.6897  0.5026  1.1029
   66CHL1   C11 6024   6.439   0.596   3.870 -0.4710 -0.3116  0.1307
   66CHL1  H11A 6025   6.536   0.645   3.893 -0.4732  0.8491 -2.0850
   66CHL1  H11B 6026   6.463   0.513   3.800  3.1439 -0.3094  1.1703
   66CHL1    C9 6027   6.341   0.701   3.799  0.2136 -0.0799  0.3620
   66CHL1    H9 6028   6.241   0.655   3.784  1.2350 -2.5318  0.5371
   66CHL1   C10 6029   6.377   0.750   3.659 -0.9545  0.1910  0.2671
   66CHL1   C19 6030   6.518   0.817   3.660  0.6783  0.3849 -0.2576
   66CHL1  H19A 6031   6.535   0.876   3.568  0.9297 -1.5510 -1.4892
   66CHL1  H19B 6032   6.519   0.884   3.749 -0.0689  0.8066 -0.5557
   66CHL1  H19C 6033   6.590   0.734   3.675  0.3273  0.2723  0.9265
   66CHL1    C1 6034   6.397   0.627   3.567 -0.1154 -0.2092 -0.6445
   66CHL1   H1A 6035   6.471   0.546   3.584 -0.5517 -0.8546 -1.6905
   66CHL1   H1B 6036   6.300   0.573   3.574 -0.2203  0.0111 -0.3771
   66CHL1    C2 6037   6.399   0.655   3.410  0.1431  0.3534  0.2628
   66CHL1   H2A 6038   6.401   0.564   3.346 -0.7387 -0.2840  1.1058
   66CHL1   H2B 6039   6.488   0.716   3.384  0.6067 -0.1479  0.6539
   66CHL1   C20 6040   6.301   0.544   4.344 -0.4614  0.0433  0.8101
   66CHL1   H20 6041   6.380   0.614   4.377 -0.3031  0.5367 -0.5467
   66CHL1   C21 6042   6.359   0.411   4.321  0.5761 -0.3702 -0.1320
   66CHL1  H21A 6043   6.438   0.427   4.245 -0.3754  1.2687 -0.8465
   66CHL1  H21B 6044   6.293   0.346   4.261  0.0700  0.9439 -1.0533
   66CHL1  H21C 6045   6.389   0.364   4.417 -1.8391  1.9426  1.9406
   66CHL1   C22 6046   6.199   0.535   4.463 -0.2226 -0.0375 -0.3034
   66CHL1  H22A 6047   6.116   0.610   4.464 -1.4909 -1.2765  2.7583
   66CHL1  H22B 6048   6.155   0.434   4.471  1.5558 -0.6795  3.6993
   66CHL1   C23 6049   6.261   0.560   4.600  0.0012 -0.0687 -0.6187
   66CHL1  H23A 6050   6.342   0.486   4.616  0.7383  1.3417  3.4322
   66CHL1  H23B 6051   6.304   0.662   4.611 -1.9043  0.7122  0.1541
   66CHL1   C24 6052   6.151   0.547   4.709 -0.6197  0.3668 -0.6440
   66CHL1  H24A 6053   6.066   0.611   4.681  0.7464  2.2265 -0.7456
   66CHL1  H24B 6054   6.124   0.439   4.716 -0.9698  0.5394  1.9031
   66CHL1   C25 6055   6.201   0.586   4.854 -0.2986 -0.1309 -0.3026
   66CHL1   H25 6056   6.236   0.692   4.849  1.6932 -0.7437 -0.1430
   66CHL1   C26 6057   6.086   0.580   4.959 -0.1293  0.1886  0.2034
   66CHL1  H26A 6058   6.028   0.485   4.958 -0.8168  0.6022 -1.0867
   66CHL1  H26B 6059   6.127   0.591   5.062 -1.7722 -0.0438  0.9184
   66CHL1  H26C 6060   6.018   0.666   4.941  0.8884  0.9066 -0.3284
   66CHL1   C27 6061   6.308   0.492   4.902 -0.2191 -0.2434 -0.2397
   66CHL1  H27A 6062   6.303   0.475   5.012  1.3609 -0.7582 -0.2219
   66CHL1  H27B 6063   6.409   0.533   4.880  1.2764 -2.8682  1.2164
   66CHL1  H27C 6064   6.297   0.395   4.850  0.8840 -0.5110 -0.0070
   67CHL1    C3 6065   5.027   6.032   3.339  0.5279  0.7835 -0.1454
   67CHL1    H3 6066   5.094   6.113   3.374 -0.2011  1.6954 -0.8101
   67CHL1    O3 6067   5.040   6.022   3.198  0.2301  0.7102 -0.0429
   67CHL1   H3' 6068   4.991   6.101   3.175 -2.4854 -0.9115 -0.2508
   67CHL1    C4 6069   5.077   5.901   3.400  0.0465  0.2506  0.1304
   67CHL1   H4A 6070   5.022   5.821   3.346  0.0997 -0.6809  1.4124
   67CHL1   H4B 6071   5.184   5.890   3.373 -0.2311 -1.4237 -0.4061
   67CHL1    C5 6072   5.054   5.896   3.551 -0.7222 -1.0148 -0.8583
   67CHL1    C6 6073   5.154   5.882   3.635  0.4104 -0.1323  0.3710
   67CHL1    H6 6074   5.253   5.863   3.593  0.4562 -0.8688  0.7991
   67CHL1    C7 6075   5.130   5.860   3.781 -0.1724  0.3648  0.5702
   67CHL1   H7A 6076   5.188   5.780   3.832 -0.2971  0.2682  0.5646
   67CHL1   H7B 6077   5.160   5.953   3.833 -3.4596  2.8307 -1.5805
   67CHL1    C8 6078   4.978   5.843   3.820  0.4735 -0.5348  0.3686
   67CHL1    H8 6079   4.952   5.742   3.783  0.3414 -0.2723 -0.2658
   67CHL1   C14 6080   4.946   5.848   3.968 -1.0098  0.6808  0.1118
   67CHL1   H14 6081   4.975   5.953   3.990 -0.0865  0.8403 -1.7192
   67CHL1   C15 6082   5.036   5.757   4.057 -0.6584  0.0967 -0.2329
   67CHL1  H15A 6083   5.053   5.656   4.013  1.2567  0.0638  0.5184
   67CHL1  H15B 6084   5.138   5.800   4.059  1.8994 -5.1614  0.2004
   67CHL1   C16 6085   4.972   5.751   4.193 -0.7000 -0.6666  0.4715
   67CHL1  H16A 6086   4.952   5.644   4.214 -0.6967 -0.5042  1.3429
   67CHL1  H16B 6087   5.048   5.786   4.266  3.9496 -2.7718 -2.8735
   67CHL1   C17 6088   4.838   5.839   4.180 -0.3980  0.2979  1.1819
   67CHL1   H17 6089   4.873   5.943   4.197 -1.1378  1.1613 -1.9409
   67CHL1   C13 6090   4.806   5.839   4.027  0.8118 -0.4551 -0.8904
   67CHL1   C18 6091   4.738   5.707   3.991  0.0141  0.0045  0.4287
   67CHL1  H18A 6092   4.792   5.614   4.018  0.8943  0.6200  0.8310
   67CHL1  H18B 6093   4.639   5.695   4.039 -0.0732 -0.7721  0.0759
   67CHL1  H18C 6094   4.710   5.699   3.883  0.8069 -0.8361  0.2703
   67CHL1   C12 6095   4.735   5.961   3.967  0.0692 -0.4132  0.2273
   67CHL1  H12A 6096   4.627   5.948   3.991 -0.2581 -2.4081 -1.9791
   67CHL1  H12B 6097   4.780   6.055   4.007  0.8124 -0.2682 -0.9042
   67CHL1   C11 6098   4.750   5.970   3.809 -0.0002  0.3519  0.6342
   67CHL1  H11A 6099   4.680   5.895   3.767  0.3611  0.4724 -0.2118
   67CHL1  H11B 6100   4.712   6.070   3.778 -1.1294 -0.8830 -2.3118
   67CHL1    C9 6101   4.898   5.951   3.746  0.0472 -0.6894 -0.0894
   67CHL1    H9 6102   4.954   6.046   3.759 -0.8554 -0.1956  0.2484
   67CHL1   C10 6103   4.905   5.925   3.595  0.1074  0.2671 -0.7433
   67CHL1   C19 6104   4.806   5.810   3.547  0.7171 -0.5250 -0.2488
   67CHL1  H19A 6105   4.827   5.713   3.598 -1.1059  0.5672  2.9018
   67CHL1  H19B 6106   4.700   5.835   3.574  0.6960 -1.9053  1.1232
   67CHL1  H19C 6107   4.813   5.803   3.437 -2.4108 -2.6676 -0.4522
   67CHL1    C1 6108   4.857   6.059   3.518  0.6885  0.1568 -0.9054
   67CHL1   H1A 6109   4.751   6.065   3.550  0.9862 -3.1263  1.1426
   67CHL1   H1B 6110   4.902   6.147   3.570  1.8329 -1.6969  1.4435
   67CHL1    C2 6111   4.880   6.065   3.367  0.4042 -0.2552 -0.2405
   67CHL1   H2A 6112   4.851   6.168   3.336 -1.2651 -0.2306  1.2444
   67CHL1   H2B 6113   4.809   5.996   3.318 -1.4135  0.1380  1.7047
   67CHL1   C20 6114   4.724   5.792   4.268  0.3637  0.5484 -0.2847
   67CHL1   H20 6115   4.683   5.694   4.234 -0.9532  0.4389  1.4964
   67CHL1   C21 6116   4.600   5.884   4.268  1.2183  0.2847 -0.4426
   67CHL1  H21A 6117   4.624   5.963   4.342 -0.5391  1.8201 -1.4402
   67CHL1  H21B 6118   4.513   5.825   4.303  1.3009 -0.2054 -1.0481
   67CHL1  H21C 6119   4.574   5.933   4.172  0.9432  2.4727  0.6935
   67CHL1   C22 6120   4.772   5.772   4.415 -0.4556  0.2425 -0.2410
   67CHL1  H22A 6121   4.850   5.693   4.412  0.1383  0.8295 -0.7888
   67CHL1  H22B 6122   4.820   5.861   4.463  1.1801 -1.3243  1.1762
   67CHL1   C23 6123   4.660   5.722   4.509 -0.3560 -0.3297  0.0958
   67CHL1  H23A 6124   4.703   5.722   4.612  0.0067 -0.7198 -0.0540
   67CHL1  H23B 6125   4.569   5.784   4.522 -0.7805 -1.0490  0.6207
   67CHL1   C24 6126   4.610   5.590   4.460 -0.4061  0.1528  0.8721
   67CHL1  H24A 6127   4.572   5.604   4.357 -1.8894 -3.0083  0.8690
   67CHL1  H24B 6128   4.689   5.512   4.468 -2.0125 -1.3863  4.4908
   67CHL1   C25 6129   4.501   5.540   4.554  0.4041 -0.3472 -1.0191
   67CHL1   H25 6130   4.466   5.444   4.509  0.9632  0.9949 -4.6017
   67CHL1   C26 6131   4.545   5.497   4.695 -0.0700 -0.0180 -0.3565
   67CHL1  H26A 6132   4.607   5.406   4.691  2.0360  1.2704  1.0291
   67CHL1  H26B 6133   4.620   5.569   4.734  0.6015 -0.8710 -0.0408
   67CHL1  H26C 6134   4.461   5.486   4.768  1.3622 -0.5351  1.2778
   67CHL1   C27 6135   4.382   5.629   4.565 -0.3376 -0.3665  0.6750
   67CHL1  H27A 6136   4.295   5.588   4.621  1.5554 -1.4998  2.9688
   67CHL1  H27B 6137   4.397   5.722   4.625 -0.1647 -0.2302  0.4193
   67CHL1  H27C 6138   4.356   5.661   4.462 -0.0662  1.6135  1.1737
   68CHL1    C3 6139   4.494   5.389   3.371  0.3025 -1.1597  0.3946
   68CHL1    H3 6140   4.413   5.320   3.338  0.2229 -0.1256 -1.7350
   68CHL1    O3 6141   4.565   5.422   3.253 -0.7937 -0.1126 -0.8852
   68CHL1   H3' 6142   4.629   5.351   3.247  1.7859  1.7634  1.5725
   68CHL1    C4 6143   4.431   5.514   3.441  0.7126 -0.2017 -0.6367
   68CHL1   H4A 6144   4.514   5.585   3.462 -0.7060  1.4865 -0.4307
   68CHL1   H4B 6145   4.361   5.561   3.368 -0.1759 -1.5591 -0.6946
   68CHL1    C5 6146   4.364   5.480   3.578  0.3104 -0.0943  0.9995
   68CHL1    C6 6147   4.236   5.513   3.598 -0.1998  0.8274 -0.1408
   68CHL1    H6 6148   4.194   5.578   3.519  1.7936  2.9495  0.4113
   68CHL1    C7 6149   4.163   5.479   3.726 -0.0221 -0.2535 -0.3413
   68CHL1   H7A 6150   4.110   5.565   3.772 -1.7051 -2.1163  1.3772
   68CHL1   H7B 6151   4.092   5.395   3.711  2.6627 -2.8234  0.3003
   68CHL1    C8 6152   4.261   5.432   3.836 -1.0873  0.4583 -0.3213
   68CHL1    H8 6153   4.311   5.529   3.856  0.2998 -0.1555 -0.7440
   68CHL1   C14 6154   4.190   5.377   3.952  0.0643 -0.0597  0.8316
   68CHL1   H14 6155   4.149   5.278   3.922 -0.7564  0.0166  1.6522
   68CHL1   C15 6156   4.073   5.465   4.000 -0.0242 -0.1084  0.3966
   68CHL1  H15A 6157   4.111   5.568   4.017 -1.3738  0.2642  1.3219
   68CHL1  H15B 6158   3.977   5.469   3.944 -0.3489  0.6361  0.9821
   68CHL1   C16 6159   4.037   5.399   4.133  0.3598  0.1407 -0.9530
   68CHL1  H16A 6160   4.040   5.481   4.208  1.2539 -0.3520 -0.4380
   68CHL1  H16B 6161   3.938   5.350   4.124  0.0017  0.8992 -1.3252
   68CHL1   C17 6162   4.154   5.302   4.177  0.4984  0.3621  0.0976
   68CHL1   H17 6163   4.119   5.198   4.156 -1.1274  0.9610 -0.2942
   68CHL1   C13 6164   4.269   5.343   4.074  0.5636 -0.6928  0.0374
   68CHL1   C18 6165   4.352   5.463   4.124 -0.2566  0.0552 -0.5641
   68CHL1  H18A 6166   4.419   5.441   4.209 -0.2809 -2.3352 -1.0929
   68CHL1  H18B 6167   4.427   5.499   4.049 -1.6793  2.0838 -1.1264
   68CHL1  H18C 6168   4.281   5.543   4.157 -0.3204 -0.4234  0.4825
   68CHL1   C12 6169   4.368   5.227   4.035 -0.3239  0.1221  0.8652
   68CHL1  H12A 6170   4.448   5.214   4.111  0.5379  1.1339  0.1659
   68CHL1  H12B 6171   4.311   5.132   4.023 -1.2265  0.4449  2.4012
   68CHL1   C11 6172   4.447   5.263   3.904  0.0349 -0.1580 -0.7421
   68CHL1  H11A 6173   4.523   5.336   3.940  1.0741 -1.5958  0.0580
   68CHL1  H11B 6174   4.489   5.166   3.870  0.5705 -0.3816  0.4959
   68CHL1    C9 6175   4.368   5.331   3.783 -0.1320  0.1048  0.5215
   68CHL1    H9 6176   4.302   5.253   3.740 -0.1121  0.7270 -0.6839
   68CHL1   C10 6177   4.451   5.395   3.665  0.1489 -0.1402 -0.2941
   68CHL1   C19 6178   4.561   5.485   3.720  0.2161 -0.1588  0.0855
   68CHL1  H19A 6179   4.629   5.423   3.783 -0.7526  1.7313  3.2252
   68CHL1  H19B 6180   4.624   5.540   3.648  0.3853 -0.9898 -0.4208
   68CHL1  H19C 6181   4.517   5.560   3.790 -1.7874  0.2397 -1.5161
   68CHL1    C1 6182   4.523   5.276   3.596  0.3706 -0.0633  0.4176
   68CHL1   H1A 6183   4.600   5.227   3.660  1.1053  0.8488  0.2616
   68CHL1   H1B 6184   4.450   5.197   3.569  1.0692 -0.8348  0.7194
   68CHL1    C2 6185   4.596   5.321   3.464 -0.2412  0.2548 -0.3303
   68CHL1   H2A 6186   4.634   5.227   3.418  0.1715  0.0199  0.4864
   68CHL1   H2B 6187   4.676   5.395   3.488 -2.1172  1.8495  1.4128
   68CHL1   C20 6188   4.186   5.306   4.326 -0.1967 -0.4786 -0.4634
   68CHL1   H20 6189   4.232   5.406   4.344  2.1317 -1.5505 -0.1268
   68CHL1   C21 6190   4.291   5.190   4.351  0.3288 -0.4654  0.0574
   68CHL1  H21A 6191   4.243   5.093   4.327  0.4489 -0.2511 -1.1601
   68CHL1  H21B 6192   4.308   5.189   4.460 -1.5784  1.0651  0.4420
   68CHL1  H21C 6193   4.383   5.201   4.290  0.4547 -1.1473  0.1230
   68CHL1   C22 6194   4.071   5.289   4.424  0.1959 -0.4043 -0.8508
   68CHL1  H22A 6195   3.975   5.334   4.390 -0.3473  1.4622  2.6412
   68CHL1  H22B 6196   4.049   5.180   4.426  4.6461 -1.4912  0.9466
   68CHL1   C23 6197   4.106   5.342   4.570 -0.2839  0.4547  0.2698
   68CHL1  H23A 6198   4.201   5.304   4.612 -2.1979 -0.9088  3.7737
   68CHL1  H23B 6199   4.106   5.453   4.567 -2.8348  0.4838 -2.1351
   68CHL1   C24 6200   4.002   5.310   4.680 -0.0344  0.8656  0.4732
   68CHL1  H24A 6201   3.898   5.314   4.641 -0.6021 -0.6198  1.7587
   68CHL1  H24B 6202   4.025   5.206   4.711 -1.5192  0.4526  0.2787
   68CHL1   C25 6203   4.029   5.398   4.807 -0.1515  0.0875  0.3016
   68CHL1   H25 6204   4.138   5.402   4.827  0.2788 -1.1827 -1.5009
   68CHL1   C26 6205   3.966   5.538   4.796 -0.9407 -0.4748  0.5192
   68CHL1  H26A 6206   3.989   5.606   4.881 -1.2036  0.0800  0.1481
   68CHL1  H26B 6207   4.009   5.581   4.704 -1.3439 -1.7209 -0.2791
   68CHL1  H26C 6208   3.859   5.541   4.768 -0.7176  1.2200 -0.2615
   68CHL1   C27 6209   3.964   5.330   4.930  0.0746  0.1561 -1.0653
   68CHL1  H27A 6210   3.861   5.296   4.904  0.6606 -2.8628  0.0693
   68CHL1  H27B 6211   4.030   5.246   4.960 -1.5767 -0.5668  0.8371
   68CHL1  H27C 6212   3.964   5.406   5.011  2.7176 -0.2515 -0.5968
   69CHL1    C3 6213   2.568   3.965   3.235  0.3820  0.3983 -0.2758
   69CHL1    H3 6214   2.671   3.934   3.263 -0.2442 -2.4126 -0.8143
   69CHL1    O3 6215   2.575   3.935   3.095 -0.6153 -0.0146 -0.0261
   69CHL1   H3' 6216   2.500   3.982   3.059 -0.5632  0.6507  0.6994
   69CHL1    C4 6217   2.462   3.874   3.296  0.1590  0.9082  0.0607
   69CHL1   H4A 6218   2.370   3.899   3.240  0.3776 -0.3001 -0.8619
   69CHL1   H4B 6219   2.492   3.770   3.271  0.2498  1.1714 -0.9686
   69CHL1    C5 6220   2.446   3.898   3.449  0.1082  0.1650 -0.8886
   69CHL1    C6 6221   2.442   3.791   3.530 -0.1094  0.0976  0.5039
   69CHL1    H6 6222   2.444   3.689   3.488 -2.9675  0.1491  0.0811
   69CHL1    C7 6223   2.425   3.796   3.678 -0.0172 -0.5223  0.2946
   69CHL1   H7A 6224   2.339   3.738   3.719  0.1752 -2.7116 -2.0705
   69CHL1   H7B 6225   2.518   3.762   3.727  0.6084 -1.0041 -1.1501
   69CHL1    C8 6226   2.405   3.946   3.730 -0.5719  0.4528  0.1234
   69CHL1    H8 6227   2.295   3.961   3.729 -0.8919 -1.6004  0.0005
   69CHL1   C14 6228   2.453   3.970   3.873 -0.5930 -0.0568  0.2207
   69CHL1   H14 6229   2.564   3.963   3.866 -0.5871 -0.6801  0.8289
   69CHL1   C15 6230   2.416   3.867   3.984 -0.0531  0.1471 -0.0569
   69CHL1  H15A 6231   2.316   3.819   3.975  0.6458 -1.2621 -0.6628
   69CHL1  H15B 6232   2.491   3.785   3.997 -0.6646 -0.2713  0.9718
   69CHL1   C16 6233   2.420   3.948   4.117 -0.0371  0.1724  0.2148
   69CHL1  H16A 6234   2.314   3.961   4.150 -0.3342 -0.7000 -0.3596
   69CHL1  H16B 6235   2.476   3.895   4.197  1.1392  2.1992  0.7989
   69CHL1   C17 6236   2.474   4.088   4.083  0.0027  0.8108  0.5464
   69CHL1   H17 6237   2.584   4.075   4.073 -0.2487  0.1198 -2.4006
   69CHL1   C13 6238   2.423   4.108   3.936 -0.3001 -0.3510  0.1279
   69CHL1   C18 6239   2.270   4.138   3.949  0.3621 -0.2726  0.4566
   69CHL1  H18A 6240   2.220   4.110   3.853 -0.8617 -0.9245  1.2655
   69CHL1  H18B 6241   2.218   4.073   4.022 -0.2021 -0.5134 -0.1486
   69CHL1  H18C 6242   2.249   4.247   3.962  2.7410  0.3633 -0.3699
   69CHL1   C12 6243   2.483   4.211   3.846  0.0739  0.9129 -0.1071
   69CHL1  H12A 6244   2.452   4.310   3.887 -0.5543 -0.0020  1.7242
   69CHL1  H12B 6245   2.593   4.198   3.858 -0.2469 -0.3565  1.8891
   69CHL1   C11 6246   2.440   4.195   3.698  0.1791 -0.7000  0.1870
   69CHL1  H11A 6247   2.332   4.212   3.679  0.5573 -0.9870 -2.6820
   69CHL1  H11B 6248   2.493   4.274   3.641 -0.2990 -0.2686  0.3377
   69CHL1    C9 6249   2.463   4.053   3.640  0.2207  0.5329  0.1877
   69CHL1    H9 6250   2.571   4.029   3.651  0.2194  1.3395  2.3088
   69CHL1   C10 6251   2.427   4.042   3.488  0.5495  0.2070 -0.4649
   69CHL1   C19 6252   2.279   4.092   3.476 -0.5616 -0.1906  0.7631
   69CHL1  H19A 6253   2.274   4.203   3.490 -1.7503  0.1407 -1.7129
   69CHL1  H19B 6254   2.239   4.077   3.373  0.0768  2.7520 -0.0251
   69CHL1  H19C 6255   2.208   4.052   3.551  0.2744  1.1806  2.3599
   69CHL1    C1 6256   2.515   4.144   3.403  0.4277  0.4597 -0.1588
   69CHL1   H1A 6257   2.474   4.247   3.413  0.9281  0.6707 -0.2098
   69CHL1   H1B 6258   2.617   4.146   3.448  0.6246  0.6328 -0.5953
   69CHL1    C2 6259   2.528   4.113   3.261  0.6904  0.2973  0.2767
   69CHL1   H2A 6260   2.603   4.178   3.211 -0.4697  1.0561 -0.5219
   69CHL1   H2B 6261   2.426   4.130   3.222  0.0086  0.2529  1.9889
   69CHL1   C20 6262   2.443   4.191   4.194 -0.1409 -0.0167  0.5124
   69CHL1   H20 6263   2.334   4.198   4.210 -0.4087 -0.8475 -0.7805
   69CHL1   C21 6264   2.502   4.331   4.150  0.3946  0.3347  0.1256
   69CHL1  H21A 6265   2.497   4.399   4.237 -1.4053  0.2953  0.0820
   69CHL1  H21B 6266   2.431   4.375   4.077  1.6765 -0.2536 -1.5422
   69CHL1  H21C 6267   2.597   4.322   4.093 -0.8001 -0.8813 -1.7892
   69CHL1   C22 6268   2.507   4.159   4.326 -0.4052  0.0413 -0.6714
   69CHL1  H22A 6269   2.552   4.057   4.330  0.7625  0.5854  0.9014
   69CHL1  H22B 6270   2.602   4.215   4.341 -0.7700  0.2736  1.0488
   69CHL1   C23 6271   2.414   4.184   4.452  0.1296  0.1721  0.2652
   69CHL1  H23A 6272   2.418   4.293   4.475  1.1972  0.7633 -2.3411
   69CHL1  H23B 6273   2.304   4.173   4.435  0.0002  0.9394  0.5392
   69CHL1   C24 6274   2.462   4.101   4.571  0.2611 -0.5738  0.4793
   69CHL1  H24A 6275   2.502   4.004   4.535  1.4090 -0.5129  1.5279
   69CHL1  H24B 6276   2.551   4.155   4.610  0.4277 -1.4314  1.3128
   69CHL1   C25 6277   2.347   4.089   4.680 -0.4530 -0.3598  1.1385
   69CHL1   H25 6278   2.262   4.035   4.632  1.3350 -1.7098 -0.6919
   69CHL1   C26 6279   2.405   4.010   4.796 -0.5563 -0.0855  0.0372
   69CHL1  H26A 6280   2.338   4.000   4.884 -1.8531  0.2130 -0.8973
   69CHL1  H26B 6281   2.451   3.913   4.767  3.0741  0.8365  2.0518
   69CHL1  H26C 6282   2.499   4.056   4.835 -0.2792 -2.0027  1.8227
   69CHL1   C27 6283   2.287   4.221   4.731 -0.0684 -0.2215  0.4869
   69CHL1  H27A 6284   2.368   4.287   4.769  0.1701 -0.1100 -0.1998
   69CHL1  H27B 6285   2.234   4.273   4.648  1.3762 -1.3538 -1.2294
   69CHL1  H27C 6286   2.220   4.197   4.816 -2.6862  0.7341 -1.1506
   70CHL1    C3 6287   3.636   6.522   3.684  0.1562 -0.5742  0.3001
   70CHL1    H3 6288   3.710   6.601   3.660 -1.1500  0.1478 -1.5746
   70CHL1    O3 6289   3.614   6.451   3.568  0.0339 -0.0631  0.0877
   70CHL1   H3' 6290   3.544   6.504   3.528 -0.0757  0.1498  0.5636
   70CHL1    C4 6291   3.690   6.432   3.790  0.5694  0.3697 -0.8598
   70CHL1   H4A 6292   3.622   6.344   3.800  0.5351  0.5438  0.6620
   70CHL1   H4B 6293   3.789   6.402   3.749 -0.6394 -0.9152 -3.0336
   70CHL1    C5 6294   3.706   6.503   3.921 -0.2252  0.0403 -0.8047
   70CHL1    C6 6295   3.826   6.505   3.986 -0.3080 -0.2769 -0.2475
   70CHL1    H6 6296   3.918   6.467   3.939 -1.2077 -1.0653 -1.4217
   70CHL1    C7 6297   3.836   6.574   4.122 -0.3388  0.1465 -0.0231
   70CHL1   H7A 6298   3.895   6.503   4.184 -1.0288 -1.0352 -0.6772
   70CHL1   H7B 6299   3.888   6.672   4.122  0.1995 -0.1354 -0.5947
   70CHL1    C8 6300   3.705   6.583   4.194 -0.2289 -0.1680 -0.0373
   70CHL1    H8 6301   3.671   6.480   4.221 -1.2864  0.5463  1.4543
   70CHL1   C14 6302   3.728   6.659   4.327  0.0653 -0.6911  0.4811
   70CHL1   H14 6303   3.763   6.761   4.300 -0.3521 -0.3500  1.1921
   70CHL1   C15 6304   3.831   6.607   4.423  0.0007 -0.5020  0.5418
   70CHL1  H15A 6305   3.824   6.496   4.425 -3.5415 -0.4094  0.6136
   70CHL1  H15B 6306   3.929   6.639   4.382 -0.5136  0.3557 -0.0673
   70CHL1   C16 6307   3.790   6.661   4.560 -0.3787 -0.1177  0.4601
   70CHL1  H16A 6308   3.769   6.583   4.637  2.6857  0.5394  2.0863
   70CHL1  H16B 6309   3.877   6.727   4.581  0.8313 -0.8757 -1.8322
   70CHL1   C17 6310   3.664   6.744   4.536 -0.4791 -0.6271  0.1738
   70CHL1   H17 6311   3.696   6.843   4.499  2.0191 -0.8576  1.5505
   70CHL1   C13 6312   3.603   6.688   4.416  0.1469 -0.2092  0.2506
   70CHL1   C18 6313   3.528   6.561   4.456 -0.6207  0.3200  0.6533
   70CHL1  H18A 6314   3.505   6.499   4.366  0.8016  1.6124 -0.6672
   70CHL1  H18B 6315   3.588   6.491   4.518 -0.6718 -0.5638 -0.2622
   70CHL1  H18C 6316   3.427   6.578   4.499 -0.7316  1.0398  0.1185
   70CHL1   C12 6317   3.520   6.781   4.318  0.3422 -0.0005  0.1805
   70CHL1  H12A 6318   3.435   6.823   4.376 -0.5737  0.0735 -1.1735
   70CHL1  H12B 6319   3.582   6.868   4.289  1.2248 -0.0913  1.7156
   70CHL1   C11 6320   3.485   6.713   4.181 -0.0215  0.0913 -0.0248
   70CHL1  H11A 6321   3.410   6.636   4.207 -0.8224  0.5832 -0.8090
   70CHL1  H11B 6322   3.436   6.788   4.115 -1.6414 -2.5609 -2.0310
   70CHL1    C9 6323   3.608   6.661   4.105  0.4379  0.0006 -0.3641
   70CHL1    H9 6324   3.665   6.752   4.073  1.5751 -0.4446  0.3314
   70CHL1   C10 6325   3.576   6.578   3.976 -0.2441 -0.7359  0.5480
   70CHL1   C19 6326   3.462   6.472   4.014  0.6323 -0.6310 -0.3315
   70CHL1  H19A 6327   3.495   6.399   4.091  4.9024  0.4757 -0.8731
   70CHL1  H19B 6328   3.367   6.522   4.041  2.1766  2.1054  0.3638
   70CHL1  H19C 6329   3.436   6.410   3.925 -0.2647 -2.3590  1.0777
   70CHL1    C1 6330   3.530   6.668   3.860 -0.5602  0.8904 -0.5357
   70CHL1   H1A 6331   3.434   6.712   3.895 -1.2196 -0.9276  0.0392
   70CHL1   H1B 6332   3.609   6.744   3.839 -1.1681  1.1782 -1.8936
   70CHL1    C2 6333   3.505   6.584   3.728 -0.6894 -0.2862 -0.3590
   70CHL1   H2A 6334   3.467   6.665   3.662 -0.2246  1.8540  1.8515
   70CHL1   H2B 6335   3.435   6.498   3.734 -0.0616 -0.8727 -1.1758
   70CHL1   C20 6336   3.586   6.770   4.661 -0.2589 -0.7615  0.1258
   70CHL1   H20 6337   3.569   6.676   4.717  0.1821 -0.7051  0.3582
   70CHL1   C21 6338   3.458   6.857   4.641 -0.2614 -0.1515  0.8550
   70CHL1  H21A 6339   3.427   6.893   4.742 -1.4597  1.3940 -0.0322
   70CHL1  H21B 6340   3.384   6.786   4.598  1.4123  0.0387 -2.6673
   70CHL1  H21C 6341   3.477   6.947   4.579 -0.2631 -0.0169  1.0497
   70CHL1   C22 6342   3.675   6.846   4.769 -0.4761 -0.0957  0.2666
   70CHL1  H22A 6343   3.611   6.849   4.860  1.7943 -1.2075  1.9952
   70CHL1  H22B 6344   3.767   6.792   4.800 -1.1040 -1.4490 -0.1934
   70CHL1   C23 6345   3.722   6.988   4.730  0.0066 -0.3208 -0.7108
   70CHL1  H23A 6346   3.811   6.986   4.665  0.3045 -0.2116 -0.3112
   70CHL1  H23B 6347   3.642   7.041   4.674 -0.5841 -0.5666 -0.1264
   70CHL1   C24 6348   3.766   7.057   4.862 -0.1264  0.3888  0.3204
   70CHL1  H24A 6349   3.677   7.078   4.927  1.0948  1.7211  1.6505
   70CHL1  H24B 6350   3.840   6.993   4.913 -2.5963 -2.6092  0.4082
   70CHL1   C25 6351   3.812   7.205   4.837  0.2527  0.5673  0.2877
   70CHL1   H25 6352   3.837   7.261   4.929 -0.9858  1.8955 -0.1521
   70CHL1   C26 6353   3.938   7.205   4.756 -0.2580  0.0313  0.2090
   70CHL1  H26A 6354   3.982   7.307   4.753 -1.3855  0.5147 -0.6063
   70CHL1  H26B 6355   4.010   7.129   4.793 -1.8824 -1.4427  0.4925
   70CHL1  H26C 6356   3.918   7.177   4.650  0.9923  1.3842 -0.4209
   70CHL1   C27 6357   3.705   7.294   4.768  0.3033 -0.1403  0.5459
   70CHL1  H27A 6358   3.608   7.274   4.818 -0.4072  1.9817  0.1201
   70CHL1  H27B 6359   3.723   7.403   4.781 -1.8539  0.1759  1.2599
   70CHL1  H27C 6360   3.704   7.258   4.662 -0.2294 -0.0563  0.5224
   71CHL1    C3 6361   1.810   5.787   3.227  0.2349  0.1020 -1.0534
   71CHL1    H3 6362   1.750   5.880   3.243  0.2273 -0.0496 -0.1232
   71CHL1    O3 6363   1.852   5.759   3.095  0.1461  0.7660  0.6654
   71CHL1   H3' 6364   1.938   5.716   3.100  0.2516  1.0698  1.6132
   71CHL1    C4 6365   1.940   5.796   3.303  0.8052  0.0930  0.3174
   71CHL1   H4A 6366   2.013   5.715   3.280  0.5840 -1.0366  3.1137
   71CHL1   H4B 6367   1.997   5.886   3.271 -0.6515  1.1759  0.6951
   71CHL1    C5 6368   1.904   5.801   3.450 -0.0885  0.0937 -0.8774
   71CHL1    C6 6369   1.954   5.895   3.535 -0.1419  0.6503  0.0646
   71CHL1    H6 6370   2.011   5.975   3.486 -0.1993 -0.2126 -1.4624
   71CHL1    C7 6371   1.920   5.912   3.684  0.1269 -0.3326  0.2268
   71CHL1   H7A 6372   2.010   5.950   3.737  1.3258 -0.1892 -1.7888
   71CHL1   H7B 6373   1.839   5.987   3.690 -0.8076 -1.2947  0.0177
   71CHL1    C8 6374   1.874   5.783   3.738 -0.2926  0.5940  0.5340
   71CHL1    H8 6375   1.959   5.712   3.742 -0.5417  0.3223  1.1044
   71CHL1   C14 6376   1.809   5.806   3.871  0.5541 -0.2076  0.3722
   71CHL1   H14 6377   1.722   5.867   3.839  1.9215  0.6323 -2.0392
   71CHL1   C15 6378   1.885   5.897   3.967  0.0557 -0.5182  0.4842
   71CHL1  H15A 6379   1.995   5.889   3.958  0.1013  1.0493 -0.9667
   71CHL1  H15B 6380   1.862   6.002   3.939  0.2943 -0.9010 -1.3116
   71CHL1   C16 6381   1.819   5.856   4.102  0.1615 -0.3227  0.4578
   71CHL1  H16A 6382   1.902   5.814   4.163 -0.2349 -1.3285  0.3261
   71CHL1  H16B 6383   1.770   5.940   4.155  0.7465 -0.0772  0.6081
   71CHL1   C17 6384   1.718   5.736   4.082  0.7804  0.3126  0.1631
   71CHL1   H17 6385   1.617   5.782   4.081  0.7150  0.2932  1.7860
   71CHL1   C13 6386   1.754   5.680   3.942 -0.1949 -0.0749 -1.2333
   71CHL1   C18 6387   1.870   5.576   3.954 -0.2664 -0.4291 -0.1133
   71CHL1  H18A 6388   1.896   5.540   3.852  1.8010  0.2338  0.1280
   71CHL1  H18B 6389   1.965   5.615   3.996 -0.1720 -0.8796  0.0986
   71CHL1  H18C 6390   1.840   5.492   4.020 -0.9308 -0.1825 -0.0910
   71CHL1   C12 6391   1.640   5.624   3.856  0.0038  0.2097 -0.8904
   71CHL1  H12A 6392   1.594   5.532   3.899  2.0685 -1.1059 -1.3548
   71CHL1  H12B 6393   1.555   5.695   3.850  0.5692  0.8919 -0.8864
   71CHL1   C11 6394   1.681   5.598   3.712  0.1387 -0.4643 -0.0712
   71CHL1  H11A 6395   1.733   5.501   3.694 -1.4451 -1.2818 -0.4679
   71CHL1  H11B 6396   1.591   5.587   3.648  1.4318 -2.1709 -1.7231
   71CHL1    C9 6397   1.760   5.717   3.647 -0.3731  0.4489  0.4580
   71CHL1    H9 6398   1.676   5.789   3.641 -3.4753 -2.5557  3.1532
   71CHL1   C10 6399   1.813   5.684   3.507  0.4753 -0.2969 -0.1800
   71CHL1   C19 6400   1.912   5.567   3.502  0.1579  0.2521 -0.7355
   71CHL1  H19A 6401   1.995   5.579   3.574  0.6349  1.0423 -1.3915
   71CHL1  H19B 6402   1.863   5.471   3.527 -0.4521  0.6699 -0.3028
   71CHL1  H19C 6403   1.948   5.551   3.398  1.5081 -0.7168 -0.1547
   71CHL1    C1 6404   1.692   5.663   3.410 -0.4727  0.4466  0.0686
   71CHL1   H1A 6405   1.634   5.569   3.425 -0.0664  0.1595 -0.1397
   71CHL1   H1B 6406   1.615   5.740   3.432  0.7065  2.1316 -1.4116
   71CHL1    C2 6407   1.731   5.667   3.261 -0.3638  0.4150 -0.4820
   71CHL1   H2A 6408   1.634   5.665   3.206 -2.3334  2.5746  2.5979
   71CHL1   H2B 6409   1.795   5.583   3.228 -0.2632  1.1568 -2.3587
   71CHL1   C20 6410   1.717   5.642   4.200  0.1416 -0.2256  0.3619
   71CHL1   H20 6411   1.817   5.594   4.210  1.0260  1.4186 -0.2631
   71CHL1   C21 6412   1.624   5.520   4.190  0.7009 -0.1721  0.0436
   71CHL1  H21A 6413   1.635   5.453   4.278  0.1525  1.6642  1.5838
   71CHL1  H21B 6414   1.650   5.460   4.100 -0.3678 -2.4961  1.1873
   71CHL1  H21C 6415   1.522   5.558   4.167  1.5687  1.4908 -1.2237
   71CHL1   C22 6416   1.686   5.719   4.327 -0.0162  0.1884  0.4643
   71CHL1  H22A 6417   1.749   5.809   4.342 -3.0141  2.3871  0.7212
   71CHL1  H22B 6418   1.578   5.747   4.335 -0.6731 -1.7604 -0.8782
   71CHL1   C23 6419   1.701   5.627   4.451  0.8132 -0.6415 -0.8114
   71CHL1  H23A 6420   1.620   5.552   4.441 -0.2464  0.6204 -2.0628
   71CHL1  H23B 6421   1.798   5.571   4.450  0.3517 -1.4562 -0.8014
   71CHL1   C24 6422   1.676   5.709   4.577  0.4907 -0.4777 -0.1639
   71CHL1  H24A 6423   1.757   5.782   4.596 -0.3460  0.6641 -0.8321
   71CHL1  H24B 6424   1.586   5.774   4.569 -0.1715 -1.2411  0.8396
   71CHL1   C25 6425   1.658   5.626   4.709 -0.4615 -0.6124  0.6652
   71CHL1   H25 6426   1.675   5.696   4.793 -2.4237  1.0764 -0.2348
   71CHL1   C26 6427   1.517   5.566   4.721  0.6708 -0.0542  0.0358
   71CHL1  H26A 6428   1.511   5.517   4.820 -0.5124  1.2869  0.6687
   71CHL1  H26B 6429   1.448   5.653   4.734  2.5588  1.5007  0.1165
   71CHL1  H26C 6430   1.494   5.501   4.635  0.2524  1.0103 -0.6841
   71CHL1   C27 6431   1.754   5.510   4.717 -0.4575 -0.3588  0.8296
   71CHL1  H27A 6432   1.745   5.427   4.644  0.7150 -1.1530  1.5470
   71CHL1  H27B 6433   1.857   5.544   4.693 -0.7588  0.1162  0.1995
   71CHL1  H27C 6434   1.756   5.469   4.821 -0.8298  2.5934  2.0961
   72CHL1    C3 6435   2.210   4.694   3.439 -0.5527  0.1233  0.1062
   72CHL1    H3 6436   2.195   4.804   3.450 -0.3534  0.0784  0.9169
   72CHL1    O3 6437   2.237   4.664   3.301 -0.1318  0.3254  0.1843
   72CHL1   H3' 6438   2.229   4.750   3.259 -0.9212  0.9114  1.4946
   72CHL1    C4 6439   2.322   4.639   3.518  0.3072  0.2661 -0.6619
   72CHL1   H4A 6440   2.323   4.532   3.488  0.0370  0.3437 -0.9511
   72CHL1   H4B 6441   2.410   4.693   3.477  0.2773  0.4228 -0.5185
   72CHL1    C5 6442   2.303   4.638   3.664 -0.7442 -0.7560 -0.1249
   72CHL1    C6 6443   2.402   4.688   3.746  0.2233  0.3991 -0.1190
   72CHL1    H6 6444   2.498   4.724   3.706 -0.1940  0.4793 -1.0643
   72CHL1    C7 6445   2.400   4.701   3.897  1.2318 -0.0934  0.1947
   72CHL1   H7A 6446   2.494   4.662   3.940  3.0897  1.9758 -1.6962
   72CHL1   H7B 6447   2.402   4.808   3.927 -0.0075 -0.3623  1.3239
   72CHL1    C8 6448   2.275   4.637   3.954  0.4498  0.3162 -0.7072
   72CHL1    H8 6449   2.294   4.528   3.970 -0.2489  0.4616  1.3853
   72CHL1   C14 6450   2.256   4.680   4.099 -0.0895 -0.8430 -0.3836
   72CHL1   H14 6451   2.238   4.789   4.085  0.9587 -0.4872  0.8245
   72CHL1   C15 6452   2.371   4.678   4.198 -0.7281  0.3886 -0.3506
   72CHL1  H15A 6453   2.394   4.570   4.210 -2.7223  0.0833  1.0494
   72CHL1  H15B 6454   2.457   4.743   4.168 -1.8824  1.8246 -0.6567
   72CHL1   C16 6455   2.295   4.720   4.331  0.1391 -0.4957  0.3727
   72CHL1  H16A 6456   2.322   4.638   4.400  0.4798  1.3808  2.6078
   72CHL1  H16B 6457   2.340   4.815   4.367 -0.6514 -0.0534  0.2062
   72CHL1   C17 6458   2.145   4.703   4.300 -0.6995  0.5561  0.2962
   72CHL1   H17 6459   2.113   4.808   4.282 -2.4707 -0.3159 -2.0989
   72CHL1   C13 6460   2.133   4.627   4.166 -0.0412 -0.0791 -0.7264
   72CHL1   C18 6461   2.150   4.470   4.176  0.3756 -0.3563  0.0804
   72CHL1  H18A 6462   2.059   4.418   4.214 -0.5605  1.3941  0.3447
   72CHL1  H18B 6463   2.159   4.431   4.072 -0.1809 -0.7239  0.1624
   72CHL1  H18C 6464   2.226   4.448   4.254  0.5385 -1.2281 -0.3110
   72CHL1   C12 6465   2.002   4.674   4.083 -1.1934 -0.0692  0.1202
   72CHL1  H12A 6466   1.909   4.640   4.134 -1.0035  1.4050  1.5373
   72CHL1  H12B 6467   2.012   4.785   4.080  0.3957 -0.2115 -1.0006
   72CHL1   C11 6468   2.014   4.629   3.935 -0.5257 -0.0750  0.2869
   72CHL1  H11A 6469   1.977   4.525   3.928 -2.0735  0.5318 -1.9231
   72CHL1  H11B 6470   1.937   4.676   3.870  0.8953  1.2258 -0.5302
   72CHL1    C9 6471   2.148   4.666   3.863 -0.2413  0.5999  0.6390
   72CHL1    H9 6472   2.159   4.777   3.857  1.3149  0.4417 -0.0216
   72CHL1   C10 6473   2.163   4.601   3.724 -0.6604  0.8432 -0.5038
   72CHL1   C19 6474   2.154   4.450   3.745 -0.1540  0.2085 -0.1772
   72CHL1  H19A 6475   2.233   4.405   3.809 -0.8185 -0.3535  0.2514
   72CHL1  H19B 6476   2.053   4.423   3.781  0.2930  0.6946  1.5697
   72CHL1  H19C 6477   2.161   4.401   3.646 -0.0877 -2.7976  1.2087
   72CHL1    C1 6478   2.056   4.659   3.627  0.6412  0.1893 -0.6645
   72CHL1   H1A 6479   1.954   4.620   3.644  0.8590 -0.5482 -1.0086
   72CHL1   H1B 6480   2.052   4.770   3.635  1.6217  0.2560 -0.9160
   72CHL1    C2 6481   2.084   4.626   3.481 -0.0469  0.6866 -0.0433
   72CHL1   H2A 6482   1.989   4.646   3.427 -2.6783 -3.1129  2.6876
   72CHL1   H2B 6483   2.095   4.519   3.454  1.2823  0.6047  0.7464
   72CHL1   C20 6484   2.073   4.639   4.422 -0.3672 -0.0844 -0.2071
   72CHL1   H20 6485   2.095   4.530   4.415  0.0663  0.0137 -0.4025
   72CHL1   C21 6486   1.925   4.671   4.415 -0.2576  0.8635  0.8025
   72CHL1  H21A 6487   1.873   4.634   4.506 -0.0447 -0.7211  0.3212
   72CHL1  H21B 6488   1.886   4.608   4.331 -0.3640  0.3818  1.2033
   72CHL1  H21C 6489   1.902   4.778   4.397  2.7172  1.5296  0.3933
   72CHL1   C22 6490   2.120   4.689   4.561  0.1568  0.2333 -0.3593
   72CHL1  H22A 6491   2.226   4.722   4.559  0.4891 -0.6333  1.2427
   72CHL1  H22B 6492   2.056   4.772   4.598 -0.7645 -1.4173  1.9752
   72CHL1   C23 6493   2.107   4.576   4.662  0.9426  0.3414 -0.4993
   72CHL1  H23A 6494   2.005   4.534   4.667  0.3847  1.6601 -0.4330
   72CHL1  H23B 6495   2.178   4.493   4.639  1.6250  0.8882 -0.4059
   72CHL1   C24 6496   2.135   4.625   4.798  0.8266 -0.8741 -0.1408
   72CHL1  H24A 6497   2.242   4.655   4.795  1.1980 -1.8562  1.7740
   72CHL1  H24B 6498   2.070   4.707   4.834  1.0424 -0.7132 -0.1101
   72CHL1   C25 6499   2.109   4.521   4.915  0.0329  0.3729  0.1906
   72CHL1   H25 6500   2.160   4.425   4.893 -1.1766 -0.5024  1.0317
   72CHL1   C26 6501   2.162   4.577   5.047 -0.2346  0.0266 -0.7040
   72CHL1  H26A 6502   2.095   4.657   5.086 -0.6423 -0.2844 -0.7598
   72CHL1  H26B 6503   2.173   4.505   5.131  2.0074  2.1204  0.9692
   72CHL1  H26C 6504   2.265   4.612   5.023 -0.2654 -0.2937 -1.3176
   72CHL1   C27 6505   1.959   4.489   4.927  0.3339  0.4972  0.1338
   72CHL1  H27A 6506   1.903   4.584   4.940  0.2872  0.3920  0.7302
   72CHL1  H27B 6507   1.916   4.442   4.836 -1.6363 -0.1623  1.3482
   72CHL1  H27C 6508   1.932   4.416   5.007 -0.1197 -1.8036 -2.0017
   73CHL1    C3 6509   2.282   5.238   3.365  0.7655  0.3349 -0.0353
   73CHL1    H3 6510   2.347   5.324   3.392  2.1656 -0.6585 -0.1295
   73CHL1    O3 6511   2.273   5.208   3.226 -0.8507  0.3556 -0.2817
   73CHL1   H3' 6512   2.210   5.266   3.184  1.0067  2.3830 -0.4419
   73CHL1    C4 6513   2.323   5.110   3.434  0.5921 -0.3236  0.6997
   73CHL1   H4A 6514   2.257   5.026   3.403 -0.2916  1.0931 -1.4998
   73CHL1   H4B 6515   2.425   5.087   3.396 -0.3271 -1.4959 -1.1952
   73CHL1    C5 6516   2.305   5.120   3.581 -0.3191 -0.2582 -0.0576
   73CHL1    C6 6517   2.417   5.105   3.654 -0.3616 -0.0283  0.5623
   73CHL1    H6 6518   2.509   5.084   3.598 -0.9789 -3.5452  0.6622
   73CHL1    C7 6519   2.418   5.103   3.800 -0.1978 -0.3368 -0.9103
   73CHL1   H7A 6520   2.465   5.006   3.828 -2.8408 -1.6097 -0.5801
   73CHL1   H7B 6521   2.487   5.187   3.825  0.5857 -0.7163 -1.7288
   73CHL1    C8 6522   2.275   5.110   3.861 -0.0947 -0.3506  0.0260
   73CHL1    H8 6523   2.235   5.007   3.850  0.6911 -0.5467 -1.0785
   73CHL1   C14 6524   2.281   5.156   4.009 -0.2266  0.1747  0.1388
   73CHL1   H14 6525   2.325   5.258   4.004  1.0718 -0.2101  2.3781
   73CHL1   C15 6526   2.380   5.085   4.102 -0.4467  0.5853  0.3437
   73CHL1  H15A 6527   2.394   4.974   4.098  0.4277  0.7129 -3.1718
   73CHL1  H15B 6528   2.477   5.128   4.073  0.1945 -1.3030 -0.4943
   73CHL1   C16 6529   2.344   5.132   4.243 -0.2177  1.1861  0.3619
   73CHL1  H16A 6530   2.315   5.047   4.308 -3.4526  1.0911 -1.0185
   73CHL1  H16B 6531   2.428   5.192   4.284  0.0026  0.0616  1.5978
   73CHL1   C17 6532   2.209   5.218   4.227  0.3388  0.0715 -0.1178
   73CHL1   H17 6533   2.249   5.321   4.221  1.7361 -0.3981  0.7259
   73CHL1   C13 6534   2.155   5.184   4.084  0.6601  0.3322  0.1204
   73CHL1   C18 6535   2.077   5.053   4.087 -0.0612 -0.1219 -0.0215
   73CHL1  H18A 6536   2.137   4.968   4.125 -0.0671 -0.9661 -1.7874
   73CHL1  H18B 6537   1.983   5.074   4.142  0.0204 -1.5396  0.6908
   73CHL1  H18C 6538   2.045   5.019   3.986  1.0052 -1.7051  0.1376
   73CHL1   C12 6539   2.073   5.295   4.005  0.0668  0.0202 -0.4044
   73CHL1  H12A 6540   1.975   5.305   4.058  0.7633 -0.6424  1.0668
   73CHL1  H12B 6541   2.121   5.394   4.007 -1.4855  0.8058  0.3737
   73CHL1   C11 6542   2.050   5.240   3.858 -0.2740 -0.4523 -0.2746
   73CHL1  H11A 6543   1.981   5.154   3.847 -0.4622 -0.1574 -1.4766
   73CHL1  H11B 6544   2.005   5.330   3.810  0.1405 -0.7292 -1.1980
   73CHL1    C9 6545   2.187   5.209   3.780 -0.2501  0.6277  0.2263
   73CHL1    H9 6546   2.244   5.304   3.782  0.2717  0.3067  1.6458
   73CHL1   C10 6547   2.167   5.172   3.635 -0.2774  0.0528 -0.1920
   73CHL1   C19 6548   2.072   5.056   3.614  0.4350 -0.0216 -0.8523
   73CHL1  H19A 6549   2.081   5.006   3.516  1.6145 -0.7385 -0.3992
   73CHL1  H19B 6550   2.074   4.984   3.699  0.0653 -0.8879 -1.5651
   73CHL1  H19C 6551   1.963   5.077   3.626  0.4821  0.4015 -1.1420
   73CHL1    C1 6552   2.129   5.302   3.551  0.4861 -0.6201 -0.5166
   73CHL1   H1A 6553   2.024   5.324   3.580  0.3822 -1.6733 -0.0540
   73CHL1   H1B 6554   2.207   5.376   3.579  1.3254 -1.7259  0.1421
   73CHL1    C2 6555   2.146   5.282   3.403 -0.4527 -0.3135  0.0335
   73CHL1   H2A 6556   2.123   5.376   3.349 -1.9436  0.0692  1.2592
   73CHL1   H2B 6557   2.065   5.213   3.372 -0.4556 -0.0131 -0.6457
   73CHL1   C20 6558   2.116   5.224   4.355  0.0636  0.0630  0.0229
   73CHL1   H20 6559   2.050   5.135   4.362 -0.5837  0.5056 -0.3726
   73CHL1   C21 6560   2.029   5.342   4.334  0.2258 -0.3441 -0.5015
   73CHL1  H21A 6561   1.961   5.337   4.246  1.1942  3.2535 -1.6554
   73CHL1  H21B 6562   2.092   5.432   4.318 -2.9807  1.7476 -2.5826
   73CHL1  H21C 6563   1.956   5.358   4.416 -0.9155  0.3824 -1.6200
   73CHL1   C22 6564   2.196   5.250   4.485 -0.1089 -0.7039  0.7252
   73CHL1  H22A 6565   2.284   5.183   4.495 -1.0122 -2.1677 -0.5986
   73CHL1  H22B 6566   2.231   5.355   4.477 -1.1009 -0.3284  1.1641
   73CHL1   C23 6567   2.110   5.227   4.615  0.4114 -0.4794  0.5540
   73CHL1  H23A 6568   2.014   5.282   4.628 -0.2426 -1.2288 -0.8479
   73CHL1  H23B 6569   2.081   5.120   4.605  0.2115 -0.2971 -1.3029
   73CHL1   C24 6570   2.199   5.259   4.737  0.0722 -0.0029 -0.2012
   73CHL1  H24A 6571   2.310   5.245   4.735  0.0282 -1.2632  2.3251
   73CHL1  H24B 6572   2.197   5.367   4.762  2.0191  0.1616 -0.5614
   73CHL1   C25 6573   2.153   5.194   4.870 -0.0068  0.3247  0.7410
   73CHL1   H25 6574   2.042   5.207   4.874 -0.1424 -0.9048  3.0384
   73CHL1   C26 6575   2.197   5.049   4.874  0.1177  0.3606 -0.0571
   73CHL1  H26A 6576   2.304   5.039   4.847  0.4413  0.5391  1.1039
   73CHL1  H26B 6577   2.172   5.001   4.971 -3.3080 -0.2947 -1.1187
   73CHL1  H26C 6578   2.157   4.985   4.792 -0.2467  2.0419 -1.2429
   73CHL1   C27 6579   2.222   5.273   4.988  0.1387  0.5781  0.1640
   73CHL1  H27A 6580   2.331   5.257   4.984  0.0011 -0.1292 -1.4104
   73CHL1  H27B 6581   2.194   5.381   4.982  0.5043  0.6500 -0.3774
   73CHL1  H27C 6582   2.175   5.226   5.077  1.4474 -1.0346  0.0452
   74CHL1    C3 6583   4.116   5.145   3.323  0.2521  0.3632  1.0513
   74CHL1    H3 6584   4.192   5.211   3.369 -0.8495  1.3593  1.4791
   74CHL1    O3 6585   4.135   5.121   3.183  0.2688 -0.3421  0.3817
   74CHL1   H3' 6586   4.190   5.192   3.149  1.3493 -0.6391  1.4368
   74CHL1    C4 6587   4.102   5.010   3.390 -0.1793 -0.5420  0.6844
   74CHL1   H4A 6588   4.029   4.938   3.347 -1.3359  0.2465  1.2732
   74CHL1   H4B 6589   4.197   4.959   3.366  0.9571  2.6038 -2.3340
   74CHL1    C5 6590   4.070   5.019   3.535 -0.1133 -0.5175 -0.1746
   74CHL1    C6 6591   4.148   4.972   3.629 -0.9987 -0.1673  0.2652
   74CHL1    H6 6592   4.243   4.922   3.606 -0.4589 -1.5030  4.5627
   74CHL1    C7 6593   4.117   4.966   3.774 -0.4115  0.4727  0.0937
   74CHL1   H7A 6594   4.150   4.867   3.813  0.3620  1.2834  1.6107
   74CHL1   H7B 6595   4.176   5.044   3.828  2.2973 -1.6440  0.4281
   74CHL1    C8 6596   3.967   4.994   3.800 -0.5859 -0.0949  0.3048
   74CHL1    H8 6597   3.908   4.907   3.763 -1.4697  0.0312  1.3580
   74CHL1   C14 6598   3.949   5.024   3.945  0.5404 -0.2745 -0.1838
   74CHL1   H14 6599   3.994   5.125   3.960 -1.3397  0.5668  0.0814
   74CHL1   C15 6600   4.007   4.914   4.040 -0.0046 -0.2143  0.1762
   74CHL1  H15A 6601   3.975   4.820   3.989  0.0908  0.4361 -1.1010
   74CHL1  H15B 6602   4.117   4.920   4.047  0.1086 -2.5850  1.4210
   74CHL1   C16 6603   3.939   4.951   4.176 -0.3458  0.5522  0.3505
   74CHL1  H16A 6604   3.886   4.857   4.200 -2.3991  1.8363  1.1107
   74CHL1  H16B 6605   4.012   4.985   4.252 -0.6345  0.4530  0.6711
   74CHL1   C17 6606   3.826   5.050   4.145 -0.1482 -0.5285  0.6587
   74CHL1   H17 6607   3.869   5.151   4.161 -1.1611  0.9269 -4.2589
   74CHL1   C13 6608   3.806   5.042   3.989  0.6580  0.4737  0.3222
   74CHL1   C18 6609   3.720   4.916   3.967 -1.1984 -0.5641  0.4089
   74CHL1  H18A 6610   3.617   4.942   3.999 -1.2405  2.9730 -2.0583
   74CHL1  H18B 6611   3.722   4.886   3.860  0.9666 -1.1036  0.5411
   74CHL1  H18C 6612   3.753   4.837   4.037 -2.5357  1.1676  3.1334
   74CHL1   C12 6613   3.752   5.167   3.913  0.6723 -0.0166  0.6681
   74CHL1  H12A 6614   3.644   5.193   3.921  0.3661 -1.2080  0.4999
   74CHL1  H12B 6615   3.810   5.253   3.952 -1.9284  1.3583  1.8158
   74CHL1   C11 6616   3.777   5.146   3.763 -0.3653  0.1446  0.0684
   74CHL1  H11A 6617   3.708   5.069   3.723  2.1338 -1.2088 -1.8807
   74CHL1  H11B 6618   3.752   5.245   3.718  1.8800  0.2042 -1.1834
   74CHL1    C9 6619   3.918   5.110   3.718 -0.3894 -0.7630 -0.2040
   74CHL1    H9 6620   3.980   5.194   3.757 -0.1639 -0.9767 -0.0912
   74CHL1   C10 6621   3.939   5.094   3.564 -0.3812  0.1486 -0.2801
   74CHL1   C19 6622   3.819   5.011   3.512 -0.4350 -0.3127 -0.1711
   74CHL1  H19A 6623   3.729   5.077   3.505  1.2401  2.3594  1.5042
   74CHL1  H19B 6624   3.840   4.980   3.407  1.0001  0.7776 -0.2423
   74CHL1  H19C 6625   3.792   4.927   3.579 -1.8983 -0.4899 -0.9394
   74CHL1    C1 6626   3.950   5.231   3.495  0.8499  0.2176  0.0675
   74CHL1   H1A 6627   3.861   5.294   3.514  1.1784  0.9950 -0.8458
   74CHL1   H1B 6628   4.034   5.283   3.547  1.8187 -0.8918 -0.3443
   74CHL1    C2 6629   3.981   5.221   3.342 -0.4112  0.2200  0.1828
   74CHL1   H2A 6630   3.974   5.319   3.291 -0.8021  0.3350  0.4542
   74CHL1   H2B 6631   3.902   5.153   3.304  2.0906 -1.9821 -1.4993
   74CHL1   C20 6632   3.705   5.045   4.236 -0.1370 -0.6057 -0.3033
   74CHL1   H20 6633   3.666   4.941   4.248 -1.3162  0.1127  4.3889
   74CHL1   C21 6634   3.599   5.141   4.181 -0.2210 -0.4334 -0.0142
   74CHL1  H21A 6635   3.643   5.239   4.155 -1.1283  0.0689  0.2828
   74CHL1  H21B 6636   3.521   5.158   4.259 -0.9238  0.0725 -0.8034
   74CHL1  H21C 6637   3.555   5.092   4.091  3.3553  0.2620 -2.3370
   74CHL1   C22 6638   3.752   5.072   4.383  0.2400  0.0846  0.0939
   74CHL1  H22A 6639   3.834   5.002   4.410 -0.8072 -0.7824  1.1158
   74CHL1  H22B 6640   3.784   5.179   4.383 -2.6653  1.0224 -0.1392
   74CHL1   C23 6641   3.657   5.047   4.496  0.5140  0.1189  0.0944
   74CHL1  H23A 6642   3.559   5.094   4.475 -0.4623 -1.6050  0.5482
   74CHL1  H23B 6643   3.635   4.938   4.485 -2.4113  0.6825 -0.4694
   74CHL1   C24 6644   3.712   5.086   4.631  0.5774 -0.0324  0.9053
   74CHL1  H24A 6645   3.804   5.026   4.648  0.0982 -1.8768 -2.2971
   74CHL1  H24B 6646   3.730   5.196   4.636 -1.7985  0.4437  0.0509
   74CHL1   C25 6647   3.605   5.063   4.734  0.7804  0.2547  0.1855
   74CHL1   H25 6648   3.502   5.079   4.698  0.3744 -2.2303  0.0415
   74CHL1   C26 6649   3.610   4.921   4.784 -0.2345  0.7345 -0.2387
   74CHL1  H26A 6650   3.591   4.852   4.699  0.0109  0.0170  0.2876
   74CHL1  H26B 6651   3.708   4.892   4.828 -1.2974 -0.8101  1.2006
   74CHL1  H26C 6652   3.543   4.905   4.871  1.4776 -0.3249  0.9475
   74CHL1   C27 6653   3.607   5.148   4.855  0.4258 -0.4466 -0.7496
   74CHL1  H27A 6654   3.604   5.257   4.834  0.4219 -0.2989 -0.0117
   74CHL1  H27B 6655   3.517   5.120   4.913 -0.7417  1.5588 -1.4656
   74CHL1  H27C 6656   3.700   5.135   4.915 -0.6513 -0.6490  0.9311
   75CHL1    C3 6657   4.810   3.933   3.017 -0.6450 -0.3535  0.9532
   75CHL1    H3 6658   4.737   4.004   3.062 -1.0527 -2.2639  3.5073
   75CHL1    O3 6659   4.812   3.967   2.880 -0.4328  0.5369  0.2261
   75CHL1   H3' 6660   4.719   3.984   2.862 -0.5747 -2.5299 -3.1234
   75CHL1    C4 6661   4.950   3.965   3.077  0.2674 -0.5545 -0.8198
   75CHL1   H4A 6662   5.025   3.893   3.037  2.0848  0.6805  0.2149
   75CHL1   H4B 6663   4.987   4.066   3.050  2.1090 -0.8012  0.5567
   75CHL1    C5 6664   4.945   3.943   3.229 -0.3016  0.4055 -0.0350
   75CHL1    C6 6665   4.977   4.043   3.314 -0.2405  0.6937  0.1968
   75CHL1    H6 6666   5.021   4.136   3.277  2.2633 -0.5099 -0.0735
   75CHL1    C7 6667   4.974   4.032   3.471  0.0386 -0.0309  0.3991
   75CHL1   H7A 6668   5.076   4.047   3.513 -0.1124 -3.2426  2.2698
   75CHL1   H7B 6669   4.896   4.101   3.510 -0.7750  0.0528 -1.3252
   75CHL1    C8 6670   4.950   3.886   3.520  0.3183  0.5799 -0.3315
   75CHL1    H8 6671   5.051   3.841   3.514 -0.3552 -0.9403 -0.7603
   75CHL1   C14 6672   4.907   3.892   3.667  0.5350  0.0616 -0.4613
   75CHL1   H14 6673   4.811   3.948   3.662 -0.9646 -2.2470  0.2218
   75CHL1   C15 6674   5.002   3.964   3.767 -0.4043 -0.1313 -0.8595
   75CHL1  H15A 6675   5.111   3.941   3.757 -0.4108 -1.0923  0.9481
   75CHL1  H15B 6676   5.002   4.075   3.763  0.1415  0.0166  1.5937
   75CHL1   C16 6677   4.947   3.918   3.908 -0.0411  0.3680 -0.5919
   75CHL1  H16A 6678   5.032   3.860   3.951 -0.8573 -0.6771 -0.3228
   75CHL1  H16B 6679   4.910   3.994   3.981  1.0915  0.4099 -0.0394
   75CHL1   C17 6680   4.839   3.806   3.875 -0.0548 -0.0355 -0.1909
   75CHL1   H17 6681   4.747   3.869   3.869 -0.3070 -0.5751 -3.5268
   75CHL1   C13 6682   4.879   3.765   3.729 -0.5099 -0.0335  0.6575
   75CHL1   C18 6683   5.010   3.685   3.734 -0.3398  0.5008  0.6002
   75CHL1  H18A 6684   4.977   3.580   3.745 -1.4402  0.8252  0.5382
   75CHL1  H18B 6685   5.061   3.689   3.636 -1.6464  1.6190 -0.0572
   75CHL1  H18C 6686   5.083   3.715   3.813  1.7803  0.3717 -1.2207
   75CHL1   C12 6687   4.772   3.684   3.643  0.2180  0.5179 -0.5760
   75CHL1  H12A 6688   4.765   3.579   3.678 -1.2053  1.1283  1.1594
   75CHL1  H12B 6689   4.669   3.721   3.658 -1.0282 -2.5664 -0.7999
   75CHL1   C11 6690   4.812   3.675   3.498  0.2780 -0.2579 -0.7471
   75CHL1  H11A 6691   4.894   3.601   3.494  1.7475  1.0445  2.2470
   75CHL1  H11B 6692   4.721   3.643   3.443 -1.4887  1.4516  1.0043
   75CHL1    C9 6693   4.848   3.812   3.433 -0.1193  0.4174  0.9892
   75CHL1    H9 6694   4.751   3.866   3.441 -0.7226 -0.8067  2.3585
   75CHL1   C10 6695   4.882   3.803   3.277 -0.0181 -0.1150 -0.1564
   75CHL1   C19 6696   4.989   3.698   3.253 -0.2758  0.0936  0.6974
   75CHL1  H19A 6697   5.021   3.703   3.147  1.4965 -1.6007  1.0873
   75CHL1  H19B 6698   5.072   3.721   3.323 -1.1836  0.9679  1.5136
   75CHL1  H19C 6699   4.943   3.597   3.264 -0.8292  0.1934 -0.5983
   75CHL1    C1 6700   4.757   3.781   3.202  0.5676  0.5088  0.0129
   75CHL1   H1A 6701   4.713   3.682   3.227 -1.0488  0.5431 -2.3737
   75CHL1   H1B 6702   4.679   3.850   3.239  0.2268 -0.6527  1.5518
   75CHL1    C2 6703   4.763   3.795   3.048 -0.2075 -0.1386 -0.3213
   75CHL1   H2A 6704   4.663   3.771   3.006 -0.5082 -1.3209  1.0041
   75CHL1   H2B 6705   4.832   3.722   3.000  0.1102  0.7491 -1.2460
   75CHL1   C20 6706   4.803   3.692   3.981 -0.3175 -0.7244  0.4048
   75CHL1   H20 6707   4.859   3.603   3.945  0.9232  0.1780 -0.0046
   75CHL1   C21 6708   4.647   3.673   3.979 -0.0024 -0.3489  0.1164
   75CHL1  H21A 6709   4.620   3.664   3.872  0.8067 -1.6832  0.0030
   75CHL1  H21B 6710   4.593   3.764   4.013  0.6719  0.0110  0.2491
   75CHL1  H21C 6711   4.623   3.583   4.039  0.7047 -0.6434 -0.0334
   75CHL1   C22 6712   4.860   3.734   4.122  0.0219  0.5104  0.0012
   75CHL1  H22A 6713   4.968   3.756   4.109  0.1536 -0.2006 -0.1413
   75CHL1  H22B 6714   4.805   3.820   4.166 -0.6400  0.4958 -0.7755
   75CHL1   C23 6715   4.859   3.619   4.223 -0.1614  0.3382 -1.1290
   75CHL1  H23A 6716   4.754   3.583   4.229  0.2831 -0.9845 -0.8603
   75CHL1  H23B 6717   4.927   3.537   4.192 -0.4031 -0.6345  0.7341
   75CHL1   C24 6718   4.904   3.661   4.365 -0.3650 -0.0880 -0.6277
   75CHL1  H24A 6719   5.005   3.707   4.365 -0.4247  0.0822 -2.2717
   75CHL1  H24B 6720   4.835   3.739   4.401 -0.3621 -0.2681 -0.2162
   75CHL1   C25 6721   4.898   3.549   4.471 -1.4711  0.5544  0.9898
   75CHL1   H25 6722   4.971   3.470   4.443 -2.8765 -0.2784 -0.4528
   75CHL1   C26 6723   4.949   3.609   4.607  0.5601 -1.3138 -0.6090
   75CHL1  H26A 6724   5.046   3.663   4.598  1.5001 -2.6902  0.7377
   75CHL1  H26B 6725   4.884   3.680   4.661  1.3132  0.0135 -1.4070
   75CHL1  H26C 6726   4.970   3.526   4.678 -1.0503 -0.5568  0.7998
   75CHL1   C27 6727   4.759   3.483   4.486  0.1042 -0.2681  0.8286
   75CHL1  H27A 6728   4.774   3.406   4.565  0.1154 -1.0365  0.0950
   75CHL1  H27B 6729   4.676   3.555   4.504 -0.7146 -1.2162  0.8944
   75CHL1  H27C 6730   4.732   3.427   4.394  1.3250  0.2017  0.1596
   76CHL1    C3 6731   0.813   5.583   2.894  0.6854  0.2018 -0.2882
   76CHL1    H3 6732   0.898   5.511   2.895 -0.2988 -1.0004 -0.5142
   76CHL1    O3 6733   0.805   5.631   2.759 -0.4186  0.6491  0.0336
   76CHL1   H3' 6734   0.880   5.692   2.754  2.8194 -2.9950 -0.7101
   76CHL1    C4 6735   0.684   5.512   2.937 -0.2769 -0.4889 -0.1368
   76CHL1   H4A 6736   0.596   5.574   2.909 -0.8725 -0.8174  0.9408
   76CHL1   H4B 6737   0.683   5.411   2.889  2.4890 -0.0355 -1.3181
   76CHL1    C5 6738   0.684   5.476   3.082  0.7310 -0.0072 -0.6297
   76CHL1    C6 6739   0.656   5.353   3.128 -0.0575  0.5630  0.1915
   76CHL1    H6 6740   0.615   5.279   3.058 -3.2412  2.2279  0.1476
   76CHL1    C7 6741   0.654   5.296   3.278 -0.4142 -0.0495  0.4840
   76CHL1   H7A 6742   0.567   5.236   3.312  0.5081 -1.2250  0.7946
   76CHL1   H7B 6743   0.748   5.239   3.295  0.1440  0.2783 -1.2507
   76CHL1    C8 6744   0.666   5.417   3.375 -0.3882  0.0833  0.2807
   76CHL1    H8 6745   0.567   5.468   3.374 -0.3872  0.0837  0.1651
   76CHL1   C14 6746   0.699   5.366   3.512 -0.6994  0.4125  0.2508
   76CHL1   H14 6747   0.803   5.326   3.503  0.0406  2.2218  0.3624
   76CHL1   C15 6748   0.617   5.254   3.577 -0.7571 -0.2560  0.7740
   76CHL1  H15A 6749   0.515   5.275   3.539  0.2378  1.0300 -1.3271
   76CHL1  H15B 6750   0.668   5.159   3.550  1.3289  0.2962  2.4682
   76CHL1   C16 6751   0.638   5.279   3.728  0.2129  0.2294  0.2826
   76CHL1  H16A 6752   0.539   5.300   3.776 -0.6155 -0.4104 -1.1045
   76CHL1  H16B 6753   0.674   5.184   3.772  2.9062  1.5209  1.1152
   76CHL1   C17 6754   0.746   5.390   3.753 -0.1561  0.3287  0.2958
   76CHL1   H17 6755   0.843   5.337   3.747  2.3055  4.6068 -1.7017
   76CHL1   C13 6756   0.726   5.469   3.619  0.1304 -0.0940 -0.0823
   76CHL1   C18 6757   0.597   5.558   3.638 -0.3685  0.0190  0.0520
   76CHL1  H18A 6758   0.518   5.498   3.688  0.1315  1.1915  2.4243
   76CHL1  H18B 6759   0.630   5.647   3.695 -2.9651  0.5322  0.8517
   76CHL1  H18C 6760   0.560   5.606   3.546  0.1000  0.3188  0.0162
   76CHL1   C12 6761   0.847   5.544   3.567  0.1170  0.2791 -0.1046
   76CHL1  H12A 6762   0.887   5.614   3.644  2.1925 -2.5782  1.6207
   76CHL1  H12B 6763   0.938   5.480   3.557  1.2578  1.9283 -0.8069
   76CHL1   C11 6764   0.831   5.618   3.433  0.8655  0.2673 -0.8598
   76CHL1  H11A 6765   0.764   5.706   3.450  0.5811 -0.0588 -0.2516
   76CHL1  H11B 6766   0.930   5.660   3.404 -0.7569  3.6331 -2.1355
   76CHL1    C9 6767   0.770   5.518   3.325  0.0967  0.1995 -0.1227
   76CHL1    H9 6768   0.858   5.452   3.309 -2.2290 -2.6153 -2.5832
   76CHL1   C10 6769   0.738   5.585   3.184  0.5846 -0.2823 -0.6658
   76CHL1   C19 6770   0.637   5.698   3.210  0.8757 -0.3748  0.2697
   76CHL1  H19A 6771   0.569   5.686   3.297  0.4069  0.4725  0.0404
   76CHL1  H19B 6772   0.686   5.796   3.230 -1.0035  0.0364  3.6713
   76CHL1  H19C 6773   0.571   5.704   3.121  2.4143 -0.0819 -0.8955
   76CHL1    C1 6774   0.871   5.649   3.126 -0.0359  0.5226 -0.2696
   76CHL1   H1A 6775   0.899   5.732   3.195 -0.8236  0.7316 -0.1964
   76CHL1   H1B 6776   0.953   5.574   3.126 -0.0137  0.4907  1.6120
   76CHL1    C2 6777   0.856   5.702   2.979 -0.6292 -0.1816 -0.1748
   76CHL1   H2A 6778   0.950   5.746   2.941 -0.0066  0.2678  1.7601
   76CHL1   H2B 6779   0.779   5.781   2.961  0.7936  1.3439  0.1592
   76CHL1   C20 6780   0.727   5.467   3.886  0.0860  0.5002 -0.1135
   76CHL1   H20 6781   0.626   5.511   3.903 -0.3798 -0.4172 -0.4364
   76CHL1   C21 6782   0.823   5.581   3.894  0.0226  0.5386 -0.2155
   76CHL1  H21A 6783   0.791   5.666   3.831 -3.3249 -1.2258 -1.1437
   76CHL1  H21B 6784   0.927   5.551   3.869  0.7191  0.9306  1.9808
   76CHL1  H21C 6785   0.824   5.617   3.999  1.9131  0.4788 -0.1706
   76CHL1   C22 6786   0.760   5.372   4.011 -0.3419  0.7314  0.1404
   76CHL1  H22A 6787   0.720   5.273   3.980  1.7788  0.7519 -3.2310
   76CHL1  H22B 6788   0.870   5.358   4.010 -0.3040  0.9718  0.7017
   76CHL1   C23 6789   0.699   5.410   4.144  0.4545 -0.2288 -0.0423
   76CHL1  H23A 6790   0.734   5.513   4.166  1.5587 -0.2361 -1.5991
   76CHL1  H23B 6791   0.588   5.415   4.133  0.4108 -2.9948 -1.8642
   76CHL1   C24 6792   0.730   5.315   4.245  0.2202 -0.3025 -0.0430
   76CHL1  H24A 6793   0.679   5.217   4.237 -0.3864 -0.1754  1.8317
   76CHL1  H24B 6794   0.838   5.293   4.253  0.2026  0.1321  2.2795
   76CHL1   C25 6795   0.687   5.355   4.388 -0.1576  0.1930 -0.1091
   76CHL1   H25 6796   0.737   5.451   4.412 -1.9483  0.9899  0.6171
   76CHL1   C26 6797   0.531   5.366   4.409 -0.1801 -0.4193  0.0217
   76CHL1  H26A 6798   0.507   5.378   4.517 -0.3067 -0.3726 -0.0109
   76CHL1  H26B 6799   0.500   5.454   4.349  1.9128 -0.2022 -0.8032
   76CHL1  H26C 6800   0.484   5.272   4.372 -1.9415  0.4443 -0.0914
   76CHL1   C27 6801   0.739   5.253   4.487 -0.3406 -0.3677 -0.3502
   76CHL1  H27A 6802   0.847   5.229   4.489  0.2454  2.0225 -0.7650
   76CHL1  H27B 6803   0.702   5.291   4.585 -0.4490  0.3932 -0.6786
   76CHL1  H27C 6804   0.675   5.163   4.471  0.8295 -1.4837  1.0303
   77SOPE     N 6805   4.383   2.193   7.324 -0.4844  0.6687 -0.1312
   77SOPE   HN1 6806   4.450   2.272   7.334 -1.3582  1.7976 -2.4215
   77SOPE   HN2 6807   4.322   2.229   7.248 -1.4305 -0.0762  0.2661
   77SOPE   HN3 6808   4.322   2.181   7.407  0.0474 -1.6498 -0.0195
   77SOPE   C12 6809   4.443   2.064   7.277  0.6287  0.4322  0.4062
   77SOPE  H12A 6810   4.516   2.027   7.352  1.4346  0.5101 -0.3303
   77SOPE  H12B 6811   4.481   2.076   7.173 -1.4958  2.3060 -0.2652
   77SOPE   C11 6812   4.328   1.962   7.278  0.2346  0.0556 -0.0089
   77SOPE  H11A 6813   4.283   1.956   7.379  0.1642 -1.0567 -0.0919
   77SOPE  H11B 6814   4.356   1.858   7.252 -0.5118 -0.0813 -0.2950
   77SOPE     P 6815   4.215   1.971   7.036  0.3327 -0.1156 -0.0914
   77SOPE   O13 6816   4.231   2.093   6.953 -0.4951 -0.4485 -0.4871
   77SOPE   O14 6817   4.082   1.901   7.026  0.2719 -0.4353  0.8305
   77SOPE   O12 6818   4.227   2.012   7.186 -0.5697 -0.1419  0.6108
   77SOPE   O11 6819   4.319   1.858   7.016 -0.2180  0.0922  0.4242
   77SOPE    C1 6820   4.444   1.884   6.953  0.0347 -0.3773  0.0201
   77SOPE    HA 6821   4.513   1.797   6.958  2.8741  1.4277 -3.0756
   77SOPE    HB 6822   4.501   1.969   6.996  0.7764 -1.4106  1.1312
   77SOPE    C2 6823   4.431   1.913   6.795  0.5845 -0.6975 -0.2054
   77SOPE    HS 6824   4.416   2.023   6.786  0.1070 -0.6304  1.1715
   77SOPE   O21 6825   4.318   1.842   6.738 -0.3450  0.6207  0.0994
   77SOPE   C21 6826   4.325   1.710   6.731 -0.7372 -0.3989 -0.4879
   77SOPE   O22 6827   4.420   1.644   6.764  0.7362  0.3709 -0.4556
   77SOPE   C22 6828   4.207   1.651   6.656 -0.0613 -0.1532  0.2637
   77SOPE   H2R 6829   4.153   1.733   6.604  2.9028  1.2950 -0.7400
   77SOPE   H2S 6830   4.143   1.602   6.733 -2.1042 -0.1299 -1.3219
   77SOPE    C3 6831   4.570   1.890   6.725 -0.2987 -0.0937 -0.2206
   77SOPE    HX 6832   4.597   1.782   6.734 -3.9733 -1.1277 -0.1923
   77SOPE    HY 6833   4.638   1.954   6.785 -0.0718  0.3061 -0.8912
   77SOPE   O31 6834   4.563   1.923   6.583 -0.5599 -0.2996  0.7164
   77SOPE   C31 6835   4.654   1.857   6.514 -0.4505  0.4485 -0.1244
   77SOPE   O32 6836   4.747   1.791   6.562  0.1662 -0.2469 -1.0073
   77SOPE   C32 6837   4.636   1.881   6.364 -0.7756 -0.1763  0.4830
   77SOPE   H2X 6838   4.654   1.988   6.344  1.5952 -0.4487  0.8794
   77SOPE   H2Y 6839   4.534   1.852   6.333 -0.6095 -0.0359 -0.2093
   77SOPE   C23 6840   4.256   1.533   6.566 -0.0493  0.2575 -0.1473
   77SOPE   H3R 6841   4.165   1.474   6.542 -1.1273  1.5564  0.5766
   77SOPE   H3S 6842   4.322   1.456   6.609  1.1086  0.0919 -2.1041
   77SOPE   C24 6843   4.294   1.595   6.433  0.0759  0.3183 -0.3285
   77SOPE   H4R 6844   4.217   1.661   6.390 -1.3386 -1.9310 -1.4184
   77SOPE   H4S 6845   4.385   1.653   6.461 -1.7272  1.9202  2.7646
   77SOPE   C25 6846   4.329   1.490   6.323  0.5072  0.6013  0.5645
   77SOPE   H5R 6847   4.371   1.397   6.367 -0.0643  0.6136  1.1549
   77SOPE   H5S 6848   4.241   1.467   6.259  0.2693  0.3593  0.9742
   77SOPE   C26 6849   4.436   1.544   6.231 -0.1796 -0.2080  0.2568
   77SOPE   H6R 6850   4.402   1.632   6.172  0.9716  0.3336  0.3668
   77SOPE   H6S 6851   4.515   1.587   6.297  1.8846 -1.5740 -1.1994
   77SOPE   C27 6852   4.503   1.444   6.132 -0.4367 -0.3427  0.1987
   77SOPE   H7R 6853   4.592   1.496   6.091 -0.9857  4.4996  4.2707
   77SOPE   H7S 6854   4.526   1.348   6.183 -1.3471 -1.2880 -1.0864
   77SOPE   C28 6855   4.409   1.408   6.007  0.2527  0.3252  0.0074
   77SOPE   H8R 6856   4.457   1.325   5.951 -2.9018 -2.2996  0.8409
   77SOPE   H8S 6857   4.331   1.355   6.067 -0.0308 -0.0240 -0.6640
   77SOPE   C29 6858   4.359   1.521   5.936  0.7191 -0.5981  0.0962
   77SOPE   H91 6859   4.273   1.574   5.980 -0.9334 -2.1196 -1.1901
   77SOPE  C210 6860   4.415   1.579   5.832 -0.4479 -0.4601 -0.1751
   77SOPE  H101 6861   4.366   1.667   5.789 -0.1967  1.0412  2.3740
   77SOPE  C211 6862   4.535   1.529   5.760 -0.3050  0.0738 -0.1916
   77SOPE  H11R 6863   4.542   1.418   5.767 -1.0046 -0.1254 -1.9977
   77SOPE  H11S 6864   4.629   1.567   5.803 -0.1864  1.7678 -1.8074
   77SOPE  C212 6865   4.519   1.574   5.619  0.1382  0.5802  0.0751
   77SOPE  H12R 6866   4.531   1.684   5.615  1.2424  0.4390 -1.4264
   77SOPE  H12S 6867   4.419   1.556   5.573  0.2541  1.5435 -0.5858
   77SOPE  C213 6868   4.631   1.520   5.524 -0.4801 -0.5397  0.1606
   77SOPE  H13R 6869   4.620   1.409   5.516 -0.8507 -0.4425 -0.7737
   77SOPE  H13S 6870   4.734   1.534   5.563 -0.8379  0.8828  0.6644
   77SOPE  C214 6871   4.626   1.566   5.380  0.2074  0.1363 -0.5438
   77SOPE  H14R 6872   4.643   1.674   5.363  0.0642  0.0668 -1.1356
   77SOPE  H14S 6873   4.526   1.538   5.340 -0.4041 -0.3858  1.2118
   77SOPE  C215 6874   4.729   1.478   5.292  0.0743 -0.4783 -0.6461
   77SOPE  H15R 6875   4.701   1.371   5.288  0.0411 -0.4791 -0.4271
   77SOPE  H15S 6876   4.829   1.474   5.340  0.6024 -1.5249 -1.8087
   77SOPE  C216 6877   4.745   1.530   5.142 -0.2516 -0.5001  0.1970
   77SOPE  H16R 6878   4.853   1.528   5.118 -0.4461 -2.2482 -0.6946
   77SOPE  H16S 6879   4.717   1.637   5.143  2.4331  0.2794  0.9423
   77SOPE  C217 6880   4.649   1.454   5.052  0.1962 -0.5799 -0.1025
   77SOPE  H17R 6881   4.562   1.415   5.108 -0.9946  1.3488 -0.5381
   77SOPE  H17S 6882   4.699   1.364   5.009  0.9882 -0.5855  0.8019
   77SOPE  C218 6883   4.602   1.534   4.935  0.4760 -0.1456  0.7876
   77SOPE  H18R 6884   4.681   1.557   4.861 -1.2887 -1.1097 -1.5206
   77SOPE  H18S 6885   4.556   1.632   4.958  0.9524  0.3630 -0.3221
   77SOPE  H18T 6886   4.531   1.475   4.872  0.9539  1.0110 -0.8980
   77SOPE   C33 6887   4.735   1.807   6.274  0.5609  0.3675 -0.0083
   77SOPE   H3X 6888   4.725   1.697   6.282  0.7816  0.3382 -0.1344
   77SOPE   H3Y 6889   4.838   1.835   6.305  0.5276 -0.1156  0.5761
   77SOPE   C34 6890   4.714   1.834   6.128 -0.1592  0.5950 -0.1692
   77SOPE   H4X 6891   4.734   1.939   6.098  1.3118  1.3815  3.0806
   77SOPE   H4Y 6892   4.611   1.807   6.095  0.0250 -0.1993 -0.1014
   77SOPE   C35 6893   4.807   1.747   6.041  0.7601 -0.5047 -0.6559
   77SOPE   H5X 6894   4.776   1.640   6.045 -0.0328 -0.2705 -0.5152
   77SOPE   H5Y 6895   4.911   1.745   6.082  1.6588  1.0002 -2.7069
   77SOPE   C36 6896   4.819   1.796   5.895 -0.5339  0.7519 -0.0108
   77SOPE   H6X 6897   4.868   1.895   5.903  1.0650  0.1716 -1.7787
   77SOPE   H6Y 6898   4.713   1.806   5.864 -0.6479 -1.7150 -0.6456
   77SOPE   C37 6899   4.908   1.706   5.804 -0.4802 -1.2000 -0.4746
   77SOPE   H7X 6900   4.861   1.610   5.772 -0.9412 -1.8132  1.9014
   77SOPE   H7Y 6901   5.006   1.688   5.853 -0.0252 -0.2715 -1.0207
   77SOPE   C38 6902   4.944   1.782   5.670 -0.2608  0.1314 -0.2986
   77SOPE   H8X 6903   4.967   1.887   5.697 -0.0252 -0.1395  0.6033
   77SOPE   H8Y 6904   4.848   1.776   5.615 -0.4608  1.0851 -0.0629
   77SOPE   C39 6905   5.055   1.714   5.588 -0.7019 -0.2837 -0.5719
   77SOPE   H9X 6906   5.048   1.603   5.598 -2.0476 -0.0217  2.8287
   77SOPE   H9Y 6907   5.151   1.758   5.620 -2.0452  0.4015  3.0342
   77SOPE  C310 6908   5.031   1.736   5.438  0.0372 -0.0979 -0.4278
   77SOPE  H10X 6909   5.023   1.845   5.417  1.3209 -0.2078 -1.6538
   77SOPE  H10Y 6910   4.939   1.687   5.401  0.4138  0.2029 -1.8499
   77SOPE  C311 6911   5.151   1.688   5.348 -0.0583  0.1426 -0.1042
   77SOPE  H11X 6912   5.121   1.706   5.243  2.7720  4.3195 -0.4667
   77SOPE  H11Y 6913   5.176   1.586   5.383  2.0143  1.1179  1.5121
   77SOPE  C312 6914   5.271   1.773   5.385 -0.5271 -0.9947 -0.1389
   77SOPE  H12X 6915   5.311   1.748   5.485 -0.7170 -3.0048 -0.5212
   77SOPE  H12Y 6916   5.244   1.880   5.377  0.0434 -0.7823  0.6238
   77SOPE  C313 6917   5.378   1.753   5.273 -0.7854 -0.2726 -0.5695
   77SOPE  H13X 6918   5.463   1.822   5.293  1.1899 -2.8168  0.3363
   77SOPE  H13Y 6919   5.326   1.781   5.179 -1.3746  1.5296  0.2322
   77SOPE  C314 6920   5.435   1.615   5.274 -0.2885  0.3217 -0.3790
   77SOPE  H14X 6921   5.358   1.536   5.283 -0.1035  0.0146 -1.3592
   77SOPE  H14Y 6922   5.501   1.603   5.362  0.2499  0.3620 -0.7710
   77SOPE  C315 6923   5.521   1.579   5.146  0.1719  0.2010 -0.2509
   77SOPE  H15X 6924   5.472   1.601   5.049 -1.1624 -0.0797  0.3386
   77SOPE  H15Y 6925   5.537   1.469   5.156 -1.1220  0.0879  0.8865
   77SOPE  C316 6926   5.658   1.651   5.154 -0.4958 -0.1524 -0.0974
   77SOPE  H16X 6927   5.712   1.624   5.247  0.4624 -1.0960 -0.9075
   77SOPE  H16Y 6928   5.619   1.755   5.153  2.4005  1.0337 -0.0853
   77SOPE  C317 6929   5.765   1.645   5.041  0.9699  0.4372  0.6149
   77SOPE  H17X 6930   5.863   1.684   5.076  1.2595  1.1386 -0.8860
   77SOPE  H17Y 6931   5.735   1.702   4.950  0.1104  0.9719  1.2145
   77SOPE  C318 6932   5.780   1.496   4.999 -0.6546 -0.4351 -0.4099
   77SOPE  H18X 6933   5.864   1.482   4.928  2.7736  1.2631  2.9273
   77SOPE  H18Y 6934   5.684   1.461   4.955 -0.0448 -2.5348 -0.1900
   77SOPE  H18Z 6935   5.797   1.428   5.086  0.0782  1.4155  0.9525
   78SOPE     N 6936   5.039   0.743   7.322 -0.1062  0.0819  0.8743
   78SOPE   HN1 6937   5.069   0.839   7.349 -0.0569  0.2310  0.3156
   78SOPE   HN2 6938   4.972   0.699   7.387 -0.2225 -0.0625  0.6594
   78SOPE   HN3 6939   5.124   0.683   7.316 -0.7943 -0.7974 -2.0006
   78SOPE   C12 6940   4.970   0.770   7.185 -0.2449  0.8439  0.2710
   78SOPE  H12A 6941   4.984   0.677   7.125  1.0678  1.0634  0.2230
   78SOPE  H12B 6942   5.022   0.850   7.129 -0.5421  0.4908 -0.5208
   78SOPE   C11 6943   4.826   0.803   7.215 -0.5930  0.3711 -0.3668
   78SOPE  H11A 6944   4.815   0.876   7.297 -0.3261 -0.8845  0.8170
   78SOPE  H11B 6945   4.768   0.716   7.252  0.2308  0.3823  1.0132
   78SOPE     P 6946   4.627   0.892   7.083  0.5290 -0.4428  0.1345
   78SOPE   O13 6947   4.591   0.915   6.940 -0.4824  0.6427  0.0010
   78SOPE   O14 6948   4.595   1.005   7.176  0.2659  0.8040  0.1577
   78SOPE   O12 6949   4.770   0.849   7.100 -0.1418 -0.3437 -0.3043
   78SOPE   O11 6950   4.540   0.766   7.131 -0.1221 -0.0479 -0.2375
   78SOPE    C1 6951   4.568   0.635   7.070  0.1677 -0.2746  0.2829
   78SOPE    HA 6952   4.571   0.553   7.145  3.7649  0.3366  0.9957
   78SOPE    HB 6953   4.660   0.629   7.009 -0.1353  1.3675 -0.3891
   78SOPE    C2 6954   4.457   0.591   6.971  0.5210  0.5548  0.5604
   78SOPE    HS 6955   4.476   0.485   6.946  0.2046  0.8801 -1.1599
   78SOPE   O21 6956   4.460   0.683   6.857  0.0017 -0.3506 -0.3304
   78SOPE   C21 6957   4.517   0.644   6.739 -0.1687  0.4795  0.7246
   78SOPE   O22 6958   4.554   0.530   6.721 -0.7161 -0.4572  0.1970
   78SOPE   C22 6959   4.520   0.757   6.637 -0.3032  0.4609  0.0598
   78SOPE   H2R 6960   4.553   0.851   6.686 -0.7390  1.0280 -0.6924
   78SOPE   H2S 6961   4.419   0.775   6.592 -1.3121 -1.7976  1.2344
   78SOPE    C3 6962   4.308   0.594   7.031 -0.0398  0.4338  0.0296
   78SOPE    HX 6963   4.279   0.699   7.054 -2.2600  0.0810 -0.8636
   78SOPE    HY 6964   4.316   0.540   7.127 -0.4574  1.2902  0.5594
   78SOPE   O31 6965   4.213   0.529   6.940  0.0648  0.3440 -0.1851
   78SOPE   C31 6966   4.167   0.611   6.849  0.0664  0.6879  0.1054
   78SOPE   O32 6967   4.170   0.732   6.852  0.2954 -0.3423 -0.0226
   78SOPE   C32 6968   4.113   0.541   6.728 -0.9020  0.2488  0.4840
   78SOPE   H2X 6969   4.041   0.602   6.670  0.8873  0.7723 -1.3213
   78SOPE   H2Y 6970   4.053   0.453   6.759 -1.6175  0.1646 -1.0661
   78SOPE   C23 6971   4.613   0.737   6.514  0.3996 -0.0297 -0.8049
   78SOPE   H3R 6972   4.713   0.712   6.556 -0.8366 -0.5207  2.0825
   78SOPE   H3S 6973   4.622   0.827   6.449 -2.3334 -0.4179 -1.8489
   78SOPE   C24 6974   4.566   0.631   6.414 -0.4529 -0.8637 -0.3103
   78SOPE   H4R 6975   4.554   0.530   6.457 -2.5023 -1.0475 -1.2023
   78SOPE   H4S 6976   4.463   0.653   6.380 -0.8459  0.1314  1.3804
   78SOPE   C25 6977   4.666   0.638   6.294  0.3030  0.2143 -0.2851
   78SOPE   H5R 6978   4.686   0.738   6.250 -0.7789 -0.4550 -2.4354
   78SOPE   H5S 6979   4.761   0.598   6.335 -0.7932 -1.5890  0.6041
   78SOPE   C26 6980   4.632   0.552   6.166 -0.0888 -0.0026  0.2173
   78SOPE   H6R 6981   4.622   0.448   6.204  1.0436 -0.0893  0.3123
   78SOPE   H6S 6982   4.530   0.581   6.131  0.3337  0.7105 -0.4585
   78SOPE   C27 6983   4.744   0.548   6.058  0.4839  0.5377  0.0275
   78SOPE   H7R 6984   4.834   0.516   6.116  0.6862  2.4130  0.8419
   78SOPE   H7S 6985   4.723   0.460   5.994 -3.3583  0.1196  1.5733
   78SOPE   C28 6986   4.772   0.681   5.979 -0.0057 -0.3149  1.8502
   78SOPE   H8R 6987   4.818   0.761   6.040 -0.5078  0.4844  1.2132
   78SOPE   H8S 6988   4.856   0.654   5.911 -1.4286  0.9132 -0.5197
   78SOPE   C29 6989   4.659   0.751   5.902 -0.0796  0.8081  0.0501
   78SOPE   H91 6990   4.585   0.787   5.976 -1.3820 -0.6185 -0.5057
   78SOPE  C210 6991   4.641   0.762   5.768  0.6446 -0.1234 -0.1049
   78SOPE  H101 6992   4.561   0.825   5.728  0.9976 -0.3926 -1.2540
   78SOPE  C211 6993   4.728   0.707   5.658  0.5457  0.6083 -0.4523
   78SOPE  H11R 6994   4.786   0.618   5.692 -1.5616 -1.7517 -2.5238
   78SOPE  H11S 6995   4.800   0.789   5.642  0.9258  0.2992 -0.3454
   78SOPE  C212 6996   4.659   0.671   5.531  0.7421 -0.2010  0.0927
   78SOPE  H12R 6997   4.727   0.698   5.447 -0.8004  0.9939 -0.8197
   78SOPE  H12S 6998   4.576   0.744   5.520  1.4760  0.5272 -0.8337
   78SOPE  C213 6999   4.632   0.524   5.515 -0.2635  0.1500  0.0073
   78SOPE  H13R 7000   4.566   0.486   5.596 -0.2252 -0.9201 -0.4503
   78SOPE  H13S 7001   4.730   0.475   5.528 -2.1559 -3.7756  0.8224
   78SOPE  C214 7002   4.573   0.494   5.378  0.0427  0.0622 -0.1634
   78SOPE  H14R 7003   4.648   0.514   5.299  0.9177 -2.6509 -0.0944
   78SOPE  H14S 7004   4.482   0.555   5.355  0.3857  0.4663 -0.4608
   78SOPE  C215 7005   4.537   0.344   5.362  0.1521 -0.7207 -0.3079
   78SOPE  H15R 7006   4.493   0.312   5.459  1.7551 -0.2712  0.6014
   78SOPE  H15S 7007   4.633   0.290   5.349  0.7912  0.3765 -0.2907
   78SOPE  C216 7008   4.447   0.325   5.244 -0.4424 -0.1148 -0.0603
   78SOPE  H16R 7009   4.507   0.338   5.152 -0.7849  0.9113 -0.1506
   78SOPE  H16S 7010   4.370   0.405   5.239 -1.1304 -0.6362  1.6631
   78SOPE  C217 7011   4.368   0.195   5.249  0.1990  0.1379 -0.1490
   78SOPE  H17R 7012   4.283   0.198   5.178  0.6620  1.4464 -0.6891
   78SOPE  H17S 7013   4.312   0.209   5.344 -3.4808  1.6772 -2.3606
   78SOPE  C218 7014   4.431   0.056   5.225 -0.9199 -0.4792 -0.4049
   78SOPE  H18R 7015   4.362  -0.025   5.258  0.4822 -2.9025 -2.9728
   78SOPE  H18S 7016   4.522   0.032   5.284 -1.3499 -1.9442 -0.2973
   78SOPE  H18T 7017   4.457   0.036   5.119 -1.5138 -2.5682 -0.2117
   78SOPE   C33 7018   4.229   0.484   6.643 -0.8013 -0.1353 -0.4653
   78SOPE   H3X 7019   4.293   0.427   6.713 -1.8032  0.0815  0.6558
   78SOPE   H3Y 7020   4.300   0.569   6.628  0.9700 -1.5544 -0.4880
   78SOPE   C34 7021   4.187   0.399   6.528  0.3145  0.7160  0.1012
   78SOPE   H4X 7022   4.108   0.328   6.561  1.5344 -1.4065 -1.3121
   78SOPE   H4Y 7023   4.271   0.339   6.488 -0.8924 -0.4913 -0.7008
   78SOPE   C35 7024   4.131   0.468   6.403 -0.0844  0.8252  0.5401
   78SOPE   H5X 7025   4.179   0.568   6.402  2.6575 -0.4083 -0.5578
   78SOPE   H5Y 7026   4.026   0.474   6.438  0.5398  4.3479  2.2745
   78SOPE   C36 7027   4.151   0.399   6.265 -0.2323  0.0169 -0.2359
   78SOPE   H6X 7028   4.088   0.439   6.183  1.8920  1.2117 -1.3689
   78SOPE   H6Y 7029   4.127   0.291   6.276 -1.9468  0.5694  2.1487
   78SOPE   C37 7030   4.286   0.430   6.213 -0.6118  0.3295 -0.0211
   78SOPE   H7X 7031   4.366   0.420   6.290  0.0252  2.6779 -0.2794
   78SOPE   H7Y 7032   4.293   0.538   6.188 -2.9038  1.1240  2.3035
   78SOPE   C38 7033   4.322   0.355   6.083 -0.9180 -0.3823 -0.1063
   78SOPE   H8X 7034   4.289   0.250   6.100 -0.8208 -0.0623  2.4705
   78SOPE   H8Y 7035   4.432   0.356   6.067 -1.1793 -0.4026 -2.1790
   78SOPE   C39 7036   4.267   0.425   5.962  0.0726 -0.5181  0.7191
   78SOPE   H9X 7037   4.320   0.523   5.959  0.3983 -0.6907 -2.7999
   78SOPE   H9Y 7038   4.164   0.457   5.989  0.5798  1.6568  0.2657
   78SOPE  C310 7039   4.261   0.344   5.826 -0.0330  0.1382 -0.2339
   78SOPE  H10X 7040   4.185   0.268   5.853  1.6819 -1.2259  0.9722
   78SOPE  H10Y 7041   4.357   0.290   5.809 -0.3371 -0.3152 -0.5288
   78SOPE  C311 7042   4.228   0.437   5.719  0.5642  0.4201 -0.1014
   78SOPE  H11X 7043   4.305   0.516   5.707  0.8078  0.3564  0.9476
   78SOPE  H11Y 7044   4.132   0.485   5.746  0.1317 -0.9582  0.9326
   78SOPE  C312 7045   4.189   0.361   5.584 -0.1207 -0.3119 -0.9446
   78SOPE  H12X 7046   4.100   0.299   5.609 -1.1834  2.0875  1.9341
   78SOPE  H12Y 7047   4.274   0.292   5.565  2.0652  0.8802  3.1544
   78SOPE  C313 7048   4.156   0.455   5.466  0.1127  0.0982 -0.3010
   78SOPE  H13X 7049   4.167   0.402   5.369  3.1934  0.3876 -0.1978
   78SOPE  H13Y 7050   4.239   0.528   5.461  0.0324  0.2779  0.6543
   78SOPE  C314 7051   4.027   0.540   5.466  0.0378 -0.0512  0.1125
   78SOPE  H14X 7052   4.023   0.590   5.565 -0.2663  0.8586 -0.3488
   78SOPE  H14Y 7053   3.938   0.474   5.456  0.9994 -1.6409  1.4915
   78SOPE  C315 7054   4.021   0.635   5.341 -0.1612  0.2493  0.2874
   78SOPE  H15X 7055   4.108   0.702   5.328  0.7362 -0.6858  1.2730
   78SOPE  H15Y 7056   3.921   0.683   5.352 -0.4500 -0.0886 -0.7385
   78SOPE  C316 7057   4.017   0.561   5.202  0.7601 -0.1879  0.5456
   78SOPE  H16X 7058   3.937   0.484   5.201  0.9161 -0.3453  0.1416
   78SOPE  H16Y 7059   4.117   0.511   5.201  0.5478 -0.6644  1.6572
   78SOPE  C317 7060   3.999   0.657   5.090 -0.6705 -0.1357  0.0671
   78SOPE  H17X 7061   3.935   0.740   5.125 -1.5962  0.3552 -2.6272
   78SOPE  H17Y 7062   3.931   0.610   5.015  0.6266 -1.1914 -0.4894
   78SOPE  C318 7063   4.118   0.722   5.021  0.4674  0.0338 -0.1573
   78SOPE  H18X 7064   4.196   0.767   5.086  0.0296 -0.5067  0.7531
   78SOPE  H18Y 7065   4.085   0.807   4.957  0.5732 -0.7092 -1.2305
   78SOPE  H18Z 7066   4.159   0.650   4.947  0.1124  1.3223 -1.6597
   79SOPE     N 7067   6.227   6.089   7.524  0.7064 -0.4694  0.0643
   79SOPE   HN1 7068   6.325   6.125   7.523  0.8466 -0.8393 -0.5740
   79SOPE   HN2 7069   6.159   6.164   7.545  2.0450  0.2995  1.9116
   79SOPE   HN3 7070   6.214   6.013   7.594 -0.4731 -1.7249 -1.4206
   79SOPE   C12 7071   6.193   6.029   7.397  0.5368 -0.1198  0.5306
   79SOPE  H12A 7072   6.285   6.026   7.334 -0.4223  1.3195 -1.0359
   79SOPE  H12B 7073   6.109   6.085   7.349 -1.1101 -0.9803  2.2838
   79SOPE   C11 7074   6.148   5.880   7.426 -0.4689  0.3905  0.4411
   79SOPE  H11A 7075   6.107   5.837   7.332  0.8202  1.8847 -0.8753
   79SOPE  H11B 7076   6.062   5.884   7.496 -0.3819  1.9413  0.5035
   79SOPE     P 7077   6.268   5.665   7.523  0.4862  0.5315  0.3018
   79SOPE   O13 7078   6.140   5.639   7.599 -0.2442  0.4953 -0.0259
   79SOPE   O14 7079   6.389   5.627   7.597  0.0174 -0.9486 -0.7370
   79SOPE   O12 7080   6.272   5.814   7.469 -0.0689  0.2295 -0.2549
   79SOPE   O11 7081   6.266   5.596   7.373  0.1155  0.0235 -0.2430
   79SOPE    C1 7082   6.395   5.586   7.309  0.1939 -0.4191 -0.9670
   79SOPE    HA 7083   6.457   5.515   7.368 -1.2834  0.3212  1.6725
   79SOPE    HB 7084   6.442   5.687   7.311 -1.4902  0.4093  0.6658
   79SOPE    C2 7085   6.376   5.558   7.158 -1.1081 -0.2096  0.0777
   79SOPE    HS 7086   6.476   5.576   7.113 -0.2839  2.8497  2.7529
   79SOPE   O21 7087   6.270   5.638   7.097  0.3461  0.5704 -0.0699
   79SOPE   C21 7088   6.315   5.748   7.050  0.3235  0.0522  0.6980
   79SOPE   O22 7089   6.429   5.785   7.041 -0.1788  0.2680 -0.2354
   79SOPE   C22 7090   6.205   5.827   6.992  0.4047 -0.5456  0.0758
   79SOPE   H2R 7091   6.245   5.921   6.948  0.3263 -0.8309 -0.6128
   79SOPE   H2S 7092   6.134   5.849   7.074  0.6466 -1.5047  0.5590
   79SOPE    C3 7093   6.347   5.407   7.140 -0.0728 -0.3052 -0.2019
   79SOPE    HX 7094   6.252   5.385   7.194  1.2601 -0.5286  2.2016
   79SOPE    HY 7095   6.432   5.358   7.192  0.2692 -0.7103 -1.1257
   79SOPE   O31 7096   6.337   5.373   7.000 -0.3186  0.4592  0.2761
   79SOPE   C31 7097   6.218   5.380   6.943  0.2516 -0.2811  0.1043
   79SOPE   O32 7098   6.118   5.421   6.994  0.0143  0.5207  0.0620
   79SOPE   C32 7099   6.232   5.331   6.792 -0.0327  0.8361 -0.5104
   79SOPE   H2X 7100   6.203   5.224   6.788 -0.3939  0.7866  1.9032
   79SOPE   H2Y 7101   6.340   5.336   6.769  0.3976 -1.9942  0.5316
   79SOPE   C23 7102   6.133   5.761   6.874 -0.5937  0.7496 -0.0931
   79SOPE   H3R 7103   6.093   5.667   6.916 -0.4698  0.4404 -0.6612
   79SOPE   H3S 7104   6.214   5.728   6.805  0.7513 -0.6801  2.0670
   79SOPE   C24 7105   6.020   5.852   6.821  0.3520  1.2207 -0.5368
   79SOPE   H4R 7106   5.955   5.863   6.910  2.1380 -0.4349  1.0798
   79SOPE   H4S 7107   6.061   5.953   6.800 -1.1284  2.3575  1.7200
   79SOPE   C25 7108   5.939   5.794   6.703 -0.5121  0.1537  0.0637
   79SOPE   H5R 7109   5.907   5.691   6.730  0.3557  0.2555  1.6038
   79SOPE   H5S 7110   5.853   5.859   6.678 -0.2430  0.7380  0.6308
   79SOPE   C26 7111   6.033   5.790   6.581 -0.1920 -0.0257  0.2376
   79SOPE   H6R 7112   6.085   5.888   6.583 -0.1684  0.0488  4.0173
   79SOPE   H6S 7113   6.108   5.712   6.606  0.7368  0.9380  0.5401
   79SOPE   C27 7114   5.963   5.767   6.441 -0.2155  0.6653 -0.0938
   79SOPE   H7R 7115   6.038   5.739   6.365  0.0143 -1.6668  0.9085
   79SOPE   H7S 7116   5.908   5.671   6.451 -0.4016  0.8843  1.1433
   79SOPE   C28 7117   5.869   5.886   6.385 -0.1342 -0.1858  0.2476
   79SOPE   H8R 7118   5.771   5.843   6.353 -0.7346 -0.2639  2.0613
   79SOPE   H8S 7119   5.856   5.950   6.475  1.9967  0.0711  0.4259
   79SOPE   C29 7120   5.945   5.982   6.302  0.1794 -0.0840  0.4109
   79SOPE   H91 7121   5.974   6.077   6.349  1.4776  0.2566 -0.9659
   79SOPE  C210 7122   5.964   5.963   6.171 -0.1297 -0.1151  0.4437
   79SOPE  H101 7123   6.011   6.042   6.110  0.8703 -1.3659 -0.4607
   79SOPE  C211 7124   5.924   5.844   6.089 -0.2009 -0.7953  0.8982
   79SOPE  H11R 7125   5.848   5.780   6.139 -0.0241  0.2866  2.6040
   79SOPE  H11S 7126   6.011   5.781   6.062 -0.2570 -0.2887 -0.5625
   79SOPE  C212 7127   5.867   5.880   5.947  0.6271  0.0674  0.0804
   79SOPE  H12R 7128   5.763   5.914   5.962  0.8241  0.2698  1.0603
   79SOPE  H12S 7129   5.869   5.785   5.889 -0.0151  1.5099 -2.4666
   79SOPE  C213 7130   5.949   5.988   5.868  0.4581  0.4019 -0.5399
   79SOPE  H13R 7131   6.055   5.957   5.863  0.6997  1.0498  0.3014
   79SOPE  H13S 7132   5.926   6.085   5.917  0.5019 -0.0178  0.3298
   79SOPE  C214 7133   5.894   6.020   5.723  0.0898  0.1315  0.1917
   79SOPE  H14R 7134   5.927   6.123   5.700  1.4059 -0.6151 -1.4934
   79SOPE  H14S 7135   5.785   6.002   5.718  0.0689 -0.4553  1.8581
   79SOPE  C215 7136   5.964   5.929   5.620  0.1383  0.0852 -0.1660
   79SOPE  H15R 7137   5.946   5.825   5.656  0.4681  0.3291  0.7464
   79SOPE  H15S 7138   6.074   5.941   5.630  0.2157 -0.5956 -0.1589
   79SOPE  C216 7139   5.906   5.943   5.476 -0.2916  0.5271 -0.3608
   79SOPE  H16R 7140   5.910   6.046   5.435  2.0729 -0.5345 -3.1275
   79SOPE  H16S 7141   5.803   5.903   5.468 -0.6630  1.5905 -1.0723
   79SOPE  C217 7142   5.996   5.856   5.387 -0.0413 -0.3149 -0.1038
   79SOPE  H17R 7143   6.007   5.758   5.440 -2.2928 -0.9952 -0.8005
   79SOPE  H17S 7144   6.097   5.902   5.382 -0.4534  0.4381 -2.3062
   79SOPE  C218 7145   5.942   5.826   5.248  0.8064  0.4188  0.2742
   79SOPE  H18R 7146   5.988   5.733   5.209 -1.1982 -0.8895  0.8454
   79SOPE  H18S 7147   5.962   5.912   5.181 -0.2872 -1.0728 -2.1073
   79SOPE  H18T 7148   5.832   5.813   5.251  0.9749 -1.0686  0.7270
   79SOPE   C33 7149   6.146   5.391   6.686  0.4913  0.6246 -0.1464
   79SOPE   H3X 7150   6.132   5.499   6.708  1.5081  0.5657  0.9065
   79SOPE   H3Y 7151   6.045   5.346   6.699  0.5583  0.4319 -0.2809
   79SOPE   C34 7152   6.192   5.356   6.548 -0.0984  0.6522  0.7976
   79SOPE   H4X 7153   6.145   5.263   6.509  0.3591  0.1249  1.4727
   79SOPE   H4Y 7154   6.300   5.329   6.549  0.5095  2.8714  0.2280
   79SOPE   C35 7155   6.153   5.462   6.446  0.1857 -0.3676 -0.3345
   79SOPE   H5X 7156   6.219   5.552   6.444 -1.1368  0.6112 -1.4129
   79SOPE   H5Y 7157   6.048   5.493   6.461  0.1487 -0.9556  0.6651
   79SOPE   C36 7158   6.159   5.388   6.310  0.3425  0.2777  0.6218
   79SOPE   H6X 7159   6.088   5.302   6.306  1.0643 -0.3519  1.0845
   79SOPE   H6Y 7160   6.255   5.332   6.306 -0.4616 -1.1259 -1.6219
   79SOPE   C37 7161   6.156   5.477   6.184  0.3667 -0.4302 -0.1741
   79SOPE   H7X 7162   6.230   5.559   6.186  0.7940 -0.8107 -0.1850
   79SOPE   H7Y 7163   6.055   5.522   6.184  1.2756  1.7245  0.6916
   79SOPE   C38 7164   6.190   5.416   6.046  0.1300 -0.6038 -0.1439
   79SOPE   H8X 7165   6.119   5.332   6.027  0.1296 -0.0748 -2.8932
   79SOPE   H8Y 7166   6.291   5.370   6.041  0.4765  0.1850 -0.5281
   79SOPE   C39 7167   6.170   5.520   5.926 -0.0457 -0.7868  0.7054
   79SOPE   H9X 7168   6.210   5.620   5.951 -0.9499  0.3005 -1.8400
   79SOPE   H9Y 7169   6.064   5.551   5.917  0.1468 -0.1681  0.5224
   79SOPE  C310 7170   6.234   5.478   5.798  0.7805  0.4366 -0.1225
   79SOPE  H10X 7171   6.210   5.372   5.776  0.1599  0.6806 -0.6607
   79SOPE  H10Y 7172   6.344   5.474   5.810  0.7357  0.6603  0.3927
   79SOPE  C311 7173   6.192   5.566   5.674  0.1354  0.2025 -0.8869
   79SOPE  H11X 7174   6.192   5.670   5.712  1.1151 -1.1560  3.3575
   79SOPE  H11Y 7175   6.086   5.556   5.643 -1.3577  2.2199  2.8795
   79SOPE  C312 7176   6.296   5.562   5.567 -0.1810 -0.5879  0.2677
   79SOPE  H12X 7177   6.312   5.458   5.530  1.5181  0.0587 -0.9681
   79SOPE  H12Y 7178   6.394   5.593   5.608 -1.3611  3.0987  0.6313
   79SOPE  C313 7179   6.256   5.653   5.439  0.4384  0.1791 -0.5859
   79SOPE  H13X 7180   6.244   5.752   5.487 -1.0812 -0.8186  1.2539
   79SOPE  H13Y 7181   6.157   5.614   5.408  0.4216  0.5290 -0.9649
   79SOPE  C314 7182   6.357   5.655   5.326 -0.7960 -0.5079  0.5248
   79SOPE  H14X 7183   6.461   5.685   5.353 -0.0294 -1.9097 -0.7322
   79SOPE  H14Y 7184   6.323   5.734   5.256  2.4311  1.9575  1.4637
   79SOPE  C315 7185   6.383   5.527   5.247  0.0401 -0.3353  0.6248
   79SOPE  H15X 7186   6.440   5.455   5.310  1.1207  1.4582  1.7919
   79SOPE  H15Y 7187   6.440   5.562   5.158 -0.2786  2.0231  1.2979
   79SOPE  C316 7188   6.254   5.450   5.201 -0.1031 -0.2409  0.2718
   79SOPE  H16X 7189   6.190   5.529   5.155 -1.0327 -1.3084 -0.3112
   79SOPE  H16Y 7190   6.206   5.405   5.291 -1.6914  1.7803  0.5251
   79SOPE  C317 7191   6.280   5.346   5.089  0.2854  0.1590  0.1669
   79SOPE  H17X 7192   6.192   5.279   5.085  0.5768 -0.5046  2.8301
   79SOPE  H17Y 7193   6.371   5.286   5.112 -0.0250 -1.0222 -1.5141
   79SOPE  C318 7194   6.309   5.405   4.953  0.5902 -0.4111  1.0300
   79SOPE  H18X 7195   6.323   5.328   4.875 -3.0036 -0.5694  0.3722
   79SOPE  H18Y 7196   6.397   5.472   4.960  1.0473 -0.7779 -0.6844
   79SOPE  H18Z 7197   6.219   5.465   4.925 -0.7744 -2.5654  0.5766
   80SOPE     N 7198   2.974   1.491   6.960  0.6245 -0.0765 -0.0406
   80SOPE   HN1 7199   2.954   1.416   6.891 -2.3031  2.8871 -2.7640
   80SOPE   HN2 7200   2.886   1.545   6.963  0.2866 -0.6055 -0.3424
   80SOPE   HN3 7201   3.057   1.543   6.924  1.0248 -1.5120 -1.2916
   80SOPE   C12 7202   3.008   1.438   7.098  0.2342 -0.3410 -0.1637
   80SOPE  H12A 7203   2.923   1.376   7.132 -0.5775  0.7366 -0.1823
   80SOPE  H12B 7204   3.022   1.526   7.165 -0.5685  0.0845 -0.5433
   80SOPE   C11 7205   3.141   1.356   7.083 -0.0931  0.4617 -0.8097
   80SOPE  H11A 7206   3.119   1.264   7.024 -1.1588  0.0396  0.1859
   80SOPE  H11B 7207   3.167   1.323   7.186  1.2354 -0.5981 -1.4491
   80SOPE     P 7208   3.322   1.374   6.892  0.1671  0.1269 -0.3160
   80SOPE   O13 7209   3.468   1.387   6.922  0.2513  0.8920  0.3754
   80SOPE   O14 7210   3.268   1.454   6.777  0.2526  0.6181 -0.3709
   80SOPE   O12 7211   3.254   1.426   7.023 -0.1563  0.1028  0.0495
   80SOPE   O11 7212   3.282   1.218   6.874 -0.8209 -0.2930  0.7116
   80SOPE    C1 7213   3.360   1.123   6.942  0.1893  0.4251 -0.6358
   80SOPE    HA 7214   3.293   1.035   6.954 -0.0068  0.3962 -1.8167
   80SOPE    HB 7215   3.377   1.160   7.045 -0.7802  1.7960 -0.9459
   80SOPE    C2 7216   3.483   1.079   6.861  0.1049 -0.0031 -0.2675
   80SOPE    HS 7217   3.540   1.174   6.854  1.0194 -0.2919  2.3162
   80SOPE   O21 7218   3.435   1.026   6.735 -0.6631 -0.5635  0.3480
   80SOPE   C21 7219   3.497   1.080   6.626 -0.8531 -0.4837  0.4848
   80SOPE   O22 7220   3.588   1.162   6.627  1.0989  0.4589  0.1929
   80SOPE   C22 7221   3.436   1.018   6.497  0.0573  0.1296 -0.4670
   80SOPE   H2R 7222   3.411   1.103   6.430 -1.9226  0.2636  0.3866
   80SOPE   H2S 7223   3.345   0.956   6.514  0.9517 -0.4449  3.2295
   80SOPE    C3 7224   3.576   0.973   6.923 -0.4260 -0.2162 -0.7331
   80SOPE    HX 7225   3.517   0.879   6.933  0.7304 -1.0018 -1.1070
   80SOPE    HY 7226   3.608   1.008   7.024  0.7453 -0.0090 -1.1634
   80SOPE   O31 7227   3.684   0.953   6.829 -0.0381 -0.2637 -0.2958
   80SOPE   C31 7228   3.782   1.050   6.830  0.2547 -0.8954 -0.4715
   80SOPE   O32 7229   3.788   1.135   6.915 -0.5820 -0.2218  0.7426
   80SOPE   C32 7230   3.872   1.027   6.715 -1.0991 -0.4217  0.1895
   80SOPE   H2X 7231   3.805   1.020   6.627 -1.5715  2.2002  0.2695
   80SOPE   H2Y 7232   3.932   0.934   6.726  1.3413  1.1370  0.7476
   80SOPE   C23 7233   3.548   0.948   6.421  0.0411 -0.3542  0.2979
   80SOPE   H3R 7234   3.623   1.023   6.388 -1.2704  1.5217  1.3749
   80SOPE   H3S 7235   3.498   0.903   6.333 -1.2026  0.6067  0.4860
   80SOPE   C24 7236   3.605   0.832   6.490 -0.4396  0.4300  0.0113
   80SOPE   H4R 7237   3.657   0.862   6.583 -1.3482 -2.7968  1.7189
   80SOPE   H4S 7238   3.517   0.773   6.524 -0.4153  0.7744  0.6892
   80SOPE   C25 7239   3.684   0.733   6.406 -0.3806 -0.2977 -0.5510
   80SOPE   H5R 7240   3.708   0.642   6.465  1.2028 -0.4553 -1.3661
   80SOPE   H5S 7241   3.635   0.702   6.311 -1.2622 -1.2827  0.2089
   80SOPE   C26 7242   3.816   0.804   6.367 -0.0204  0.4443 -0.3646
   80SOPE   H6R 7243   3.794   0.904   6.324  1.2756  1.3019  0.9242
   80SOPE   H6S 7244   3.881   0.816   6.456  0.8895  0.1933 -0.9862
   80SOPE   C27 7245   3.912   0.727   6.277  0.1023  0.2381 -0.0290
   80SOPE   H7R 7246   4.009   0.781   6.276  0.0510  0.3936  1.1493
   80SOPE   H7S 7247   3.934   0.633   6.332 -0.3886  0.8617  1.2789
   80SOPE   C28 7248   3.844   0.699   6.140 -0.7411  0.5612 -0.1656
   80SOPE   H8R 7249   3.921   0.631   6.097  0.6998  2.2321 -0.3559
   80SOPE   H8S 7250   3.746   0.650   6.154 -2.0279  2.8060 -0.8435
   80SOPE   C29 7251   3.841   0.826   6.057 -0.0270 -0.6245  0.0850
   80SOPE   H91 7252   3.938   0.874   6.038  0.3381 -0.4867  2.0792
   80SOPE  C210 7253   3.728   0.885   6.015  0.4500  0.0254  0.3066
   80SOPE  H101 7254   3.730   0.984   5.965 -1.2695 -0.7501 -1.4122
   80SOPE  C211 7255   3.587   0.842   6.031 -0.4887  0.0561  0.2281
   80SOPE  H11R 7256   3.528   0.913   6.093 -4.0367 -0.8589 -1.8156
   80SOPE  H11S 7257   3.583   0.742   6.079 -0.6292 -0.3138 -0.5358
   80SOPE  C212 7258   3.510   0.848   5.896  0.2595  0.6363 -0.0221
   80SOPE  H12R 7259   3.521   0.950   5.853  1.0503  0.6051  0.0797
   80SOPE  H12S 7260   3.400   0.843   5.904  0.2967  0.2646  0.2871
   80SOPE  C213 7261   3.571   0.739   5.805  0.1077 -0.0754  0.0347
   80SOPE  H13R 7262   3.575   0.652   5.875 -1.6651  0.7144  1.1894
   80SOPE  H13S 7263   3.678   0.757   5.779  0.2264 -0.4221  0.2729
   80SOPE  C214 7264   3.490   0.704   5.685 -0.6732 -0.3602 -0.4329
   80SOPE  H14R 7265   3.393   0.657   5.710 -0.8628  0.8975  1.3731
   80SOPE  H14S 7266   3.550   0.634   5.622  1.3257  0.7426  0.1281
   80SOPE  C215 7267   3.459   0.809   5.584 -0.0583 -0.1078 -0.1966
   80SOPE  H15R 7268   3.393   0.885   5.633 -1.0625 -0.4274 -1.0108
   80SOPE  H15S 7269   3.398   0.759   5.506  0.9918 -1.4301 -0.2008
   80SOPE  C216 7270   3.586   0.870   5.531  0.1827 -0.1548 -0.1923
   80SOPE  H16R 7271   3.639   0.788   5.479 -0.9884 -0.4956 -0.8797
   80SOPE  H16S 7272   3.650   0.904   5.616  1.1596 -3.0727  0.3531
   80SOPE  C217 7273   3.573   0.978   5.417  0.6261 -0.2733  0.8908
   80SOPE  H17R 7274   3.510   1.049   5.474  0.8437  0.6738 -0.0327
   80SOPE  H17S 7275   3.515   0.928   5.336 -0.7879  1.0708  1.0198
   80SOPE  C218 7276   3.705   1.039   5.369  0.5414 -0.1390 -0.5585
   80SOPE  H18R 7277   3.754   1.079   5.461 -1.4867  0.6460  0.2444
   80SOPE  H18S 7278   3.678   1.129   5.310  0.5682  0.1886 -0.0865
   80SOPE  H18T 7279   3.779   0.978   5.313  1.4828  2.4119 -2.2692
   80SOPE   C33 7280   3.964   1.148   6.684  0.0970  0.2226 -0.3307
   80SOPE   H3X 7281   4.014   1.175   6.779 -1.7271 -1.4554  1.2205
   80SOPE   H3Y 7282   3.904   1.240   6.672  0.0753  0.1476 -0.7904
   80SOPE   C34 7283   4.050   1.128   6.562 -0.4124 -0.2932 -0.3820
   80SOPE   H4X 7284   4.122   1.212   6.550 -1.2114  0.6607  1.1405
   80SOPE   H4Y 7285   3.999   1.113   6.464  0.4249  0.1895 -0.9029
   80SOPE   C35 7286   4.141   1.009   6.575 -0.0594  0.8320 -0.4143
   80SOPE   H5X 7287   4.084   0.914   6.575  0.4563  0.4907  1.1491
   80SOPE   H5Y 7288   4.170   1.003   6.682 -1.4198  0.9032 -0.0192
   80SOPE   C36 7289   4.255   1.022   6.471  0.2991  0.0628 -0.2462
   80SOPE   H6X 7290   4.325   0.938   6.493  2.5236  1.4080 -1.7481
   80SOPE   H6Y 7291   4.319   1.111   6.490 -2.4560  2.1394 -0.2215
   80SOPE   C37 7292   4.220   1.021   6.324 -0.2505  0.4548  0.2838
   80SOPE   H7X 7293   4.149   1.103   6.300  0.3961  1.1373  0.6653
   80SOPE   H7Y 7294   4.173   0.921   6.314  3.0178 -1.2090  0.4420
   80SOPE   C38 7295   4.340   1.023   6.230 -1.1185  0.2041 -0.9855
   80SOPE   H8X 7296   4.416   0.955   6.276 -1.4946  0.7690  0.5366
   80SOPE   H8Y 7297   4.395   1.116   6.253 -0.1061 -1.0294  2.1415
   80SOPE   C39 7298   4.322   1.006   6.091 -0.0377 -0.3287  0.2463
   80SOPE   H9X 7299   4.416   1.035   6.038  0.1702  0.5988  1.0748
   80SOPE   H9Y 7300   4.238   1.071   6.058 -1.0055 -1.3766  0.6105
   80SOPE  C310 7301   4.287   0.868   6.045  0.0352 -0.0737 -0.2287
   80SOPE  H10X 7302   4.190   0.828   6.083 -0.4992  1.1901 -0.2271
   80SOPE  H10Y 7303   4.366   0.807   6.094 -0.8776 -1.0508  0.0761
   80SOPE  C311 7304   4.287   0.852   5.891  0.6506  0.1463  0.2460
   80SOPE  H11X 7305   4.304   0.744   5.869 -1.1914 -0.0521 -0.3563
   80SOPE  H11Y 7306   4.366   0.911   5.841  0.6487 -0.6116 -0.6628
   80SOPE  C312 7307   4.157   0.891   5.829 -0.4137 -0.0846  0.4780
   80SOPE  H12X 7308   4.128   0.991   5.867  1.4005  1.3419 -1.5994
   80SOPE  H12Y 7309   4.078   0.818   5.857 -2.0297  0.6417 -1.8917
   80SOPE  C313 7310   4.154   0.896   5.670 -0.6861 -0.1127 -0.3121
   80SOPE  H13X 7311   4.049   0.918   5.642 -0.7520 -1.6991 -1.4175
   80SOPE  H13Y 7312   4.178   0.795   5.630 -2.7505 -0.7962  0.0648
   80SOPE  C314 7313   4.247   1.012   5.621 -0.6058  0.2152  0.3442
   80SOPE  H14X 7314   4.354   0.992   5.639 -0.5951  1.2282  1.5115
   80SOPE  H14Y 7315   4.245   1.111   5.671  0.1939 -0.4309  1.6889
   80SOPE  C315 7316   4.233   1.040   5.470 -0.3546 -0.8024  0.1144
   80SOPE  H15X 7317   4.131   1.070   5.439  0.1116  0.7311 -0.0023
   80SOPE  H15Y 7318   4.256   0.952   5.406  1.4446  0.2967 -0.8271
   80SOPE  C316 7319   4.344   1.140   5.419  0.2263  0.2869 -1.2954
   80SOPE  H16X 7320   4.433   1.094   5.467 -1.6747 -1.3108  0.9505
   80SOPE  H16Y 7321   4.327   1.246   5.447  0.2112 -0.2959  1.1691
   80SOPE  C317 7322   4.374   1.128   5.271  0.9226  0.3520 -0.6696
   80SOPE  H17X 7323   4.423   1.223   5.242  0.6785  0.3533 -1.0998
   80SOPE  H17Y 7324   4.270   1.121   5.230  0.2243 -1.7665  1.2649
   80SOPE  C318 7325   4.458   1.010   5.216 -0.0769 -0.4283  0.0849
   80SOPE  H18X 7326   4.461   1.004   5.105  2.3686  0.1995  0.0476
   80SOPE  H18Y 7327   4.418   0.911   5.246 -1.6854 -0.7404 -2.7848
   80SOPE  H18Z 7328   4.565   1.013   5.246 -0.6958 -0.9069  2.5068
   81SOPE     N 7329   0.700   4.001   7.342 -0.1114 -0.1266  0.8414
   81SOPE   HN1 7330   0.773   4.034   7.275  0.7213 -1.6190  0.9775
   81SOPE   HN2 7331   0.617   4.059   7.319 -0.6739 -0.9728  0.6913
   81SOPE   HN3 7332   0.734   4.004   7.440  0.3436  2.7033  0.6724
   81SOPE   C12 7333   0.681   3.862   7.300  0.0735  0.6816 -0.5624
   81SOPE  H12A 7334   0.601   3.824   7.367  0.9296 -0.1058  0.0228
   81SOPE  H12B 7335   0.774   3.803   7.317 -1.0271 -0.7353  0.8683
   81SOPE   C11 7336   0.615   3.851   7.163  0.4589 -0.2329  0.1698
   81SOPE  H11A 7337   0.595   3.743   7.148  0.5550 -0.0012 -1.9622
   81SOPE  H11B 7338   0.685   3.879   7.081 -0.2306  0.5288 -0.1778
   81SOPE     P 7339   0.480   4.053   7.074  0.1605 -0.0292  0.3264
   81SOPE   O13 7340   0.592   4.140   7.123 -0.2496 -0.2102  0.5507
   81SOPE   O14 7341   0.349   4.115   7.094  0.3147  0.1497 -0.1330
   81SOPE   O12 7342   0.490   3.917   7.155 -0.2589 -0.5043  0.6335
   81SOPE   O11 7343   0.505   4.014   6.920  0.1033  0.0439 -0.5622
   81SOPE    C1 7344   0.409   3.932   6.854 -0.6588 -0.7987 -0.3428
   81SOPE    HA 7345   0.304   3.954   6.883 -0.5495 -1.3184  0.4632
   81SOPE    HB 7346   0.435   3.824   6.860 -0.8562 -0.8484 -0.3679
   81SOPE    C2 7347   0.401   3.963   6.699  0.3489  0.2055  0.4108
   81SOPE    HS 7348   0.322   3.894   6.662  2.1184 -0.6806 -1.9500
   81SOPE   O21 7349   0.527   3.929   6.639  0.4342 -0.2134 -0.5327
   81SOPE   C21 7350   0.525   3.882   6.512  0.2680  0.4069 -0.6896
   81SOPE   O22 7351   0.422   3.848   6.457 -0.3289 -0.1829 -0.1445
   81SOPE   C22 7352   0.662   3.885   6.449  0.5897 -0.3206 -0.3339
   81SOPE   H2R 7353   0.729   3.823   6.511 -0.5381 -0.1800  1.0669
   81SOPE   H2S 7354   0.697   3.991   6.449 -0.7320  0.1621 -1.9736
   81SOPE    C3 7355   0.362   4.112   6.671  0.5288 -0.3635  0.1830
   81SOPE    HX 7356   0.445   4.173   6.715  0.0093  0.6011 -0.1462
   81SOPE    HY 7357   0.275   4.151   6.729  1.5075  0.3278  1.2287
   81SOPE   O31 7358   0.345   4.146   6.534  0.4376 -0.0810 -0.2405
   81SOPE   C31 7359   0.230   4.101   6.489 -0.4157  0.0877 -0.3076
   81SOPE   O32 7360   0.146   4.043   6.555  0.3283 -0.6955  0.1002
   81SOPE   C32 7361   0.207   4.145   6.344  0.0594  0.4285  0.4073
   81SOPE   H2X 7362   0.256   4.064   6.285 -0.5008 -1.2340  2.1422
   81SOPE   H2Y 7363   0.263   4.240   6.334  0.6127  0.2505  1.7158
   81SOPE   C23 7364   0.655   3.826   6.307  0.0902  0.4594  0.2164
   81SOPE   H3R 7365   0.583   3.743   6.297  3.5958 -2.4940 -5.7775
   81SOPE   H3S 7366   0.752   3.782   6.276  1.5602  2.7215  1.2437
   81SOPE   C24 7367   0.622   3.932   6.207  0.7652 -0.1076 -0.5758
   81SOPE   H4R 7368   0.518   3.965   6.226 -0.1632 -2.3254 -1.4646
   81SOPE   H4S 7369   0.692   4.018   6.215  0.4358  0.3107 -1.8719
   81SOPE   C25 7370   0.641   3.878   6.065  0.0438 -0.0487 -0.3890
   81SOPE   H5R 7371   0.746   3.848   6.043  0.2811  0.9916 -0.7867
   81SOPE   H5S 7372   0.587   3.782   6.063 -0.1015  0.0357 -0.5851
   81SOPE   C26 7373   0.612   3.971   5.955  0.3122  0.1714 -0.0010
   81SOPE   H6R 7374   0.506   4.000   5.968 -0.4880 -1.8226 -1.4263
   81SOPE   H6S 7375   0.673   4.063   5.950 -0.4718  0.6291 -2.4884
   81SOPE   C27 7376   0.628   3.917   5.813  0.2032  0.3092  0.6189
   81SOPE   H7R 7377   0.726   3.868   5.794  1.1763  1.9918  1.0497
   81SOPE   H7S 7378   0.548   3.842   5.796  0.0972  0.6451 -0.4465
   81SOPE   C28 7379   0.627   4.033   5.710 -0.8212 -0.4472  0.4398
   81SOPE   H8R 7380   0.540   4.097   5.735 -2.6366 -2.3111 -0.8009
   81SOPE   H8S 7381   0.710   4.103   5.735 -2.6001  1.4821  1.2685
   81SOPE   C29 7382   0.624   3.973   5.568 -1.0579  0.6528  0.1535
   81SOPE   H91 7383   0.590   3.869   5.562  0.3063  0.2634 -2.1681
   81SOPE  C210 7384   0.647   4.037   5.454 -0.3695  0.2974 -0.3235
   81SOPE  H101 7385   0.628   3.979   5.362 -4.5548 -0.3119  0.7058
   81SOPE  C211 7386   0.689   4.180   5.439 -0.3096 -0.2241 -0.6728
   81SOPE  H11R 7387   0.774   4.193   5.369 -0.3396 -2.6878 -1.2547
   81SOPE  H11S 7388   0.714   4.228   5.536  2.9413 -1.3639 -0.8318
   81SOPE  C212 7389   0.572   4.256   5.376  0.3867  0.2067 -0.0930
   81SOPE  H12R 7390   0.604   4.361   5.358 -1.9616  0.8901 -0.6122
   81SOPE  H12S 7391   0.485   4.248   5.444  0.9896  2.8394  1.1282
   81SOPE  C213 7392   0.522   4.214   5.236 -0.3660 -0.1650 -0.0716
   81SOPE  H13R 7393   0.478   4.112   5.246 -3.2331  1.0782  1.0125
   81SOPE  H13S 7394   0.613   4.211   5.171 -0.4178  0.2457 -0.1635
   81SOPE  C214 7395   0.410   4.310   5.182  1.0196  0.1258  0.6336
   81SOPE  H14R 7396   0.452   4.409   5.156  1.0882 -0.4952 -1.9046
   81SOPE  H14S 7397   0.332   4.327   5.260  1.9276 -1.5151  1.9872
   81SOPE  C215 7398   0.341   4.250   5.052 -0.1632  0.0261 -1.0979
   81SOPE  H15R 7399   0.345   4.141   5.071 -3.4174  0.2600  2.0191
   81SOPE  H15S 7400   0.390   4.281   4.957  1.3303 -1.1441 -0.7399
   81SOPE  C216 7401   0.193   4.281   5.048 -0.6087  0.2514 -0.3296
   81SOPE  H16R 7402   0.146   4.264   5.147 -3.1073 -0.3489 -1.5407
   81SOPE  H16S 7403   0.145   4.208   4.980  0.2539  0.6633 -1.4062
   81SOPE  C217 7404   0.164   4.423   5.002  0.4811 -0.1554 -0.7561
   81SOPE  H17R 7405   0.214   4.444   4.905 -0.9650  1.2261 -1.2415
   81SOPE  H17S 7406   0.221   4.489   5.071  1.5777 -1.6281 -0.2058
   81SOPE  C218 7407   0.017   4.467   5.018  0.6068 -0.0002 -0.1988
   81SOPE  H18R 7408  -0.039   4.432   4.929 -1.1323  1.1811  0.3649
   81SOPE  H18S 7409   0.014   4.578   5.007 -0.4099 -0.1579 -1.8641
   81SOPE  H18T 7410  -0.019   4.441   5.120  2.3813 -2.2728 -0.0756
   81SOPE   C33 7411   0.058   4.147   6.305  0.3458 -0.7115 -0.2588
   81SOPE   H3X 7412   0.003   4.226   6.361 -0.0696  0.6780 -2.4801
   81SOPE   H3Y 7413   0.015   4.045   6.316 -0.5033 -0.4236 -0.8080
   81SOPE   C34 7414   0.044   4.185   6.159  0.0709 -0.0872 -0.3820
   81SOPE   H4X 7415   0.092   4.283   6.139 -2.5461  1.0075 -1.8101
   81SOPE   H4Y 7416  -0.066   4.202   6.147 -0.2589  0.7648  2.9733
   81SOPE   C35 7417   0.101   4.090   6.055 -0.6043  0.7900 -0.6044
   81SOPE   H5X 7418   0.060   3.988   6.072  0.5178  0.5131  0.6141
   81SOPE   H5Y 7419   0.212   4.084   6.068 -0.9097 -1.7127  1.7768
   81SOPE   C36 7420   0.063   4.126   5.913  0.4187  0.2175 -0.3311
   81SOPE   H6X 7421   0.104   4.228   5.902 -1.1894  0.7456 -1.8874
   81SOPE   H6Y 7422  -0.046   4.120   5.892  0.6189 -2.5796 -1.0137
   81SOPE   C37 7423   0.139   4.028   5.823 -0.0812  0.2058 -0.8062
   81SOPE   H7X 7424   0.118   3.922   5.852 -0.2528 -0.2180 -2.4063
   81SOPE   H7Y 7425   0.246   4.055   5.831  0.4345 -2.0752  4.4108
   81SOPE   C38 7426   0.086   4.043   5.680 -0.1668 -0.7133 -0.4208
   81SOPE   H8X 7427   0.102   4.145   5.638 -1.7306 -0.0029  0.6388
   81SOPE   H8Y 7428  -0.022   4.030   5.661 -0.6927  3.3857 -1.0108
   81SOPE   C39 7429   0.163   3.946   5.586  0.7495 -0.0142 -0.2665
   81SOPE   H9X 7430   0.164   3.850   5.643  1.8264  1.2937  2.0505
   81SOPE   H9Y 7431   0.269   3.977   5.599  0.4991  0.0208  2.2679
   81SOPE  C310 7432   0.109   3.948   5.442 -0.0351  0.1243 -0.0509
   81SOPE  H10X 7433   0.121   4.053   5.406 -1.0291  0.5260  0.7285
   81SOPE  H10Y 7434   0.007   3.907   5.425 -1.0891  2.3955  0.3866
   81SOPE  C311 7435   0.189   3.867   5.341  0.0709  0.2277 -0.5147
   81SOPE  H11X 7436   0.197   3.764   5.381  3.0234  1.3900  2.3371
   81SOPE  H11Y 7437   0.296   3.895   5.343  0.4734 -1.1936 -1.1512
   81SOPE  C312 7438   0.131   3.880   5.198 -0.1215 -0.0708  0.1972
   81SOPE  H12X 7439   0.094   3.985   5.189 -1.6086 -0.6255 -0.6000
   81SOPE  H12Y 7440   0.039   3.817   5.198  1.2664 -2.3124  2.6705
   81SOPE  C313 7441   0.227   3.847   5.086 -0.2031  0.0696  0.4394
   81SOPE  H13X 7442   0.255   3.739   5.079 -0.0193  0.2029 -1.6146
   81SOPE  H13Y 7443   0.322   3.903   5.089  0.2872 -0.7099 -0.0246
   81SOPE  C314 7444   0.156   3.863   4.953 -0.5334 -0.4909  0.4939
   81SOPE  H14X 7445   0.119   3.968   4.956  0.5909 -0.0984  1.2853
   81SOPE  H14Y 7446   0.067   3.797   4.942 -1.0778  0.5124 -2.0485
   81SOPE  C315 7447   0.259   3.836   4.839 -0.1317  0.4307  0.0706
   81SOPE  H15X 7448   0.294   3.730   4.836 -1.6776 -0.1008 -2.4588
   81SOPE  H15Y 7449   0.351   3.891   4.867 -0.7504  1.9193 -0.7170
   81SOPE  C316 7450   0.204   3.868   4.705  0.8355 -0.5782  0.0997
   81SOPE  H16X 7451   0.116   3.805   4.682  0.4012  0.2308 -0.5219
   81SOPE  H16Y 7452   0.275   3.846   4.622 -0.7074  1.0950 -1.7776
   81SOPE  C317 7453   0.166   4.012   4.668  0.2035 -0.4928 -0.4688
   81SOPE  H17X 7454   0.258   4.064   4.636  0.8633 -1.4796 -0.2008
   81SOPE  H17Y 7455   0.120   4.071   4.751 -0.5756  1.8943 -2.4806
   81SOPE  C318 7456   0.061   4.027   4.550  0.0695 -1.0730 -0.6095
   81SOPE  H18X 7457  -0.034   3.979   4.579 -1.1040  0.4386 -1.7621
   81SOPE  H18Y 7458   0.113   3.970   4.470  0.7279 -0.7349 -0.4321
   81SOPE  H18Z 7459   0.052   4.132   4.514 -1.7712 -1.0327 -0.0903
   82SOPE     N 7460   3.170   4.462   7.727  0.5865  0.2529  0.1287
   82SOPE   HN1 7461   3.202   4.485   7.823 -2.4249 -0.7047  1.4642
   82SOPE   HN2 7462   3.255   4.459   7.666  1.0974  0.1473  0.8282
   82SOPE   HN3 7463   3.113   4.541   7.692  3.4372  1.7209 -1.6249
   82SOPE   C12 7464   3.082   4.343   7.717  0.1873 -0.0399  0.1701
   82SOPE  H12A 7465   2.995   4.358   7.785  0.4404 -0.2396  0.5462
   82SOPE  H12B 7466   3.143   4.252   7.737 -0.5887 -0.3598  1.1306
   82SOPE   C11 7467   3.032   4.336   7.570 -0.3102  0.0075 -0.7028
   82SOPE  H11A 7468   3.118   4.302   7.509  1.4295 -4.0381  3.3643
   82SOPE  H11B 7469   2.992   4.435   7.540 -2.4376  0.6215  3.4033
   82SOPE     P 7470   2.938   4.095   7.506 -0.1238  0.0074 -0.2102
   82SOPE   O13 7471   2.857   4.000   7.578 -0.1579  0.1124  0.0969
   82SOPE   O14 7472   3.085   4.066   7.503  0.4280 -0.1076  0.2298
   82SOPE   O12 7473   2.929   4.240   7.559 -0.1503  0.1936  0.3481
   82SOPE   O11 7474   2.873   4.106   7.356  0.2475  0.2619  0.0711
   82SOPE    C1 7475   2.876   4.232   7.288 -0.1351 -0.8639 -0.1850
   82SOPE    HA 7476   2.976   4.253   7.245 -1.2806 -1.3549 -3.4089
   82SOPE    HB 7477   2.849   4.320   7.350  1.4076  0.6326 -1.5394
   82SOPE    C2 7478   2.782   4.225   7.156 -0.8965 -0.1964 -0.2168
   82SOPE    HS 7479   2.679   4.201   7.193 -2.0000 -0.4221 -3.1752
   82SOPE   O21 7480   2.839   4.127   7.066  0.0370 -0.0984  0.8355
   82SOPE   C21 7481   2.751   4.052   7.005  0.1244 -0.4055 -0.4366
   82SOPE   O22 7482   2.637   4.040   7.046 -0.5583  0.0596  0.2569
   82SOPE   C22 7483   2.803   3.970   6.892 -0.1064  0.1766  0.2487
   82SOPE   H2R 7484   2.807   3.863   6.920  0.4609  0.4838  1.4055
   82SOPE   H2S 7485   2.910   3.996   6.876 -0.3053 -0.8765 -4.1690
   82SOPE    C3 7486   2.777   4.360   7.081 -0.1523 -0.3926  0.7705
   82SOPE    HX 7487   2.878   4.396   7.052 -0.5871 -0.6229 -1.1815
   82SOPE    HY 7488   2.739   4.435   7.154  0.2254  0.2193  0.3405
   82SOPE   O31 7489   2.695   4.340   6.960 -0.0950 -0.7451 -0.5225
   82SOPE   C31 7490   2.570   4.340   6.984  0.2017 -0.7584 -0.4907
   82SOPE   O32 7491   2.515   4.346   7.095  0.5978  0.5831 -0.3896
   82SOPE   C32 7492   2.497   4.339   6.846 -0.2286 -0.1733 -0.7567
   82SOPE   H2X 7493   2.393   4.378   6.853  0.1633  0.6496  0.9189
   82SOPE   H2Y 7494   2.490   4.231   6.820 -0.0845 -0.7274  1.3848
   82SOPE   C23 7495   2.738   4.020   6.767 -0.0461 -0.7097 -0.6197
   82SOPE   H3R 7496   2.722   4.130   6.767 -2.4526 -0.9558 -2.3830
   82SOPE   H3S 7497   2.634   3.983   6.758 -0.5825  0.5755 -0.0281
   82SOPE   C24 7498   2.809   3.969   6.633  0.7068  0.5412  0.4076
   82SOPE   H4R 7499   2.910   4.015   6.627 -0.0349  2.1256 -1.3600
   82SOPE   H4S 7500   2.820   3.859   6.631 -0.0760  0.4464 -1.9842
   82SOPE   C25 7501   2.736   4.007   6.496  0.2913 -0.7747  0.3028
   82SOPE   H5R 7502   2.630   3.973   6.495  0.5711 -1.6554 -1.3030
   82SOPE   H5S 7503   2.736   4.118   6.491 -0.0502 -0.8371 -1.6636
   82SOPE   C26 7504   2.811   3.963   6.367  0.2814 -0.0214  0.3078
   82SOPE   H6R 7505   2.921   3.979   6.373  0.2553  0.1768  0.2651
   82SOPE   H6S 7506   2.808   3.852   6.360 -0.0275 -0.0417  0.7101
   82SOPE   C27 7507   2.759   4.025   6.235  0.7976  0.5062  0.6537
   82SOPE   H7R 7508   2.649   4.038   6.230  0.6959  0.1174  1.7528
   82SOPE   H7S 7509   2.807   4.125   6.227 -0.2943  0.9187 -1.5642
   82SOPE   C28 7510   2.788   3.945   6.109  0.1903  0.0547  0.8255
   82SOPE   H8R 7511   2.895   3.915   6.110  0.9075  2.4091  0.4294
   82SOPE   H8S 7512   2.723   3.855   6.104  0.8249 -0.3911  0.4517
   82SOPE   C29 7513   2.766   4.028   5.987  0.1144  0.1219  0.1578
   82SOPE   H91 7514   2.711   4.122   6.004 -1.3024 -0.4996 -0.7992
   82SOPE  C210 7515   2.810   4.007   5.856 -0.1619 -0.3014 -0.5110
   82SOPE  H101 7516   2.786   4.079   5.775  2.8104  2.2323  0.6521
   82SOPE  C211 7517   2.890   3.887   5.818 -0.1788 -0.0696  0.1155
   82SOPE  H11R 7518   2.902   3.800   5.886  0.4395 -1.3009 -1.5005
   82SOPE  H11S 7519   2.994   3.926   5.811 -0.2182 -0.2657 -3.3797
   82SOPE  C212 7520   2.855   3.824   5.680 -0.1044  0.0504 -0.1615
   82SOPE  H12R 7521   2.932   3.750   5.649 -0.5104 -0.2859 -0.3789
   82SOPE  H12S 7522   2.847   3.903   5.603 -0.6510  0.8386  0.6802
   82SOPE  C213 7523   2.716   3.753   5.685 -0.6244 -0.3178  0.2236
   82SOPE  H13R 7524   2.632   3.824   5.698 -0.1314 -0.0978  2.8005
   82SOPE  H13S 7525   2.708   3.689   5.776  3.1912 -1.5354 -0.0887
   82SOPE  C214 7526   2.694   3.665   5.566  0.3112 -0.0881  0.5642
   82SOPE  H14R 7527   2.623   3.586   5.597  1.9421 -2.2757 -0.9424
   82SOPE  H14S 7528   2.794   3.620   5.547  1.0208  2.0111 -1.1918
   82SOPE  C215 7529   2.651   3.741   5.445 -0.0943  0.2533 -0.1458
   82SOPE  H15R 7530   2.734   3.798   5.399 -2.6999  2.8435 -1.9444
   82SOPE  H15S 7531   2.580   3.821   5.474  1.6860  1.3422  1.4119
   82SOPE  C216 7532   2.604   3.653   5.329 -0.4979 -0.2447  0.0058
   82SOPE  H16R 7533   2.497   3.628   5.342 -0.6306  0.1905 -0.2387
   82SOPE  H16S 7534   2.668   3.562   5.326  0.9623  0.7395  0.1496
   82SOPE  C217 7535   2.610   3.725   5.195  0.4436  0.2608  0.5481
   82SOPE  H17R 7536   2.703   3.784   5.185 -1.6666  3.5477 -1.7633
   82SOPE  H17S 7537   2.529   3.801   5.189 -0.9172 -1.2004 -0.7611
   82SOPE  C218 7538   2.592   3.649   5.058 -0.4176 -0.1155 -0.6426
   82SOPE  H18R 7539   2.675   3.578   5.036 -0.3461  0.0982 -1.0729
   82SOPE  H18S 7540   2.602   3.728   4.980  0.5858  0.1844 -0.2374
   82SOPE  H18T 7541   2.490   3.607   5.049 -0.9496  1.1448 -0.7848
   82SOPE   C33 7542   2.573   4.402   6.718 -0.3652 -0.1715 -0.0739
   82SOPE   H3X 7543   2.683   4.385   6.721 -0.4419 -0.5774  0.8864
   82SOPE   H3Y 7544   2.559   4.513   6.719  0.2519 -0.0670 -1.5170
   82SOPE   C34 7545   2.520   4.354   6.594  0.1025  0.0800  0.1272
   82SOPE   H4X 7546   2.414   4.323   6.597  0.2063 -0.2198  0.7647
   82SOPE   H4Y 7547   2.569   4.259   6.562 -1.0986  0.0812 -1.8833
   82SOPE   C35 7548   2.554   4.449   6.472  0.8637 -0.4186 -0.1418
   82SOPE   H5X 7549   2.662   4.475   6.482  0.8736  0.1918 -1.6052
   82SOPE   H5Y 7550   2.490   4.539   6.482  0.7315 -0.3959 -1.1450
   82SOPE   C36 7551   2.525   4.379   6.337  0.3493 -0.3267  0.0550
   82SOPE   H6X 7552   2.418   4.350   6.324  0.8938 -2.8476  0.6606
   82SOPE   H6Y 7553   2.590   4.289   6.333  0.8470  0.0111  0.4250
   82SOPE   C37 7554   2.569   4.462   6.217  0.0291 -0.8021 -0.4655
   82SOPE   H7X 7555   2.679   4.475   6.217  0.0564 -0.9187  0.7209
   82SOPE   H7Y 7556   2.518   4.560   6.226 -2.1818 -1.8965 -0.3040
   82SOPE   C38 7557   2.529   4.402   6.084 -0.6736  0.1335  0.3774
   82SOPE   H8X 7558   2.418   4.398   6.090 -0.8340  0.9810 -1.2993
   82SOPE   H8Y 7559   2.574   4.300   6.084 -0.8370  0.0616  0.7946
   82SOPE   C39 7560   2.562   4.484   5.957 -0.1587  0.0952  0.2149
   82SOPE   H9X 7561   2.570   4.591   5.987  2.4491  0.1579 -0.4562
   82SOPE   H9Y 7562   2.486   4.457   5.881 -0.7590  0.2344  0.7605
   82SOPE  C310 7563   2.693   4.434   5.898  0.1396  0.5264  0.4544
   82SOPE  H10X 7564   2.683   4.328   5.870  2.3563  0.2833  0.3966
   82SOPE  H10Y 7565   2.773   4.430   5.975  1.3751 -0.3606 -0.8403
   82SOPE  C311 7566   2.747   4.503   5.772 -0.2405  0.1108  0.4536
   82SOPE  H11X 7567   2.834   4.443   5.736 -1.2615  0.1034 -2.2783
   82SOPE  H11Y 7568   2.790   4.601   5.799 -0.1128  0.1358  0.1652
   82SOPE  C312 7569   2.635   4.520   5.667  0.3764 -0.4023  0.7930
   82SOPE  H12X 7570   2.546   4.581   5.696  1.2497  1.4654 -0.2733
   82SOPE  H12Y 7571   2.604   4.422   5.625 -0.2685 -0.2754  0.9627
   82SOPE  C313 7572   2.695   4.584   5.536  0.5245 -0.4566  0.1087
   82SOPE  H13X 7573   2.794   4.539   5.514  0.4716 -1.1624  1.2246
   82SOPE  H13Y 7574   2.709   4.690   5.564 -1.3258 -0.6629  2.0530
   82SOPE  C314 7575   2.601   4.565   5.418 -0.1024  0.3201 -0.7571
   82SOPE  H14X 7576   2.510   4.623   5.442  0.7672  1.9042 -1.1108
   82SOPE  H14Y 7577   2.576   4.457   5.423  0.6731  0.1476  4.1065
   82SOPE  C315 7578   2.658   4.604   5.284 -0.0129  0.1403 -1.0284
   82SOPE  H15X 7579   2.736   4.531   5.252 -1.2286 -0.9044 -1.7347
   82SOPE  H15Y 7580   2.711   4.701   5.277  1.1173 -0.5641 -4.3275
   82SOPE  C316 7581   2.551   4.597   5.169  0.3989 -0.3242 -0.6316
   82SOPE  H16X 7582   2.488   4.688   5.173 -1.2740 -1.4815  0.3311
   82SOPE  H16Y 7583   2.480   4.514   5.190  1.4376 -1.6723 -2.1379
   82SOPE  C317 7584   2.614   4.552   5.038 -0.0619  0.1605  0.7727
   82SOPE  H17X 7585   2.683   4.469   5.067 -1.2526 -1.6981 -1.3906
   82SOPE  H17Y 7586   2.675   4.629   4.985 -1.8537 -0.9542 -3.2836
   82SOPE  C318 7587   2.513   4.502   4.932  0.5643  0.0426 -0.0322
   82SOPE  H18X 7588   2.563   4.445   4.850 -1.9434  3.7511 -4.6679
   82SOPE  H18Y 7589   2.465   4.583   4.872  1.5408 -0.1802 -1.1610
   82SOPE  H18Z 7590   2.433   4.452   4.990  1.4205 -0.3641  0.8196
   83SOPE     N 7591   2.936   2.370   2.559 -1.4357 -0.2568 -0.0430
   83SOPE   HN1 7592   2.885   2.322   2.482 -1.4510 -3.2896  1.6895
   83SOPE   HN2 7593   3.006   2.433   2.514  0.7886 -0.8109  2.3820
   83SOPE   HN3 7594   3.001   2.295   2.590  1.2263  1.6518 -0.5563
   83SOPE   C12 7595   2.865   2.441   2.674 -0.2414 -0.1732  0.0850
   83SOPE  H12A 7596   2.783   2.504   2.635  0.4162  0.1704 -0.7617
   83SOPE  H12B 7597   2.935   2.504   2.732  1.3423 -1.0006 -0.8499
   83SOPE   C11 7598   2.794   2.346   2.770 -0.0055  0.6202 -0.0065
   83SOPE  H11A 7599   2.716   2.395   2.832  0.4421 -0.3582  1.3823
   83SOPE  H11B 7600   2.878   2.305   2.830  0.3000  1.0918 -0.1097
   83SOPE     P 7601   2.592   2.232   2.659  0.2728  0.0749 -0.1619
   83SOPE   O13 7602   2.567   2.111   2.570 -0.2892 -0.0421 -0.1164
   83SOPE   O14 7603   2.551   2.362   2.601  0.1672 -0.0796  0.3202
   83SOPE   O12 7604   2.746   2.234   2.701  0.7441  0.3918  0.2385
   83SOPE   O11 7605   2.512   2.217   2.794  0.1136 -0.1822  0.3024
   83SOPE    C1 7606   2.526   2.115   2.891 -0.4409  0.0615  0.5667
   83SOPE    HA 7607   2.612   2.056   2.854 -0.4693  0.0253  0.5591
   83SOPE    HB 7608   2.443   2.042   2.880  1.0372 -1.6966  0.5458
   83SOPE    C2 7609   2.550   2.172   3.036  0.1821  0.9384  0.1803
   83SOPE    HS 7610   2.461   2.142   3.095 -0.2959  1.0443 -0.4692
   83SOPE   O21 7611   2.571   2.311   3.037 -0.0937  0.1325 -0.1617
   83SOPE   C21 7612   2.464   2.391   3.009 -0.1373 -1.1788 -0.4808
   83SOPE   O22 7613   2.349   2.360   2.990  0.2405 -0.2386  0.2523
   83SOPE   C22 7614   2.522   2.537   3.022  0.3721  0.2382 -0.3021
   83SOPE   H2R 7615   2.477   2.604   2.946 -1.5832  0.2603  0.8248
   83SOPE   H2S 7616   2.633   2.528   3.012  0.3746 -4.1122  1.4509
   83SOPE    C3 7617   2.671   2.090   3.096  1.0833  0.1204 -0.1516
   83SOPE    HX 7618   2.755   2.117   3.028  0.6329  3.2831  0.4006
   83SOPE    HY 7619   2.641   1.984   3.089 -0.9648  0.7118 -1.1644
   83SOPE   O31 7620   2.702   2.142   3.226  0.1751 -0.2104 -0.4196
   83SOPE   C31 7621   2.634   2.071   3.322 -0.5208 -0.3219 -0.6499
   83SOPE   O32 7622   2.542   1.998   3.300 -0.4825 -0.4009 -0.1306
   83SOPE   C32 7623   2.684   2.116   3.459  0.6577  0.2302 -0.4629
   83SOPE   H2X 7624   2.676   2.225   3.477  0.4585  0.1448 -0.0159
   83SOPE   H2Y 7625   2.789   2.080   3.466  1.4059  1.9691 -1.9748
   83SOPE   C23 7626   2.484   2.604   3.153 -0.4106 -0.4404  0.5181
   83SOPE   H3R 7627   2.374   2.618   3.156 -0.4407 -0.3562 -0.4207
   83SOPE   H3S 7628   2.531   2.704   3.155  1.8430 -1.3815 -1.1835
   83SOPE   C24 7629   2.529   2.543   3.284  0.2495  0.6719  0.1257
   83SOPE   H4R 7630   2.639   2.529   3.284  0.4426  1.8162 -2.2387
   83SOPE   H4S 7631   2.504   2.626   3.353 -1.5627 -0.3425  0.7719
   83SOPE   C25 7632   2.462   2.412   3.334  0.1138 -0.3359  1.1321
   83SOPE   H5R 7633   2.503   2.331   3.270  0.9283 -0.5715  1.9319
   83SOPE   H5S 7634   2.482   2.389   3.441 -0.1617 -1.8811  0.8793
   83SOPE   C26 7635   2.314   2.414   3.330  0.0835 -0.8956  0.5043
   83SOPE   H6R 7636   2.274   2.506   3.377  0.0809 -1.3594  1.4169
   83SOPE   H6S 7637   2.287   2.424   3.222  1.8819  1.6118  0.1758
   83SOPE   C27 7638   2.251   2.295   3.399  0.3416  0.0312  0.2042
   83SOPE   H7R 7639   2.280   2.201   3.347 -0.6085 -0.6282  0.8261
   83SOPE   H7S 7640   2.282   2.292   3.506 -1.4336  0.8569  0.7766
   83SOPE   C28 7641   2.099   2.306   3.407  0.0986  0.5614  0.5495
   83SOPE   H8R 7642   2.085   2.395   3.471  0.1367 -0.7775  2.4992
   83SOPE   H8S 7643   2.059   2.323   3.305 -0.8816  2.0981  1.1545
   83SOPE   C29 7644   2.044   2.183   3.470  0.6538  0.4702 -0.0942
   83SOPE   H91 7645   2.092   2.092   3.432  2.0408  0.8673  0.6306
   83SOPE  C210 7646   1.938   2.178   3.558  0.0269 -0.0997  0.6005
   83SOPE  H101 7647   1.902   2.079   3.587  0.2634  0.1894  1.9552
   83SOPE  C211 7648   1.866   2.299   3.621  0.5013  0.1118 -0.2145
   83SOPE  H11R 7649   1.759   2.276   3.600  0.7469 -1.6844  0.2985
   83SOPE  H11S 7650   1.884   2.398   3.575  1.0556  0.8176  1.4609
   83SOPE  C212 7651   1.895   2.301   3.773 -0.6892 -0.5313 -0.1235
   83SOPE  H12R 7652   2.005   2.287   3.787 -0.1443  3.8480  1.6954
   83SOPE  H12S 7653   1.838   2.219   3.820  0.7877 -1.4243  0.1893
   83SOPE  C213 7654   1.865   2.429   3.849  0.5849 -0.0688 -0.0918
   83SOPE  H13R 7655   1.764   2.458   3.813  0.2740 -0.3489  0.5283
   83SOPE  H13S 7656   1.935   2.507   3.814  1.6853 -1.4139 -0.9933
   83SOPE  C214 7657   1.870   2.411   4.003 -0.1408  0.3827  0.9588
   83SOPE  H14R 7658   1.959   2.346   4.015  1.6184  2.0196 -1.9477
   83SOPE  H14S 7659   1.783   2.356   4.045  0.1715 -0.0032  1.1108
   83SOPE  C215 7660   1.886   2.548   4.066 -0.0454  0.3049 -0.5506
   83SOPE  H15R 7661   1.796   2.614   4.069 -1.5263 -1.6338  1.1521
   83SOPE  H15S 7662   1.952   2.607   3.999 -2.6116  1.1285 -2.5733
   83SOPE  C216 7663   1.942   2.535   4.216  0.2839 -0.2599  0.0990
   83SOPE  H16R 7664   1.945   2.639   4.253 -0.2086 -0.0386 -0.4613
   83SOPE  H16S 7665   2.042   2.488   4.210  0.7587  0.7109  0.2441
   83SOPE  C217 7666   1.851   2.457   4.309 -0.4506 -0.5166  0.2339
   83SOPE  H17R 7667   1.839   2.348   4.290  2.8349 -1.1407  1.1845
   83SOPE  H17S 7668   1.748   2.499   4.317  0.1164  0.9187  0.1630
   83SOPE  C218 7669   1.914   2.467   4.451 -0.7674 -0.1716 -0.4089
   83SOPE  H18R 7670   1.979   2.379   4.468 -1.3213 -0.0241  3.4109
   83SOPE  H18S 7671   1.839   2.465   4.533 -0.8590  1.2914 -0.4195
   83SOPE  H18T 7672   1.959   2.567   4.468 -1.5620  0.2162 -0.5048
   83SOPE   C33 7673   2.607   2.044   3.580 -0.1422 -0.0203 -0.2377
   83SOPE   H3X 7674   2.498   2.062   3.565 -0.3284 -0.1333  0.8957
   83SOPE   H3Y 7675   2.628   2.098   3.675 -1.8732 -3.4330  2.2641
   83SOPE   C34 7676   2.640   1.892   3.599  0.1799 -0.5128 -0.3426
   83SOPE   H4X 7677   2.632   1.838   3.502 -1.4166 -0.0141 -0.5117
   83SOPE   H4Y 7678   2.552   1.854   3.655 -0.2701 -1.3032 -1.5350
   83SOPE   C35 7679   2.774   1.859   3.668  0.0539  0.0585  0.3643
   83SOPE   H5X 7680   2.850   1.894   3.595 -0.1440  0.0887  0.1717
   83SOPE   H5Y 7681   2.799   1.750   3.664 -2.6357 -0.6154 -0.2401
   83SOPE   C36 7682   2.782   1.921   3.802 -1.0628 -0.6917 -0.4606
   83SOPE   H6X 7683   2.703   1.892   3.875 -1.1169  1.6869  0.5321
   83SOPE   H6Y 7684   2.777   2.032   3.797  0.1397 -0.6679 -1.9706
   83SOPE   C37 7685   2.919   1.901   3.861 -0.8124 -0.8739  0.2334
   83SOPE   H7X 7686   2.997   1.969   3.821  0.2045 -1.4761  1.1118
   83SOPE   H7Y 7687   2.960   1.799   3.843 -1.1043 -0.8448 -0.6478
   83SOPE   C38 7688   2.914   1.943   4.009 -0.3417  0.0691 -0.2792
   83SOPE   H8X 7689   2.839   1.884   4.066 -3.0029  1.3952 -2.1629
   83SOPE   H8Y 7690   2.889   2.051   4.018 -1.3262  0.0379 -2.1352
   83SOPE   C39 7691   3.047   1.927   4.090 -0.2123  0.0759 -0.2503
   83SOPE   H9X 7692   3.126   1.993   4.049 -1.6428  1.0319 -1.5746
   83SOPE   H9Y 7693   3.074   1.820   4.084 -1.7993 -0.3022 -1.3347
   83SOPE  C310 7694   3.030   1.976   4.234  0.2969  0.2688 -0.1658
   83SOPE  H10X 7695   2.936   1.930   4.272 -0.0837  1.0859 -0.0996
   83SOPE  H10Y 7696   3.008   2.085   4.234 -1.2281 -0.0152  1.2203
   83SOPE  C311 7697   3.149   1.944   4.326 -0.3402 -0.3825  0.0436
   83SOPE  H11X 7698   3.233   2.008   4.292  0.2505 -1.3179 -0.3237
   83SOPE  H11Y 7699   3.160   1.834   4.317 -2.5181 -0.6689  0.4153
   83SOPE  C312 7700   3.125   1.971   4.474 -0.2934 -0.0733 -0.5209
   83SOPE  H12X 7701   3.204   1.935   4.544  0.6081  1.1484 -0.8790
   83SOPE  H12Y 7702   3.029   1.925   4.506 -0.2712  0.0761 -0.2386
   83SOPE  C313 7703   3.126   2.120   4.506  0.9639 -0.0230  0.4663
   83SOPE  H13X 7704   3.046   2.177   4.455  1.6792  1.1187  0.6008
   83SOPE  H13Y 7705   3.220   2.164   4.466  0.7943 -0.7603 -0.7932
   83SOPE  C314 7706   3.113   2.157   4.652 -0.1210  1.1822 -0.2292
   83SOPE  H14X 7707   3.190   2.100   4.707  1.8336  3.5796 -0.2973
   83SOPE  H14Y 7708   3.016   2.117   4.689 -0.3326  2.3816  0.5752
   83SOPE  C315 7709   3.128   2.305   4.686 -0.1562  0.1716  0.6185
   83SOPE  H15X 7710   3.049   2.365   4.635  0.4864 -0.3274 -1.0096
   83SOPE  H15Y 7711   3.227   2.331   4.644 -0.2347 -0.4535  0.0170
   83SOPE  C316 7712   3.117   2.337   4.830  0.2186 -0.7300 -0.2230
   83SOPE  H16X 7713   3.182   2.266   4.885 -1.0257 -0.9297  1.0457
   83SOPE  H16Y 7714   3.014   2.319   4.865  0.1260 -3.7987 -1.7596
   83SOPE  C317 7715   3.158   2.482   4.848  0.2419 -0.4042 -0.7334
   83SOPE  H17X 7716   3.064   2.533   4.817  1.1647  1.4343 -0.6753
   83SOPE  H17Y 7717   3.241   2.513   4.780  0.6136 -0.2658 -0.2222
   83SOPE  C318 7718   3.187   2.513   4.992  0.2741 -0.2485  0.0460
   83SOPE  H18X 7719   3.245   2.429   5.037 -1.4720 -1.2416  0.5732
   83SOPE  H18Y 7720   3.090   2.526   5.045 -0.3617 -0.8275 -0.9333
   83SOPE  H18Z 7721   3.242   2.608   5.001 -0.6734  0.2180  1.2272
   84SOPE     N 7722   2.064   2.038   2.842 -0.8185 -0.1047 -0.2893
   84SOPE   HN1 7723   2.097   2.070   2.936  0.6753 -1.5169 -0.2743
   84SOPE   HN2 7724   2.144   2.027   2.777  0.2791 -0.5010  1.0660
   84SOPE   HN3 7725   2.000   2.112   2.807 -1.9629 -1.3806 -0.9890
   84SOPE   C12 7726   1.992   1.910   2.856 -0.0132 -0.5669  0.1638
   84SOPE  H12A 7727   1.925   1.902   2.768  2.1140 -0.5031 -1.5340
   84SOPE  H12B 7728   1.930   1.923   2.947 -2.5694  1.7282 -1.7318
   84SOPE   C11 7729   2.094   1.794   2.854  0.9345  0.1478  0.0661
   84SOPE  H11A 7730   2.132   1.799   2.750 -1.8412 -2.3496 -1.2216
   84SOPE  H11B 7731   2.039   1.698   2.870  1.5930  0.1088  2.6523
   84SOPE     P 7732   2.342   1.730   2.966 -0.0643 -0.2702 -0.3113
   84SOPE   O13 7733   2.390   1.750   3.105  0.3911  0.3159 -0.1440
   84SOPE   O14 7734   2.432   1.791   2.866 -0.0015 -0.5843  0.6444
   84SOPE   O12 7735   2.198   1.792   2.956  0.4445 -0.4239 -0.1678
   84SOPE   O11 7736   2.312   1.576   2.943 -0.2655  0.0728  0.4738
   84SOPE    C1 7737   2.209   1.503   3.018 -0.0339  0.7970 -0.0456
   84SOPE    HA 7738   2.143   1.443   2.952 -0.1278  0.6515  0.1784
   84SOPE    HB 7739   2.137   1.577   3.058 -0.8650  0.0250 -0.0961
   84SOPE    C2 7740   2.264   1.409   3.129 -0.4980  0.0802 -0.0708
   84SOPE    HS 7741   2.184   1.338   3.161  1.0861 -1.3121  0.9257
   84SOPE   O21 7742   2.317   1.478   3.248  0.5265 -0.2072  0.2711
   84SOPE   C21 7743   2.223   1.539   3.317  0.9203  0.1477 -0.5772
   84SOPE   O22 7744   2.106   1.529   3.293  0.5264  0.0445  0.5505
   84SOPE   C22 7745   2.283   1.607   3.445 -0.1386 -0.4266 -0.2916
   84SOPE   H2R 7746   2.352   1.683   3.403  0.2772 -0.4646  0.3199
   84SOPE   H2S 7747   2.344   1.532   3.499 -1.5914 -1.2992  0.2076
   84SOPE    C3 7748   2.372   1.314   3.071  0.0328 -0.0016 -0.7432
   84SOPE    HX 7749   2.442   1.371   3.006  0.6979 -0.8346 -0.7633
   84SOPE    HY 7750   2.332   1.239   3.000  0.5900  0.5816 -1.7038
   84SOPE   O31 7751   2.437   1.239   3.169  0.5273  0.0232 -0.8048
   84SOPE   C31 7752   2.543   1.300   3.222 -0.4194 -0.6034  0.2467
   84SOPE   O32 7753   2.589   1.408   3.193 -0.5518  0.2411  0.2799
   84SOPE   C32 7754   2.599   1.219   3.337 -1.1047  0.2313  0.6383
   84SOPE   H2X 7755   2.641   1.127   3.290  0.2364  0.7264  0.8232
   84SOPE   H2Y 7756   2.517   1.203   3.409 -0.0892  0.8162  1.9555
   84SOPE   C23 7757   2.174   1.668   3.539  0.3225  0.3093  0.1142
   84SOPE   H3R 7758   2.084   1.605   3.521  1.0525 -1.5205  2.4020
   84SOPE   H3S 7759   2.144   1.765   3.493  0.6456  0.6763  0.6640
   84SOPE   C24 7760   2.205   1.663   3.688  0.2159  0.2711  0.0921
   84SOPE   H4R 7761   2.212   1.556   3.715 -1.0183 -0.2554 -1.4664
   84SOPE   H4S 7762   2.309   1.702   3.692  0.0993  0.4538  1.7396
   84SOPE   C25 7763   2.113   1.756   3.770 -0.6593 -0.1176 -0.4606
   84SOPE   H5R 7764   2.013   1.709   3.769  0.0938 -1.9565  1.9711
   84SOPE   H5S 7765   2.137   1.748   3.878 -0.1684 -2.9620 -0.7160
   84SOPE   C26 7766   2.107   1.903   3.743  0.1421 -0.7408 -0.3641
   84SOPE   H6R 7767   2.040   1.933   3.659 -1.0630 -0.2774  0.7261
   84SOPE   H6S 7768   2.056   1.944   3.833  2.6869 -0.3172  0.9763
   84SOPE   C27 7769   2.244   1.969   3.723 -0.3806 -0.2695 -0.3169
   84SOPE   H7R 7770   2.276   1.913   3.633 -0.9975 -1.3485  0.1221
   84SOPE   H7S 7771   2.248   2.073   3.684  0.4392 -0.1264  0.1256
   84SOPE   C28 7772   2.336   1.959   3.846  0.1044 -0.4683 -0.2319
   84SOPE   H8R 7773   2.358   1.856   3.880 -1.4173 -1.2028 -1.3667
   84SOPE   H8S 7774   2.430   2.007   3.811 -0.4838  1.8309  1.1073
   84SOPE   C29 7775   2.277   2.046   3.959 -0.0410  0.1251  1.1457
   84SOPE   H91 7776   2.202   2.112   3.913 -1.8946 -3.0947 -0.7612
   84SOPE  C210 7777   2.261   2.023   4.086  0.6260 -0.1889 -0.7714
   84SOPE  H101 7778   2.209   2.102   4.141 -0.6289  0.9868 -3.4338
   84SOPE  C211 7779   2.328   1.908   4.154 -0.2849 -0.0225  1.0712
   84SOPE  H11R 7780   2.325   1.912   4.265  1.5038 -1.7318  1.2226
   84SOPE  H11S 7781   2.433   1.907   4.119 -0.7475 -1.1166 -0.4331
   84SOPE  C212 7782   2.257   1.778   4.142 -0.0293  0.3173  0.0211
   84SOPE  H12R 7783   2.314   1.700   4.198  0.5424  0.1092 -0.8299
   84SOPE  H12S 7784   2.263   1.740   4.037 -0.2541  0.8520 -0.1906
   84SOPE  C213 7785   2.109   1.784   4.201 -0.0456  0.0478  0.1415
   84SOPE  H13R 7786   2.035   1.777   4.118  1.5131 -3.4912 -1.1301
   84SOPE  H13S 7787   2.108   1.882   4.254  1.1393  1.7656 -2.8019
   84SOPE  C214 7788   2.082   1.659   4.290 -0.6026  0.2314 -0.0953
   84SOPE  H14R 7789   2.153   1.653   4.375 -0.1557  0.6626 -0.4325
   84SOPE  H14S 7790   2.094   1.562   4.236  3.3263  1.1985 -1.3294
   84SOPE  C215 7791   1.937   1.654   4.345  0.2614 -0.5867  0.5599
   84SOPE  H15R 7792   1.932   1.570   4.418  2.8922 -1.7133 -0.4604
   84SOPE  H15S 7793   1.861   1.641   4.264 -0.2685  1.1311  0.7397
   84SOPE  C216 7794   1.882   1.782   4.418  0.3340  0.3214  0.1249
   84SOPE  H16R 7795   1.852   1.847   4.332 -0.1190  0.2823  0.2513
   84SOPE  H16S 7796   1.969   1.832   4.465 -0.1801  3.4758 -1.9368
   84SOPE  C217 7797   1.760   1.759   4.508  0.2592 -0.1723  0.6581
   84SOPE  H17R 7798   1.735   1.857   4.553 -0.9293  0.0430 -0.4324
   84SOPE  H17S 7799   1.798   1.692   4.588 -2.5155 -0.2305  2.0401
   84SOPE  C218 7800   1.642   1.718   4.424  0.5081 -0.4601  0.6483
   84SOPE  H18R 7801   1.555   1.684   4.484  1.6479 -1.3090  1.8857
   84SOPE  H18S 7802   1.662   1.646   4.342 -1.3924  0.6227 -0.8267
   84SOPE  H18T 7803   1.598   1.809   4.378 -0.8182 -1.8490 -0.9747
   84SOPE   C33 7804   2.723   1.285   3.416  0.0397 -0.2111 -0.1111
   84SOPE   H3X 7805   2.794   1.328   3.342  0.8359  2.1020  1.8874
   84SOPE   H3Y 7806   2.767   1.197   3.468 -2.6987 -1.6044  0.0386
   84SOPE   C34 7807   2.688   1.402   3.507  0.2146 -0.3722  0.0621
   84SOPE   H4X 7808   2.645   1.492   3.457  2.1309  0.9416  0.6349
   84SOPE   H4Y 7809   2.775   1.436   3.568  0.0575  1.3189 -0.5960
   84SOPE   C35 7810   2.583   1.367   3.612 -0.2043 -0.2574  0.0731
   84SOPE   H5X 7811   2.617   1.275   3.665  2.4430  0.4501 -0.2567
   84SOPE   H5Y 7812   2.486   1.362   3.559 -0.6430 -2.1129  0.9519
   84SOPE   C36 7813   2.575   1.478   3.723 -0.5528  0.4273  0.1674
   84SOPE   H6X 7814   2.537   1.575   3.687  0.8180  0.4735 -1.2124
   84SOPE   H6Y 7815   2.674   1.494   3.769 -0.4143 -0.1862  0.1022
   84SOPE   C37 7816   2.480   1.426   3.825 -0.1755 -0.1181  0.1628
   84SOPE   H7X 7817   2.514   1.322   3.845 -1.8823 -0.4630  1.4958
   84SOPE   H7Y 7818   2.373   1.431   3.793 -0.0478 -0.3608 -0.3171
   84SOPE   C38 7819   2.481   1.498   3.963  0.6371  0.3264  0.2063
   84SOPE   H8X 7820   2.459   1.607   3.954 -0.7514 -0.0128 -1.1143
   84SOPE   H8Y 7821   2.588   1.489   3.989  0.4725  0.8479  1.0726
   84SOPE   C39 7822   2.412   1.416   4.072  0.2071 -0.8486 -0.1331
   84SOPE   H9X 7823   2.398   1.311   4.039 -0.5537 -1.1728  1.1403
   84SOPE   H9Y 7824   2.311   1.452   4.103  0.1697 -0.0563 -1.1562
   84SOPE  C310 7825   2.508   1.402   4.194 -0.5186 -0.2652  0.4386
   84SOPE  H10X 7826   2.546   1.501   4.228 -0.0746 -0.3302  0.1369
   84SOPE  H10Y 7827   2.601   1.363   4.149 -0.8133  1.3716 -1.7873
   84SOPE  C311 7828   2.453   1.315   4.308  0.5176  0.0659 -0.3942
   84SOPE  H11X 7829   2.535   1.320   4.382  0.9923 -1.3079 -0.7939
   84SOPE  H11Y 7830   2.446   1.207   4.281  0.0616 -0.1410  0.5027
   84SOPE  C312 7831   2.325   1.376   4.365  0.3133 -0.1363 -0.2466
   84SOPE  H12X 7832   2.237   1.350   4.303 -1.8208  0.7733  2.2043
   84SOPE  H12Y 7833   2.344   1.484   4.379 -1.9465  0.4633 -1.3997
   84SOPE  C313 7834   2.292   1.312   4.504  0.0125  0.3117  0.0333
   84SOPE  H13X 7835   2.364   1.334   4.586 -0.9321  0.8774  0.7255
   84SOPE  H13Y 7836   2.278   1.204   4.484 -2.1288  0.3839  0.9085
   84SOPE  C314 7837   2.153   1.366   4.543 -0.1431  0.5616 -0.0462
   84SOPE  H14X 7838   2.091   1.359   4.451 -1.0631 -0.7516  0.6340
   84SOPE  H14Y 7839   2.161   1.475   4.558 -0.8761  0.3800  2.0494
   84SOPE  C315 7840   2.089   1.287   4.661 -0.6586 -0.1847 -0.3208
   84SOPE  H15X 7841   2.129   1.317   4.760 -0.8712  0.3324 -0.3850
   84SOPE  H15Y 7842   2.120   1.181   4.648 -1.0005 -0.2500 -0.6085
   84SOPE  C316 7843   1.940   1.300   4.670  0.0702  0.3029 -0.2563
   84SOPE  H16X 7844   1.903   1.234   4.751 -0.8197  1.0898 -0.0083
   84SOPE  H16Y 7845   1.884   1.261   4.583  1.4435 -1.0813 -0.5656
   84SOPE  C317 7846   1.890   1.437   4.716 -0.2092 -0.0398  0.5281
   84SOPE  H17X 7847   1.932   1.512   4.646  0.3595 -0.3001  0.5810
   84SOPE  H17Y 7848   1.930   1.453   4.819 -0.2996  0.9700  0.4231
   84SOPE  C318 7849   1.741   1.458   4.712  0.0777  0.5861 -0.6677
   84SOPE  H18X 7850   1.701   1.434   4.611 -1.1312  1.2241 -0.3650
   84SOPE  H18Y 7851   1.709   1.562   4.732 -2.4158 -0.2969  0.4067
   84SOPE  H18Z 7852   1.689   1.405   4.795  0.7834 -0.4676 -0.8851
   85SOPE     N 7853   6.386   3.184   2.417 -0.2332  0.4238 -0.1415
   85SOPE   HN1 7854   6.404   3.282   2.388 -0.9969  0.7531  0.4559
   85SOPE   HN2 7855   6.347   3.179   2.514 -0.8628  2.3963 -0.2469
   85SOPE   HN3 7856   6.474   3.130   2.403 -0.8119 -0.5394 -0.1793
   85SOPE   C12 7857   6.266   3.150   2.339  0.6744 -0.6210 -0.5757
   85SOPE  H12A 7858   6.232   3.049   2.370 -0.0134 -0.5504 -1.0602
   85SOPE  H12B 7859   6.285   3.149   2.229  0.6798 -2.2455 -0.5888
   85SOPE   C11 7860   6.149   3.241   2.366 -0.3301  0.0822 -0.4568
   85SOPE  H11A 7861   6.073   3.206   2.293 -0.0222  2.5370 -2.0678
   85SOPE  H11B 7862   6.169   3.344   2.330 -1.6200 -0.0621 -1.6550
   85SOPE     P 7863   5.999   3.345   2.554 -0.1607 -0.3337 -0.3993
   85SOPE   O13 7864   5.864   3.319   2.497 -0.2429 -0.7966  0.3485
   85SOPE   O14 7865   6.054   3.480   2.534  0.3371  0.3500  0.2445
   85SOPE   O12 7866   6.103   3.230   2.504  0.2687  0.2226  0.0882
   85SOPE   O11 7867   5.979   3.324   2.709  0.0916  0.6387  0.2410
   85SOPE    C1 7868   6.090   3.293   2.795  0.1051 -0.3083 -0.0216
   85SOPE    HA 7869   6.191   3.295   2.749 -0.2880 -0.7646 -0.9490
   85SOPE    HB 7870   6.077   3.184   2.815 -1.8672 -0.3653 -1.2765
   85SOPE    C2 7871   6.081   3.368   2.935  0.5006  0.0275 -0.0074
   85SOPE    HS 7872   6.179   3.356   2.986  1.5883  1.1511 -1.7407
   85SOPE   O21 7873   5.961   3.319   3.010 -0.2869 -0.1764 -0.1190
   85SOPE   C21 7874   5.981   3.208   3.083 -0.3301 -0.4098  0.1642
   85SOPE   O22 7875   6.073   3.131   3.063 -0.6549 -0.5954 -0.5206
   85SOPE   C22 7876   5.869   3.185   3.179  0.8787  0.0347  0.8439
   85SOPE   H2R 7877   5.784   3.131   3.133  0.1351  0.7756  1.3149
   85SOPE   H2S 7878   5.827   3.286   3.199  1.4775  0.5480 -0.4094
   85SOPE    C3 7879   6.072   3.517   2.924  0.3008  0.0219  0.8484
   85SOPE    HX 7880   5.983   3.542   2.863 -0.5676 -0.5250  1.8541
   85SOPE    HY 7881   6.161   3.553   2.868  1.1516  0.5590  2.4767
   85SOPE   O31 7882   6.053   3.586   3.053 -0.5490 -0.4263  0.2455
   85SOPE   C31 7883   6.173   3.588   3.124  0.3576  0.5503 -0.7459
   85SOPE   O32 7884   6.277   3.536   3.083 -0.2707 -0.6071 -0.5544
   85SOPE   C32 7885   6.147   3.648   3.260  0.6387 -0.3285 -0.2654
   85SOPE   H2X 7886   6.079   3.735   3.251  0.3085 -0.5440  0.1514
   85SOPE   H2Y 7887   6.243   3.694   3.290  0.3162 -1.3695  2.6692
   85SOPE   C23 7888   5.903   3.120   3.304  0.7069 -0.3915  0.4820
   85SOPE   H3R 7889   5.984   3.044   3.305  1.0422 -0.0384  0.6839
   85SOPE   H3S 7890   5.807   3.089   3.351  0.6812  0.6894  1.1665
   85SOPE   C24 7891   5.980   3.210   3.402 -0.2188 -0.4669 -0.3908
   85SOPE   H4R 7892   6.065   3.255   3.347  0.0045 -0.3424  0.0510
   85SOPE   H4S 7893   5.916   3.296   3.433  0.1216 -0.9302  1.7413
   85SOPE   C25 7894   6.042   3.139   3.521 -0.1093  0.0592 -0.1880
   85SOPE   H5R 7895   6.098   3.050   3.484 -0.9682 -0.2291 -0.8298
   85SOPE   H5S 7896   6.125   3.203   3.559  0.0737 -0.5100  0.3884
   85SOPE   C26 7897   5.935   3.108   3.625 -0.0999  0.4076 -0.1977
   85SOPE   H6R 7898   5.886   3.207   3.633  0.4093  0.6556 -0.1628
   85SOPE   H6S 7899   5.870   3.026   3.584  1.2535  0.6729 -3.1449
   85SOPE   C27 7900   5.996   3.080   3.763 -0.9165  0.4286  0.0772
   85SOPE   H7R 7901   6.053   2.984   3.757 -0.5271  0.5110  1.9314
   85SOPE   H7S 7902   6.060   3.168   3.782  0.1089 -0.1009 -0.7999
   85SOPE   C28 7903   5.892   3.053   3.871 -0.6240 -0.2946 -0.0944
   85SOPE   H8R 7904   5.925   3.107   3.962  0.1643 -0.5347 -0.2354
   85SOPE   H8S 7905   5.797   3.106   3.845  0.2008 -0.1773 -3.4028
   85SOPE   C29 7906   5.861   2.909   3.913  0.3416  0.2217  0.2109
   85SOPE   H91 7907   5.873   2.832   3.837 -2.1087 -0.6420  0.5969
   85SOPE  C210 7908   5.810   2.867   4.032  0.5818  0.0173 -0.2510
   85SOPE  H101 7909   5.790   2.760   4.048 -0.5358  0.2969  0.3567
   85SOPE  C211 7910   5.777   2.960   4.146 -0.4647 -0.4977 -0.4940
   85SOPE  H11R 7911   5.678   3.011   4.144  0.7480  2.0335 -0.1872
   85SOPE  H11S 7912   5.854   3.040   4.152 -1.6593  0.7422 -1.2529
   85SOPE  C212 7913   5.798   2.891   4.276  0.4979 -0.5342  0.0942
   85SOPE  H12R 7914   5.902   2.852   4.270  0.5859 -0.0738 -3.3665
   85SOPE  H12S 7915   5.734   2.801   4.290  0.9005 -0.9522 -0.7479
   85SOPE  C213 7916   5.766   2.982   4.396  0.3618  0.2635 -0.0505
   85SOPE  H13R 7917   5.664   3.015   4.370 -0.3796 -0.9311  1.2425
   85SOPE  H13S 7918   5.825   3.076   4.397 -1.3735  1.4804  3.4294
   85SOPE  C214 7919   5.776   2.904   4.536  0.1352 -0.3789 -0.4665
   85SOPE  H14R 7920   5.708   2.817   4.531 -0.0513 -0.5367  2.7161
   85SOPE  H14S 7921   5.736   2.963   4.622 -1.8549 -2.5805  0.2020
   85SOPE  C215 7922   5.923   2.874   4.580  0.6666 -0.3959  0.9805
   85SOPE  H15R 7923   5.977   2.970   4.593  0.2051  0.1634 -0.8532
   85SOPE  H15S 7924   5.982   2.812   4.509  2.2772  0.7203  1.2963
   85SOPE  C216 7925   5.924   2.801   4.719 -0.1111  0.6285  0.7387
   85SOPE  H16R 7926   6.030   2.781   4.746  0.0835 -2.0529 -1.5037
   85SOPE  H16S 7927   5.867   2.705   4.725  0.4987  0.3610  3.2964
   85SOPE  C217 7928   5.862   2.888   4.830 -0.1412  0.4351  0.4377
   85SOPE  H17R 7929   5.751   2.880   4.818 -0.1311 -0.1779  0.7047
   85SOPE  H17S 7930   5.895   2.993   4.842 -2.2875  1.0984  0.9531
   85SOPE  C218 7931   5.887   2.811   4.966  0.9650  0.4646  0.3740
   85SOPE  H18R 7932   5.839   2.711   4.953 -2.5046  1.8843  1.2320
   85SOPE  H18S 7933   5.825   2.864   5.041 -2.4000 -0.5508 -1.4663
   85SOPE  H18T 7934   5.997   2.809   4.982  1.5285 -0.3308 -2.9236
   85SOPE   C33 7935   6.104   3.545   3.366 -0.1340  0.2235  0.4647
   85SOPE   H3X 7936   6.187   3.475   3.388  0.1712  0.1983 -0.7031
   85SOPE   H3Y 7937   6.016   3.489   3.327 -0.4663  0.7489  0.4494
   85SOPE   C34 7938   6.063   3.615   3.495  0.1675  0.0840  0.2025
   85SOPE   H4X 7939   5.978   3.682   3.470 -0.7165 -1.6955 -1.9210
   85SOPE   H4Y 7940   6.134   3.687   3.540 -1.6958  0.9239  1.9844
   85SOPE   C35 7941   6.009   3.515   3.598 -0.0051  1.0728  0.0497
   85SOPE   H5X 7942   6.073   3.425   3.609  1.1714  2.0295  1.4187
   85SOPE   H5Y 7943   5.921   3.462   3.554  0.3944 -0.6225  1.2057
   85SOPE   C36 7944   5.987   3.571   3.735  0.7960 -0.5454  0.2712
   85SOPE   H6X 7945   5.926   3.664   3.727  1.8097  0.0541 -0.8390
   85SOPE   H6Y 7946   6.087   3.594   3.778  1.4075 -0.2103 -1.2825
   85SOPE   C37 7947   5.907   3.478   3.831  0.6183 -0.1283  0.1062
   85SOPE   H7X 7948   5.956   3.381   3.858  1.0621  0.6978  2.5239
   85SOPE   H7Y 7949   5.802   3.453   3.806  0.5436  0.4430 -0.1639
   85SOPE   C38 7950   5.892   3.539   3.967 -0.2876 -0.6704 -0.2346
   85SOPE   H8X 7951   5.833   3.632   3.982  2.0933  0.7035  1.3829
   85SOPE   H8Y 7952   5.997   3.571   3.988  0.1430 -1.2596 -1.4121
   85SOPE   C39 7953   5.850   3.430   4.069 -0.5350  0.3438 -0.1799
   85SOPE   H9X 7954   5.930   3.354   4.079 -0.7737 -0.3438 -2.7288
   85SOPE   H9Y 7955   5.752   3.384   4.045 -0.1509 -0.5951  0.0165
   85SOPE  C310 7956   5.825   3.501   4.203 -0.0742  0.0916 -0.5421
   85SOPE  H10X 7957   5.763   3.594   4.203  1.1582  1.1648  3.9099
   85SOPE  H10Y 7958   5.921   3.551   4.228  0.1876  0.2261 -1.7380
   85SOPE  C311 7959   5.792   3.399   4.314 -0.8037  0.4160  0.7438
   85SOPE  H11X 7960   5.863   3.314   4.319 -0.0329  1.0380  0.4734
   85SOPE  H11Y 7961   5.689   3.362   4.292 -1.8236  3.4652 -0.0201
   85SOPE  C312 7962   5.796   3.467   4.449 -0.9451  0.0451 -0.4331
   85SOPE  H12X 7963   5.731   3.557   4.455 -0.6143  0.1764  1.8053
   85SOPE  H12Y 7964   5.899   3.492   4.480  0.3036 -3.1855 -1.5181
   85SOPE  C313 7965   5.734   3.367   4.552 -0.3271 -0.4576  0.2768
   85SOPE  H13X 7966   5.784   3.270   4.529 -0.0308  0.1267 -1.6600
   85SOPE  H13Y 7967   5.624   3.374   4.547 -0.3439 -0.3709  0.7241
   85SOPE  C314 7968   5.759   3.407   4.698 -0.6329  0.4327  0.3935
   85SOPE  H14X 7969   5.668   3.390   4.761 -1.1348 -0.4339 -0.5391
   85SOPE  H14Y 7970   5.773   3.517   4.702 -0.1940  0.4023 -0.3046
   85SOPE  C315 7971   5.884   3.324   4.759  0.3142 -0.1003  0.6053
   85SOPE  H15X 7972   5.977   3.375   4.724 -0.9114  0.2799 -2.3519
   85SOPE  H15Y 7973   5.887   3.224   4.710 -1.3655  0.4369 -0.6735
   85SOPE  C316 7974   5.906   3.313   4.912  0.1260 -0.2126 -0.0328
   85SOPE  H16X 7975   5.940   3.415   4.941 -0.4978  0.1341 -0.5017
   85SOPE  H16Y 7976   5.992   3.245   4.930  1.8376  2.4160  2.5631
   85SOPE  C317 7977   5.784   3.271   4.988 -0.6341  0.4077 -0.5654
   85SOPE  H17X 7978   5.756   3.167   4.960 -0.2546  0.1159  0.1071
   85SOPE  H17Y 7979   5.696   3.331   4.957  0.0496  1.0346 -1.3233
   85SOPE  C318 7980   5.803   3.268   5.141  0.2986 -0.3332 -0.0975
   85SOPE  H18X 7981   5.888   3.197   5.150  0.4280 -0.2975 -0.8907
   85SOPE  H18Y 7982   5.715   3.228   5.194 -0.7322 -0.3143 -1.7282
   85SOPE  H18Z 7983   5.834   3.365   5.185  1.3933 -1.3025  1.3752
   86SOPE     N 7984   0.606   0.375   2.718  0.5508 -0.6461 -0.1343
   86SOPE   HN1 7985   0.647   0.325   2.637  0.2354 -1.3405  0.1235
   86SOPE   HN2 7986   0.685   0.390   2.785  0.6972  0.5953 -0.5623
   86SOPE   HN3 7987   0.531   0.317   2.763 -0.4433  0.5378 -0.2015
   86SOPE   C12 7988   0.536   0.500   2.670  0.5513  0.8660  0.2808
   86SOPE  H12A 7989   0.488   0.481   2.571  1.5061  1.6455 -0.3468
   86SOPE  H12B 7990   0.613   0.580   2.670  0.0336  1.4719 -2.7283
   86SOPE   C11 7991   0.429   0.530   2.780 -0.2899 -0.3179 -0.3749
   86SOPE  H11A 7992   0.386   0.630   2.758  0.6999  0.2692  0.2590
   86SOPE  H11B 7993   0.477   0.543   2.879  2.0096 -1.9705 -1.1899
   86SOPE     P 7994   0.180   0.443   2.812 -0.4140  0.1426 -0.2110
   86SOPE   O13 7995   0.128   0.304   2.828  0.3441 -0.2105  0.5753
   86SOPE   O14 7996   0.132   0.522   2.697 -0.1334 -0.3640 -0.1829
   86SOPE   O12 7997   0.337   0.423   2.793  0.1879 -0.2794  0.2516
   86SOPE   O11 7998   0.148   0.514   2.952  0.0941 -0.5839 -0.4029
   86SOPE    C1 7999   0.236   0.484   3.060 -0.1151  0.0188 -0.0479
   86SOPE    HA 8000   0.260   0.577   3.115 -1.6208  1.7559 -2.1630
   86SOPE    HB 8001   0.338   0.448   3.035 -0.3993 -1.0622  0.2864
   86SOPE    C2 8002   0.184   0.378   3.157 -0.0018 -0.6848 -0.3445
   86SOPE    HS 8003   0.118   0.304   3.107  1.3932 -1.2485 -1.4042
   86SOPE   O21 8004   0.109   0.447   3.264 -0.3412 -0.8073 -0.2500
   86SOPE   C21 8005   0.021   0.394   3.336 -0.0460  0.2930  0.3313
   86SOPE   O22 8006  -0.029   0.281   3.319  0.1813 -0.0935 -0.0821
   86SOPE   C22 8007  -0.005   0.486   3.453  0.2843  0.0712 -0.0162
   86SOPE   H2R 8008  -0.115   0.495   3.461  0.1549 -0.6590 -0.7701
   86SOPE   H2S 8009   0.053   0.578   3.431 -1.1693  0.4100 -2.7679
   86SOPE    C3 8010   0.298   0.289   3.215  0.5491 -0.3669 -0.3790
   86SOPE    HX 8011   0.367   0.371   3.244 -0.3169 -0.2619  1.5348
   86SOPE    HY 8012   0.354   0.229   3.140 -0.4380 -0.3071 -1.1870
   86SOPE   O31 8013   0.264   0.214   3.329  0.2612  0.0862 -0.0207
   86SOPE   C31 8014   0.228   0.087   3.297 -0.4494  0.1706 -0.2378
   86SOPE   O32 8015   0.189   0.049   3.190 -0.5217 -0.4568  0.1407
   86SOPE   C32 8016   0.244  -0.006   3.418  0.4080  0.2965 -0.2149
   86SOPE   H2X 8017   0.355  -0.008   3.428  0.3643  2.5338  1.3993
   86SOPE   H2Y 8018   0.198  -0.105   3.395 -0.4966 -0.1664  3.1191
   86SOPE   C23 8019   0.037   0.409   3.576 -0.4452  0.1381 -0.5776
   86SOPE   H3R 8020   0.147   0.398   3.573 -0.0765  1.6699  2.8643
   86SOPE   H3S 8021  -0.010   0.308   3.571 -1.0994  0.4447 -0.7796
   86SOPE   C24 8022  -0.022   0.470   3.709  0.1100 -0.4288  0.2760
   86SOPE   H4R 8023  -0.033   0.580   3.699 -0.0938 -0.4278  0.5227
   86SOPE   H4S 8024  -0.127   0.435   3.720 -0.4541  0.8839 -0.6832
   86SOPE   C25 8025   0.062   0.412   3.824 -0.3783 -0.0834  0.3086
   86SOPE   H5R 8026   0.078   0.305   3.797 -2.5444  0.0680 -1.8827
   86SOPE   H5S 8027   0.161   0.462   3.824 -0.1249 -0.5769  0.2302
   86SOPE   C26 8028   0.000   0.422   3.962  0.2658 -0.1201  0.1157
   86SOPE   H6R 8029  -0.019   0.528   3.989 -1.8237 -0.2146 -0.7801
   86SOPE   H6S 8030  -0.099   0.373   3.965 -1.0586  2.4206  0.4898
   86SOPE   C27 8031   0.090   0.377   4.077  0.0724 -0.1553 -0.1774
   86SOPE   H7R 8032   0.115   0.270   4.068  3.0744  0.5121 -0.7252
   86SOPE   H7S 8033   0.189   0.425   4.063  0.6338 -0.2988  2.7128
   86SOPE   C28 8034   0.028   0.400   4.221  0.4679  0.0954 -0.2887
   86SOPE   H8R 8035  -0.006   0.505   4.232 -1.5648 -0.3949 -1.4420
   86SOPE   H8S 8036  -0.068   0.345   4.228  0.9323 -0.7931 -0.7554
   86SOPE   C29 8037   0.118   0.361   4.329 -0.1707  0.5905 -0.6912
   86SOPE   H91 8038   0.219   0.405   4.327  0.1469  0.5806  4.0460
   86SOPE  C210 8039   0.087   0.272   4.429 -0.2091 -0.7746  0.7009
   86SOPE  H101 8040   0.164   0.246   4.503  0.8471 -1.8880 -0.7386
   86SOPE  C211 8041  -0.046   0.209   4.457 -0.9876  0.3924 -0.0493
   86SOPE  H11R 8042  -0.035   0.115   4.515  0.9098 -1.4628 -3.0835
   86SOPE  H11S 8043  -0.105   0.192   4.363 -0.9640  1.6857 -0.3054
   86SOPE  C212 8044  -0.148   0.291   4.532 -0.6536 -0.4207  0.2702
   86SOPE  H12R 8045  -0.237   0.226   4.547  1.2179 -3.1059  0.3244
   86SOPE  H12S 8046  -0.189   0.372   4.467 -3.3663 -2.9936 -1.5444
   86SOPE  C213 8047  -0.096   0.355   4.660 -0.4490  0.1650 -0.5711
   86SOPE  H13R 8048  -0.176   0.424   4.691  0.9089  1.8016 -0.5856
   86SOPE  H13S 8049  -0.007   0.421   4.650 -0.3992  0.3726  0.9430
   86SOPE  C214 8050  -0.048   0.245   4.761  0.1118  0.0226 -0.3458
   86SOPE  H14R 8051   0.058   0.217   4.744  0.4268 -0.5626  2.1645
   86SOPE  H14S 8052  -0.116   0.157   4.761  0.8658 -0.5826  0.9946
   86SOPE  C215 8053  -0.051   0.284   4.910  0.2498  0.7740 -0.2300
   86SOPE  H15R 8054  -0.141   0.343   4.939  0.9930  2.8393 -1.8619
   86SOPE  H15S 8055   0.039   0.344   4.932  1.4756 -1.0319 -0.1718
   86SOPE  C216 8056  -0.056   0.155   5.006 -0.1590  0.0110  0.7351
   86SOPE  H16R 8057  -0.154   0.104   4.995  0.7258 -1.7345  0.5523
   86SOPE  H16S 8058  -0.045   0.184   5.112  0.5807 -0.6118  0.8389
   86SOPE  C217 8059   0.052   0.055   4.968 -0.0448 -0.3058 -0.0903
   86SOPE  H17R 8060   0.154   0.098   4.974  0.9642 -2.7325  1.7087
   86SOPE  H17S 8061   0.042   0.018   4.864 -0.6682  1.1502 -0.5729
   86SOPE  C218 8062   0.049  -0.070   5.056 -0.1312  0.1884  0.1725
   86SOPE  H18R 8063   0.067  -0.069   5.166 -1.9199 -0.9339  0.5103
   86SOPE  H18S 8064   0.135  -0.132   5.025  0.2976  0.6939  0.3298
   86SOPE  H18T 8065  -0.043  -0.129   5.035 -2.1550  2.2924  2.4359
   86SOPE   C33 8066   0.184   0.054   3.551 -0.9456  0.3079 -1.0301
   86SOPE   H3X 8067   0.075   0.070   3.540 -1.2416  1.9356  2.8981
   86SOPE   H3Y 8068   0.231   0.153   3.570 -0.6220 -0.0277 -0.0510
   86SOPE   C34 8069   0.200  -0.038   3.676 -0.1926  0.4205 -0.6726
   86SOPE   H4X 8070   0.301  -0.083   3.665 -0.5301 -0.3970 -0.5403
   86SOPE   H4Y 8071   0.125  -0.120   3.670 -0.1643  0.3401  0.0628
   86SOPE   C35 8072   0.196   0.040   3.810 -0.0727 -0.5199 -0.5501
   86SOPE   H5X 8073   0.094   0.064   3.846  0.1038  1.4908 -1.2551
   86SOPE   H5Y 8074   0.229   0.145   3.795  0.1626 -0.1221  2.3125
   86SOPE   C36 8075   0.280  -0.027   3.922 -0.2412  0.5766 -0.1089
   86SOPE   H6X 8076   0.387  -0.048   3.900  0.1129  0.0201  1.9316
   86SOPE   H6Y 8077   0.240  -0.130   3.934 -1.4756  1.1636  1.1850
   86SOPE   C37 8078   0.244   0.035   4.050  0.0836 -0.6091  0.0061
   86SOPE   H7X 8079   0.135   0.052   4.062  0.4813  2.7541 -0.0775
   86SOPE   H7Y 8080   0.280   0.138   4.071 -0.2550 -0.3625 -0.6053
   86SOPE   C38 8081   0.278  -0.059   4.159  0.3811  0.3998 -0.3058
   86SOPE   H8X 8082   0.382  -0.084   4.129 -0.2801 -0.0574 -2.3531
   86SOPE   H8Y 8083   0.219  -0.153   4.155 -0.6112  1.0483 -1.3237
   86SOPE   C39 8084   0.265   0.002   4.301 -0.8506 -0.1619  0.4801
   86SOPE   H9X 8085   0.163   0.046   4.310 -0.2635  1.9291 -1.7214
   86SOPE   H9Y 8086   0.329   0.092   4.291  0.9105 -1.5671 -1.9371
   86SOPE  C310 8087   0.308  -0.088   4.415  0.1484 -0.8474 -0.6549
   86SOPE  H10X 8088   0.407  -0.137   4.398  0.1112 -0.8649 -0.8266
   86SOPE  H10Y 8089   0.228  -0.156   4.451 -0.5357  1.0255  1.5896
   86SOPE  C311 8090   0.337  -0.007   4.534 -0.0932 -0.2707 -0.5683
   86SOPE  H11X 8091   0.244   0.048   4.565 -1.4211 -2.6841 -0.0211
   86SOPE  H11Y 8092   0.402   0.079   4.505  0.0400 -0.1216  0.1514
   86SOPE  C312 8093   0.398  -0.074   4.654 -0.0877  0.3586 -0.2968
   86SOPE  H12X 8094   0.496  -0.120   4.633 -0.2079 -0.0649  0.0567
   86SOPE  H12Y 8095   0.330  -0.155   4.689  1.1461 -0.9160 -0.7548
   86SOPE  C313 8096   0.427   0.026   4.766  0.5363 -0.3673 -0.1239
   86SOPE  H13X 8097   0.341   0.096   4.759  1.4078  0.8092  0.7783
   86SOPE  H13Y 8098   0.516   0.089   4.750 -1.1349  1.7537 -1.6527
   86SOPE  C314 8099   0.436  -0.033   4.904  0.7278  0.6221 -0.2006
   86SOPE  H14X 8100   0.514  -0.111   4.915  0.4973  0.3018 -0.8073
   86SOPE  H14Y 8101   0.347  -0.092   4.934  2.9387 -2.6867  0.3254
   86SOPE  C315 8102   0.466   0.074   5.013  0.3821  0.3920  0.5663
   86SOPE  H15X 8103   0.432   0.177   4.990  1.9820  0.5605 -1.3829
   86SOPE  H15Y 8104   0.576   0.071   5.031  0.1265 -2.6239  2.3210
   86SOPE  C316 8105   0.410   0.022   5.146  0.1505 -0.4023  0.3475
   86SOPE  H16X 8106   0.449  -0.082   5.153  1.6925  0.1400  0.1508
   86SOPE  H16Y 8107   0.299   0.018   5.142  0.1187  0.0102  0.7354
   86SOPE  C317 8108   0.460   0.097   5.269 -0.0797 -0.1218 -0.4637
   86SOPE  H17X 8109   0.436   0.205   5.273 -0.1903 -0.1029 -1.3804
   86SOPE  H17Y 8110   0.571   0.094   5.269  0.0179  1.8771  0.2279
   86SOPE  C318 8111   0.413   0.026   5.391  0.2385  0.2137 -0.4696
   86SOPE  H18X 8112   0.462   0.071   5.480 -2.6338 -0.7529  1.7924
   86SOPE  H18Y 8113   0.433  -0.083   5.391  0.1199  0.1794  0.6932
   86SOPE  H18Z 8114   0.303   0.033   5.410  0.0111 -0.5574 -1.4197
   87SOPE     N 8115   1.389   5.165   2.231  0.7144  0.2403 -0.0900
   87SOPE   HN1 8116   1.449   5.245   2.259 -2.2997  2.3042  0.9603
   87SOPE   HN2 8117   1.413   5.075   2.278 -0.5076  0.6701  1.4487
   87SOPE   HN3 8118   1.397   5.157   2.128  2.7227  2.2485 -0.1512
   87SOPE   C12 8119   1.246   5.208   2.277  0.3949 -0.3118  0.1789
   87SOPE  H12A 8120   1.249   5.209   2.388 -0.6353  0.8165  0.2159
   87SOPE  H12B 8121   1.176   5.126   2.248 -0.8090 -0.0951  2.2891
   87SOPE   C11 8122   1.207   5.344   2.215  0.7471 -0.6538 -0.1787
   87SOPE  H11A 8123   1.105   5.362   2.254  1.1294  1.2521  0.0289
   87SOPE  H11B 8124   1.189   5.333   2.105  1.4248 -1.7795 -0.1999
   87SOPE     P 8125   1.292   5.528   2.384 -0.2400  0.2447  0.3294
   87SOPE   O13 8126   1.162   5.590   2.402  0.1730  0.2100 -0.7002
   87SOPE   O14 8127   1.404   5.621   2.389  0.5628 -0.0854  0.3128
   87SOPE   O12 8128   1.304   5.440   2.254  0.3189  0.3236  0.3301
   87SOPE   O11 8129   1.321   5.422   2.494  0.0572  0.2356 -0.0210
   87SOPE    C1 8130   1.233   5.406   2.606 -0.6515 -0.3894  0.1009
   87SOPE    HA 8131   1.162   5.321   2.605  0.8781 -1.7731  2.0253
   87SOPE    HB 8132   1.162   5.491   2.615  1.0928  1.1607 -0.1886
   87SOPE    C2 8133   1.315   5.393   2.738 -0.4979  0.3920 -0.3587
   87SOPE    HS 8134   1.236   5.365   2.812 -1.9625 -0.3269 -2.1303
   87SOPE   O21 8135   1.404   5.503   2.766  1.0153  0.3176 -0.2527
   87SOPE   C21 8136   1.341   5.594   2.835  0.5927 -0.4322  0.0792
   87SOPE   O22 8137   1.222   5.596   2.871  0.1071 -0.0024  0.6652
   87SOPE   C22 8138   1.448   5.692   2.877  0.0328 -0.1375 -0.8916
   87SOPE   H2R 8139   1.449   5.779   2.808 -0.5438  1.1089  0.6118
   87SOPE   H2S 8140   1.543   5.637   2.860 -0.8205 -2.2092  0.6733
   87SOPE    C3 8141   1.405   5.264   2.734  0.6921 -0.3367  0.2956
   87SOPE    HX 8142   1.470   5.274   2.644  0.8375 -0.4525  0.3858
   87SOPE    HY 8143   1.344   5.173   2.718  1.1601 -0.2587 -2.2351
   87SOPE   O31 8144   1.478   5.258   2.865 -0.8188 -0.0403  0.6388
   87SOPE   C31 8145   1.603   5.305   2.853  0.6487 -0.4015 -0.0052
   87SOPE   O32 8146   1.668   5.309   2.752 -0.1796  0.4890 -0.0118
   87SOPE   C32 8147   1.661   5.349   2.994  0.5307  0.5288 -0.4013
   87SOPE   H2X 8148   1.589   5.401   3.061  0.5018  3.0030 -2.1929
   87SOPE   H2Y 8149   1.746   5.418   2.975  1.4592 -1.0485 -2.2867
   87SOPE   C23 8150   1.432   5.726   3.031  0.6537  0.2286 -0.0266
   87SOPE   H3R 8151   1.517   5.780   3.077  0.0083  2.3374 -1.1910
   87SOPE   H3S 8152   1.414   5.633   3.090  0.7361  0.8853  1.0593
   87SOPE   C24 8153   1.312   5.812   3.070  0.2280  0.1382  0.4467
   87SOPE   H4R 8154   1.292   5.889   2.992 -0.2514  3.7977  3.8420
   87SOPE   H4S 8155   1.221   5.748   3.064  0.6128 -0.3003 -1.0638
   87SOPE   C25 8156   1.314   5.875   3.209  0.1098 -1.0055 -0.1840
   87SOPE   H5R 8157   1.212   5.852   3.246 -0.5955 -0.9783 -1.9941
   87SOPE   H5S 8158   1.381   5.822   3.280  1.1712  2.3162  1.4516
   87SOPE   C26 8159   1.337   6.026   3.214  0.0289  0.5915  0.0280
   87SOPE   H6R 8160   1.443   6.053   3.191  0.1048  0.8621  0.6845
   87SOPE   H6S 8161   1.279   6.078   3.135 -0.0524  0.4228 -0.0236
   87SOPE   C27 8162   1.301   6.080   3.346  0.4547 -0.3723  0.0641
   87SOPE   H7R 8163   1.292   6.189   3.328  0.3433 -0.3658  0.1617
   87SOPE   H7S 8164   1.202   6.044   3.381  0.2289 -1.3254 -1.4751
   87SOPE   C28 8165   1.412   6.059   3.449 -0.3483 -0.1294  0.4148
   87SOPE   H8R 8166   1.403   5.953   3.481 -1.5976  0.3061  1.6046
   87SOPE   H8S 8167   1.509   6.078   3.399 -0.4587 -0.9121 -0.1227
   87SOPE   C29 8168   1.406   6.146   3.573 -0.2881 -0.1611  0.2259
   87SOPE   H91 8169   1.407   6.254   3.551 -1.0593  0.6120  3.5341
   87SOPE  C210 8170   1.392   6.114   3.702  1.3628  0.1536  0.1343
   87SOPE  H101 8171   1.394   6.193   3.778 -0.2921  1.0529 -0.7150
   87SOPE  C211 8172   1.397   5.972   3.763 -0.0780 -0.7293 -0.3261
   87SOPE  H11R 8173   1.493   5.956   3.817 -0.2192  0.7157  0.3940
   87SOPE  H11S 8174   1.390   5.900   3.679  0.2360 -0.7934 -0.2976
   87SOPE  C212 8175   1.292   5.947   3.874 -0.1116 -0.4010  0.3068
   87SOPE  H12R 8176   1.192   5.935   3.826 -0.0682  0.6985 -0.0951
   87SOPE  H12S 8177   1.279   6.040   3.933  0.3805  0.2325 -0.5581
   87SOPE  C213 8178   1.325   5.837   3.971 -0.6888 -0.6653 -0.4547
   87SOPE  H13R 8179   1.411   5.872   4.032  0.0057  1.1758 -2.3898
   87SOPE  H13S 8180   1.367   5.752   3.912  1.5062 -0.3626  0.5497
   87SOPE  C214 8181   1.212   5.782   4.052  0.5796  0.3578  0.1822
   87SOPE  H14R 8182   1.129   5.741   3.991 -0.6845  0.1958  1.9280
   87SOPE  H14S 8183   1.168   5.863   4.114  2.2022  1.9395 -0.6353
   87SOPE  C215 8184   1.263   5.665   4.137  0.2540 -1.0286 -0.3536
   87SOPE  H15R 8185   1.334   5.715   4.206  1.2348 -2.9627  0.1202
   87SOPE  H15S 8186   1.323   5.593   4.077  1.2595 -0.1296 -0.4597
   87SOPE  C216 8187   1.154   5.594   4.212  0.4968  0.5927  0.0274
   87SOPE  H16R 8188   1.095   5.533   4.141  0.4500 -1.2963  1.6107
   87SOPE  H16S 8189   1.091   5.666   4.269  0.4543  0.1562  0.5422
   87SOPE  C217 8190   1.207   5.498   4.317 -0.4091  0.2187 -0.3137
   87SOPE  H17R 8191   1.268   5.555   4.390  1.2217 -3.7312  1.6991
   87SOPE  H17S 8192   1.269   5.410   4.290  0.5298 -0.7656  4.1491
   87SOPE  C218 8193   1.090   5.447   4.413 -0.6647  0.6029 -0.3026
   87SOPE  H18R 8194   1.050   5.540   4.458  1.4278 -0.1435  3.4687
   87SOPE  H18S 8195   1.135   5.391   4.498 -0.0515  0.8359 -0.4653
   87SOPE  H18T 8196   1.019   5.385   4.355  1.6048 -0.7634 -1.7694
   87SOPE   C33 8197   1.724   5.222   3.055 -0.0321 -0.3163 -0.1086
   87SOPE   H3X 8198   1.788   5.185   2.972 -1.4015 -0.8649 -0.9588
   87SOPE   H3Y 8199   1.642   5.150   3.077 -2.1611  2.5116  2.0630
   87SOPE   C34 8200   1.814   5.242   3.181 -0.4291  0.1994  0.7572
   87SOPE   H4X 8201   1.888   5.322   3.160 -0.4603  0.7172  2.4483
   87SOPE   H4Y 8202   1.863   5.145   3.203 -2.2773 -0.3937  2.6298
   87SOPE   C35 8203   1.727   5.287   3.295 -0.2725  0.1822  0.0584
   87SOPE   H5X 8204   1.663   5.373   3.268  0.6369  1.4457  1.7761
   87SOPE   H5Y 8205   1.788   5.325   3.380 -0.3031  1.4575 -0.4691
   87SOPE   C36 8206   1.631   5.179   3.337  0.4287 -0.2143  0.0757
   87SOPE   H6X 8207   1.688   5.084   3.340  1.7049  0.5207 -0.0995
   87SOPE   H6Y 8208   1.554   5.169   3.257  1.1146 -2.3502 -0.3687
   87SOPE   C37 8209   1.564   5.213   3.473  0.3174  0.9072 -0.6028
   87SOPE   H7X 8210   1.471   5.153   3.480 -0.0633  1.3386 -1.8462
   87SOPE   H7Y 8211   1.534   5.319   3.480  0.9588  0.9737  2.5191
   87SOPE   C38 8212   1.662   5.197   3.591 -0.2049  0.3170  0.3809
   87SOPE   H8X 8213   1.744   5.271   3.585 -0.8588  1.2971  2.5179
   87SOPE   H8Y 8214   1.713   5.098   3.586  2.2140  1.5187  0.1350
   87SOPE   C39 8215   1.587   5.193   3.727  1.3724 -0.5764  0.2191
   87SOPE   H9X 8216   1.519   5.105   3.729  1.6984 -0.8422  2.4992
   87SOPE   H9Y 8217   1.542   5.295   3.727  0.1246 -1.0962 -1.2409
   87SOPE  C310 8218   1.676   5.176   3.850  0.3027 -0.5032 -0.5177
   87SOPE  H10X 8219   1.763   5.246   3.854  0.8691 -1.2352  2.3844
   87SOPE  H10Y 8220   1.724   5.076   3.849 -0.2500 -0.7924  0.6422
   87SOPE  C311 8221   1.604   5.201   3.980  0.5949 -0.2011 -0.0043
   87SOPE  H11X 8222   1.523   5.125   3.979  1.2904 -0.9576 -0.3112
   87SOPE  H11Y 8223   1.559   5.302   3.983  0.6597 -0.1802  2.4951
   87SOPE  C312 8224   1.680   5.178   4.105  0.1115  0.6512 -0.3677
   87SOPE  H12X 8225   1.762   5.249   4.126  1.2798 -0.9012  0.5585
   87SOPE  H12Y 8226   1.737   5.084   4.090  0.0183  0.7141 -1.1587
   87SOPE  C313 8227   1.591   5.166   4.229  0.1968 -0.8005 -0.4412
   87SOPE  H13X 8228   1.527   5.076   4.219  1.6987 -2.0738  0.7745
   87SOPE  H13Y 8229   1.533   5.260   4.230  2.2562  0.5674 -1.7061
   87SOPE  C314 8230   1.682   5.151   4.352  0.7469  0.1942  0.9219
   87SOPE  H14X 8231   1.750   5.238   4.364  0.2100  0.5593  1.3321
   87SOPE  H14Y 8232   1.742   5.057   4.351 -2.3080 -1.9288 -0.5349
   87SOPE  C315 8233   1.613   5.138   4.486  0.2682  0.1244  0.2792
   87SOPE  H15X 8234   1.689   5.136   4.566  1.0677 -3.7917 -0.3591
   87SOPE  H15Y 8235   1.559   5.041   4.491  1.7267 -0.8137 -1.1467
   87SOPE  C316 8236   1.510   5.242   4.505  0.1251 -0.3925  0.1765
   87SOPE  H16X 8237   1.439   5.234   4.420 -1.1764 -0.5598  1.2485
   87SOPE  H16Y 8238   1.567   5.337   4.501  0.0187 -0.3012  0.7728
   87SOPE  C317 8239   1.437   5.232   4.642  0.2151  0.0673  0.3767
   87SOPE  H17X 8240   1.373   5.319   4.669  0.0501 -0.2124  0.9038
   87SOPE  H17Y 8241   1.520   5.221   4.714 -0.2866 -1.5098  0.7455
   87SOPE  C318 8242   1.334   5.112   4.645  0.1663 -0.4708  0.0272
   87SOPE  H18X 8243   1.237   5.134   4.595 -0.7080  1.3684  2.3056
   87SOPE  H18Y 8244   1.307   5.094   4.752  0.3328 -0.9084 -0.0022
   87SOPE  H18Z 8245   1.380   5.018   4.609 -0.2051  0.1617 -2.2394
   88SOPE     N 8246   2.982   5.717   2.551  0.9829  0.1759 -0.3258
   88SOPE   HN1 8247   2.984   5.671   2.459  0.1052 -0.0059 -0.2665
   88SOPE   HN2 8248   2.980   5.644   2.626 -0.6330  0.0235 -0.4759
   88SOPE   HN3 8249   2.893   5.772   2.550  0.3847 -0.7404  0.3780
   88SOPE   C12 8250   3.097   5.810   2.569  0.5078  0.5151  0.8874
   88SOPE  H12A 8251   3.084   5.878   2.656 -0.3744 -0.6972  1.7308
   88SOPE  H12B 8252   3.106   5.871   2.477 -0.2989  2.1459  1.8519
   88SOPE   C11 8253   3.223   5.724   2.581  0.1443 -0.2026  0.1868
   88SOPE  H11A 8254   3.299   5.802   2.604  1.4603 -1.4845  0.3545
   88SOPE  H11B 8255   3.253   5.683   2.483  1.2106  1.3520 -0.1753
   88SOPE     P 8256   3.333   5.524   2.718  0.2536  0.1737  0.1738
   88SOPE   O13 8257   3.461   5.593   2.713  0.2167 -0.4563  0.0753
   88SOPE   O14 8258   3.314   5.401   2.631 -0.3129  0.3026  0.0908
   88SOPE   O12 8259   3.217   5.618   2.677  0.5732 -0.0936 -0.0700
   88SOPE   O11 8260   3.300   5.491   2.868 -0.1516  0.0190  0.1582
   88SOPE    C1 8261   3.252   5.604   2.944  0.5275 -0.2367  0.0363
   88SOPE    HA 8262   3.146   5.625   2.920  0.9284  1.5049 -0.3296
   88SOPE    HB 8263   3.309   5.698   2.932 -2.6803  2.3523  3.0019
   88SOPE    C2 8264   3.274   5.576   3.098  0.5045  0.1076  0.8477
   88SOPE    HS 8265   3.381   5.552   3.114  0.6391  0.5613  0.6235
   88SOPE   O21 8266   3.180   5.468   3.132 -0.7967 -0.3019 -0.2292
   88SOPE   C21 8267   3.244   5.363   3.191 -0.6819 -0.9363  0.0971
   88SOPE   O22 8268   3.366   5.346   3.198  0.1074 -0.4302  0.1270
   88SOPE   C22 8269   3.134   5.265   3.236 -0.1824  0.6681 -0.4617
   88SOPE   H2R 8270   3.071   5.230   3.151 -1.1464  0.2876  0.3783
   88SOPE   H2S 8271   3.058   5.313   3.302  0.9576  0.7050  0.8574
   88SOPE    C3 8272   3.245   5.708   3.180  0.2819  0.3948  0.0234
   88SOPE    HX 8273   3.137   5.722   3.159  0.6803  1.7930 -1.3479
   88SOPE    HY 8274   3.307   5.790   3.137  2.0479 -0.6549  0.5030
   88SOPE   O31 8275   3.273   5.684   3.322 -0.0929  0.0177 -0.0204
   88SOPE   C31 8276   3.174   5.675   3.407  0.3609  0.3405 -0.2525
   88SOPE   O32 8277   3.059   5.691   3.381  0.1285  0.0221 -0.5447
   88SOPE   C32 8278   3.235   5.662   3.544 -0.3218  0.7824 -0.1846
   88SOPE   H2X 8279   3.304   5.749   3.552  0.4172  0.1218  1.0902
   88SOPE   H2Y 8280   3.284   5.563   3.554  0.6262  1.2528 -0.0832
   88SOPE   C23 8281   3.183   5.137   3.317 -0.3222  0.7829 -0.6078
   88SOPE   H3R 8282   3.293   5.126   3.307 -0.2340 -0.2548  1.2005
   88SOPE   H3S 8283   3.134   5.047   3.274 -0.0081  1.9707 -3.7127
   88SOPE   C24 8284   3.146   5.137   3.468  0.2072  0.2710  0.1977
   88SOPE   H4R 8285   3.036   5.125   3.466  0.1712  0.2473 -2.7098
   88SOPE   H4S 8286   3.200   5.050   3.511 -1.4005 -0.3982  0.9131
   88SOPE   C25 8287   3.198   5.249   3.551  0.3189  0.0753  0.0597
   88SOPE   H5R 8288   3.147   5.345   3.529 -0.0945 -0.2200 -0.2784
   88SOPE   H5S 8289   3.166   5.229   3.655 -0.5408  0.9956 -0.0171
   88SOPE   C26 8290   3.351   5.255   3.558 -0.0307  0.5671 -0.2966
   88SOPE   H6R 8291   3.387   5.244   3.454  0.2200  0.2968 -0.1846
   88SOPE   H6S 8292   3.390   5.353   3.592  0.6159  1.4103 -3.1892
   88SOPE   C27 8293   3.405   5.138   3.637 -1.1284  0.0293  0.5385
   88SOPE   H7R 8294   3.380   5.039   3.593 -1.4268 -1.8582  4.4855
   88SOPE   H7S 8295   3.516   5.138   3.638 -0.9494  3.9518 -1.4177
   88SOPE   C28 8296   3.362   5.101   3.787 -0.3287 -0.5353  0.4918
   88SOPE   H8R 8297   3.256   5.068   3.791 -0.3065 -0.8054 -0.7409
   88SOPE   H8S 8298   3.424   5.019   3.828  2.7191  1.5228  0.2598
   88SOPE   C29 8299   3.379   5.223   3.873 -0.6927  0.0186 -0.4681
   88SOPE   H91 8300   3.469   5.283   3.856 -0.2038 -0.2976  0.8346
   88SOPE  C210 8301   3.297   5.269   3.974  0.3964  0.0118  0.1633
   88SOPE  H101 8302   3.314   5.368   4.019 -1.2272  1.3248 -1.8686
   88SOPE  C211 8303   3.174   5.191   4.028  0.5516 -0.6041  0.2148
   88SOPE  H11R 8304   3.160   5.092   3.981 -0.8120 -0.7187  0.8185
   88SOPE  H11S 8305   3.080   5.248   4.012  1.4529  1.0924  0.7014
   88SOPE  C212 8306   3.175   5.148   4.175  0.1729  0.4947  0.4746
   88SOPE  H12R 8307   3.273   5.114   4.215 -0.0223  0.9939  1.3896
   88SOPE  H12S 8308   3.114   5.055   4.177  2.0691 -1.0881 -3.4000
   88SOPE  C213 8309   3.121   5.260   4.264 -0.0502 -0.1301 -0.0443
   88SOPE  H13R 8310   3.030   5.305   4.218 -0.1437 -0.1378  0.1312
   88SOPE  H13S 8311   3.198   5.340   4.257  0.8375 -0.6849  2.4515
   88SOPE  C214 8312   3.088   5.229   4.410 -0.4345  0.4066 -0.1591
   88SOPE  H14R 8313   3.027   5.137   4.425  0.3130  0.1475  1.4766
   88SOPE  H14S 8314   3.036   5.323   4.439  2.5506  2.5867 -1.4236
   88SOPE  C215 8315   3.213   5.216   4.497  0.3170  0.1043 -0.3551
   88SOPE  H15R 8316   3.275   5.307   4.480 -1.5351  1.4801  0.0427
   88SOPE  H15S 8317   3.268   5.127   4.459  1.1104 -0.1103  1.2319
   88SOPE  C216 8318   3.190   5.197   4.645  0.3350 -0.1052  1.1330
   88SOPE  H16R 8319   3.282   5.163   4.697  0.9745 -0.6873 -0.3184
   88SOPE  H16S 8320   3.119   5.113   4.660  0.9576 -0.2521  3.7047
   88SOPE  C217 8321   3.144   5.321   4.720 -0.5488  0.3701  0.2326
   88SOPE  H17R 8322   3.058   5.351   4.656  0.4383  0.2898 -1.1895
   88SOPE  H17S 8323   3.225   5.397   4.716 -0.7752  0.5937 -0.2016
   88SOPE  C218 8324   3.099   5.289   4.865  0.3953  0.1792 -0.4056
   88SOPE  H18R 8325   3.179   5.242   4.926 -0.9947  0.0790  1.4236
   88SOPE  H18S 8326   3.015   5.217   4.864  0.2032  0.3146  1.7898
   88SOPE  H18T 8327   3.071   5.379   4.924 -0.3362 -1.3057  1.6140
   88SOPE   C33 8328   3.130   5.657   3.651 -0.1526  0.4141  0.9488
   88SOPE   H3X 8329   3.067   5.569   3.627  0.1619  1.0242 -2.5784
   88SOPE   H3Y 8330   3.069   5.748   3.665 -1.7355 -0.0818 -1.9313
   88SOPE   C34 8331   3.203   5.632   3.781 -0.1764  0.0950  0.3211
   88SOPE   H4X 8332   3.279   5.713   3.788 -0.3015  0.3225 -0.8242
   88SOPE   H4Y 8333   3.251   5.532   3.778 -0.4653 -0.0267 -0.5658
   88SOPE   C35 8334   3.118   5.650   3.909  0.4283  0.8098 -0.1940
   88SOPE   H5X 8335   3.046   5.566   3.919  0.7728  0.6244  0.9255
   88SOPE   H5Y 8336   3.059   5.742   3.890 -1.9211 -0.9365 -1.8756
   88SOPE   C36 8337   3.195   5.659   4.045 -0.2528 -0.6399 -0.0641
   88SOPE   H6X 8338   3.246   5.758   4.040 -2.7293  0.6825 -0.7295
   88SOPE   H6Y 8339   3.272   5.580   4.042  1.5552  1.0591 -0.3309
   88SOPE   C37 8340   3.105   5.650   4.170 -0.0916 -0.4580 -0.3593
   88SOPE   H7X 8341   3.038   5.562   4.167 -0.1582 -0.4274  0.1313
   88SOPE   H7Y 8342   3.038   5.739   4.172 -0.1688 -0.4273  3.5201
   88SOPE   C38 8343   3.178   5.670   4.299  0.4812 -0.0844 -0.4835
   88SOPE   H8X 8344   3.242   5.761   4.298  1.3034 -0.6503 -0.0609
   88SOPE   H8Y 8345   3.240   5.579   4.314 -0.3465 -0.7683 -1.0987
   88SOPE   C39 8346   3.083   5.676   4.418 -0.4270  0.0421 -0.0269
   88SOPE   H9X 8347   3.021   5.584   4.409 -0.7650  0.2495  0.1763
   88SOPE   H9Y 8348   3.020   5.765   4.436 -0.6539 -0.3189  1.0226
   88SOPE  C310 8349   3.170   5.665   4.549  0.2149  0.1927 -0.8285
   88SOPE  H10X 8350   3.260   5.730   4.556 -0.4320  0.9424  1.3972
   88SOPE  H10Y 8351   3.208   5.561   4.541  0.7402  0.3301 -0.2000
   88SOPE  C311 8352   3.079   5.680   4.678 -0.3246 -0.0469  0.7779
   88SOPE  H11X 8353   3.132   5.629   4.761 -0.7989 -1.6959  0.1131
   88SOPE  H11Y 8354   2.987   5.620   4.661  1.5379 -2.6098 -1.0872
   88SOPE  C312 8355   3.044   5.825   4.718  0.7427 -0.8067 -0.1716
   88SOPE  H12X 8356   2.972   5.809   4.802  1.1432 -2.5972 -0.1267
   88SOPE  H12Y 8357   2.979   5.867   4.639 -0.0192 -1.3083  0.1733
   88SOPE  C313 8358   3.163   5.917   4.740  0.1617  0.9295  0.3339
   88SOPE  H13X 8359   3.202   5.934   4.637 -1.3431  1.5852 -0.1581
   88SOPE  H13Y 8360   3.242   5.869   4.801 -0.7510  0.2271  0.9803
   88SOPE  C314 8361   3.107   6.044   4.786 -0.3856  0.3085 -0.9263
   88SOPE  H14X 8362   3.020   6.064   4.720 -3.9184 -3.7249  1.9489
   88SOPE  H14Y 8363   3.196   6.109   4.769  2.2951 -2.5663  1.0167
   88SOPE  C315 8364   3.063   6.050   4.935 -0.2264  0.2225 -0.1757
   88SOPE  H15X 8365   2.974   5.986   4.950 -1.1369  1.3072 -0.7997
   88SOPE  H15Y 8366   3.036   6.155   4.961  0.0452  0.4517 -0.7954
   88SOPE  C316 8367   3.177   6.024   5.027 -0.1141 -0.3226  0.4448
   88SOPE  H16X 8368   3.268   6.078   4.992  0.3106 -0.5034  1.2497
   88SOPE  H16Y 8369   3.195   5.915   5.033 -1.7761 -1.2147 -4.8923
   88SOPE  C317 8370   3.138   6.070   5.163  0.3304  0.3386  0.3487
   88SOPE  H17X 8371   3.038   6.027   5.185  1.2135 -1.1874  1.5252
   88SOPE  H17Y 8372   3.131   6.180   5.175  0.4017  0.2477  1.2791
   88SOPE  C318 8373   3.219   5.999   5.274 -0.2697  1.3308 -0.7358
   88SOPE  H18X 8374   3.327   6.024   5.279  0.0989 -0.3439  0.7872
   88SOPE  H18Y 8375   3.213   5.888   5.265 -0.7313  0.9924  2.3444
   88SOPE  H18Z 8376   3.179   6.044   5.368 -0.5083  3.9552 -2.0029
   89SAPC     N 8377   5.522   5.820   7.573 -0.3330 -0.2106  0.1989
   89SAPC   C12 8378   5.610   5.813   7.449 -0.0800 -0.4236  0.1051
   89SAPC  H12A 8379   5.569   5.877   7.373  0.2223 -1.9670 -1.4148
   89SAPC  H12B 8380   5.605   5.712   7.410 -0.3537 -0.3748  0.0111
   89SAPC   C13 8381   5.561   5.724   7.681  0.2894 -0.1519  0.6289
   89SAPC  H13A 8382   5.488   5.721   7.761 -0.6649 -1.6559 -0.2400
   89SAPC  H13B 8383   5.563   5.623   7.642  1.8687  0.3956 -0.8085
   89SAPC  H13C 8384   5.664   5.746   7.705  0.9593 -1.1070 -1.1863
   89SAPC   C14 8385   5.517   5.955   7.645  0.3288 -0.4384 -0.1778
   89SAPC  H14A 8386   5.456   6.026   7.591 -1.3163 -1.8351 -0.2411
   89SAPC  H14B 8387   5.465   5.961   7.739 -0.1290  1.7885 -0.5305
   89SAPC  H14C 8388   5.619   5.989   7.651  0.0367  0.6373 -1.0733
   89SAPC   C15 8389   5.379   5.794   7.525 -0.2861 -0.3294  0.5482
   89SAPC  H15A 8390   5.311   5.803   7.608 -0.7256 -1.1809  0.2942
   89SAPC  H15B 8391   5.348   5.861   7.446 -0.7689 -0.7301  0.3929
   89SAPC  H15C 8392   5.371   5.695   7.482  0.5856 -0.1542 -0.0398
   89SAPC   C11 8393   5.760   5.853   7.449 -0.4799 -0.1137 -0.5579
   89SAPC  H11A 8394   5.813   5.820   7.357 -1.1442  1.5006 -1.5714
   89SAPC  H11B 8395   5.805   5.807   7.539 -0.0277  0.1444 -0.6483
   89SAPC     P 8396   5.743   6.096   7.361  0.2578  0.0200  0.0117
   89SAPC   O13 8397   5.608   6.144   7.399  0.3444  0.3379 -0.5127
   89SAPC   O14 8398   5.849   6.204   7.361  0.3470  0.6133  0.9636
   89SAPC   O12 8399   5.779   5.991   7.471  0.0113 -0.1522  0.1340
   89SAPC   O11 8400   5.724   6.019   7.235 -0.1028  0.3231  0.2135
   89SAPC    C1 8401   5.822   6.027   7.126 -0.6449 -0.1259 -0.3992
   89SAPC    HA 8402   5.921   6.046   7.173 -0.7614 -3.5300  1.5222
   89SAPC    HB 8403   5.819   5.934   7.065 -1.2727  1.2470 -2.5952
   89SAPC    C2 8404   5.785   6.154   7.035  0.6610  0.3646  0.0879
   89SAPC    HS 8405   5.796   6.241   7.104  2.9291 -0.3021  0.6547
   89SAPC   O21 8406   5.649   6.132   6.999 -0.2246 -0.0949 -0.1305
   89SAPC   C21 8407   5.583   6.239   6.982  0.7817 -0.2077  0.2183
   89SAPC   O22 8408   5.622   6.353   6.984 -0.7114  0.0445 -0.8330
   89SAPC   C22 8409   5.434   6.219   6.956  0.4034 -0.1267  0.3690
   89SAPC   H2R 8410   5.412   6.112   6.977 -0.3483  0.4797  3.2217
   89SAPC   H2S 8411   5.375   6.289   7.019  0.7334 -0.5299  1.1450
   89SAPC    C3 8412   5.867   6.165   6.904  0.1218  0.9273  0.3434
   89SAPC    HX 8413   5.837   6.077   6.843 -0.2081 -0.4005  2.3392
   89SAPC    HY 8414   5.973   6.160   6.934  0.7199 -0.2937 -1.7879
   89SAPC   O31 8415   5.836   6.283   6.822  0.3390  0.8818  0.4161
   89SAPC   C31 8416   5.884   6.396   6.867 -0.8781  0.6152  0.3952
   89SAPC   O32 8417   5.949   6.403   6.970  0.3336  0.0963  0.1100
   89SAPC   C32 8418   5.866   6.513   6.775 -0.3720  0.4985  0.0361
   89SAPC   H2X 8419   5.837   6.598   6.839  2.7824  1.0455  0.9217
   89SAPC   H2Y 8420   5.791   6.497   6.695  0.2298 -1.1974 -0.2434
   89SAPC   C23 8421   5.406   6.242   6.807  0.7078 -1.3895  0.2025
   89SAPC   H3R 8422   5.462   6.325   6.759  0.0365 -0.6986  0.6017
   89SAPC   H3S 8423   5.298   6.268   6.809  1.0828  0.4136 -0.5652
   89SAPC   C24 8424   5.440   6.120   6.719 -0.3742 -0.0665  0.3027
   89SAPC   H4R 8425   5.376   6.117   6.628 -3.0905  0.9912  2.0369
   89SAPC   H4S 8426   5.410   6.030   6.777 -2.6137  0.2472 -0.2753
   89SAPC   C25 8427   5.584   6.104   6.695 -0.4491  0.5929  1.1678
   89SAPC   H5R 8428   5.646   6.047   6.765 -2.4276 -1.3992  1.4044
   89SAPC   C26 8429   5.644   6.142   6.580  0.2573 -0.1818 -0.3183
   89SAPC   H6R 8430   5.754   6.139   6.581  0.2791  0.3751 -0.6214
   89SAPC   C27 8431   5.572   6.218   6.472 -0.2180 -0.1890 -0.7735
   89SAPC   H7R 8432   5.633   6.299   6.428 -2.4314  2.4595  0.6900
   89SAPC   H7S 8433   5.474   6.266   6.496  0.7516  1.2712  0.4183
   89SAPC   C28 8434   5.543   6.121   6.362 -0.1659 -0.1827  0.3307
   89SAPC   H8R 8435   5.501   6.026   6.397  0.5743 -0.6936 -0.1455
   89SAPC   C29 8436   5.584   6.139   6.231 -0.5149  0.1689  0.4548
   89SAPC   H9R 8437   5.566   6.065   6.152 -2.4307  0.5717  0.4778
   89SAPC  C210 8438   5.633   6.270   6.187 -0.1929 -0.0213 -0.0612
   89SAPC  H10R 8439   5.741   6.270   6.216 -0.0917  2.3936 -0.2588
   89SAPC  H10S 8440   5.579   6.349   6.242 -1.9646 -0.2196 -1.4370
   89SAPC  C211 8441   5.614   6.313   6.041  0.2089  0.7191 -0.5408
   89SAPC  H11R 8442   5.512   6.303   6.000 -0.9973  0.3266  2.2736
   89SAPC  C212 8443   5.708   6.372   5.963  0.3089 -0.5230  0.5031
   89SAPC  H12R 8444   5.673   6.372   5.859 -0.1368 -0.6220  0.6476
   89SAPC  C213 8445   5.856   6.398   5.990  0.4935  0.5046 -0.2385
   89SAPC  H13R 8446   5.919   6.307   5.978  1.1919  1.1049 -1.2310
   89SAPC  H13S 8447   5.877   6.431   6.094 -1.3538  0.5449  0.1563
   89SAPC  C214 8448   5.915   6.505   5.898 -0.7262  0.7342 -0.2781
   89SAPC  H14R 8449   5.938   6.601   5.947 -0.3942  0.6891 -0.3395
   89SAPC  C215 8450   5.933   6.497   5.766 -0.8978 -0.6500 -0.4267
   89SAPC  H15R 8451   5.992   6.574   5.714 -2.9772 -0.6909 -3.0265
   89SAPC  C216 8452   5.889   6.379   5.684 -0.7882 -0.2220  0.0251
   89SAPC  H16R 8453   5.838   6.297   5.740  2.0801 -0.3451  2.7306
   89SAPC  H16S 8454   5.984   6.329   5.655 -0.3609 -0.2361  1.4111
   89SAPC  C217 8455   5.808   6.419   5.555  0.0054  0.1517  0.1329
   89SAPC  H17R 8456   5.864   6.503   5.507 -0.3479  0.2543 -0.0993
   89SAPC  H17S 8457   5.711   6.461   5.587 -0.4391 -0.6614 -0.1201
   89SAPC  C218 8458   5.789   6.310   5.460 -1.2670 -0.0958  0.0208
   89SAPC  H18R 8459   5.745   6.222   5.511  1.1830 -1.5299 -0.1669
   89SAPC  H18S 8460   5.895   6.284   5.440 -0.6603  0.2629  2.4211
   89SAPC  C219 8461   5.701   6.335   5.338 -0.2014  0.1385  0.0258
   89SAPC  H19R 8462   5.713   6.433   5.287 -3.1235  0.3218 -0.4655
   89SAPC  H19S 8463   5.597   6.344   5.374 -1.1553 -2.1961 -1.8808
   89SAPC  C220 8464   5.724   6.225   5.233  0.1012  0.2897 -0.0103
   89SAPC  H20R 8465   5.694   6.130   5.283 -3.4186  0.8664 -0.8058
   89SAPC  H20S 8466   5.828   6.212   5.196 -0.2794 -1.9940 -0.4019
   89SAPC  H20T 8467   5.654   6.238   5.149 -1.4292 -1.4350  0.9166
   89SAPC   C33 8468   6.005   6.544   6.710  0.0702  0.3665  0.3446
   89SAPC   H3X 8469   6.067   6.578   6.796 -1.8040  0.5945  1.6666
   89SAPC   H3Y 8470   6.005   6.637   6.649 -1.7437  0.1562 -0.0162
   89SAPC   C34 8471   6.066   6.419   6.647  0.1372  0.1782 -0.4915
   89SAPC   H4X 8472   6.002   6.379   6.565 -1.2526  2.1861 -0.4541
   89SAPC   H4Y 8473   6.090   6.339   6.720  1.4980 -0.0963 -1.2008
   89SAPC   C35 8474   6.203   6.459   6.577 -0.6507  0.9207 -0.6642
   89SAPC   H5X 8475   6.282   6.444   6.653  0.6107 -1.9999 -2.3896
   89SAPC   H5Y 8476   6.205   6.568   6.553  0.2999  1.5917  2.1042
   89SAPC   C36 8477   6.257   6.374   6.459  0.1894 -0.8510  0.1230
   89SAPC   H6X 8478   6.255   6.270   6.498 -2.9421 -0.7417  0.5096
   89SAPC   H6Y 8479   6.358   6.414   6.437 -0.2681  1.4278  1.7627
   89SAPC   C37 8480   6.170   6.373   6.335 -0.0053  0.2098  0.5018
   89SAPC   H7X 8481   6.154   6.479   6.303  1.9793 -0.2453 -2.3075
   89SAPC   H7Y 8482   6.069   6.330   6.354 -0.2617  0.2553 -0.6516
   89SAPC   C38 8483   6.225   6.310   6.212 -0.7161  0.3812  0.3235
   89SAPC   H8X 8484   6.157   6.307   6.124  2.8770  1.3634 -2.7327
   89SAPC   H8Y 8485   6.253   6.203   6.223  0.5546  0.6151 -0.4844
   89SAPC   C39 8486   6.338   6.391   6.157  0.2606  0.4063  0.3257
   89SAPC   H9X 8487   6.406   6.319   6.106 -1.3488 -0.9214 -0.0465
   89SAPC   H9Y 8488   6.404   6.435   6.235  1.5427  2.0633 -1.5729
   89SAPC  C310 8489   6.298   6.507   6.054 -0.1946  0.2579  0.7151
   89SAPC  H10X 8490   6.241   6.574   6.122 -4.0054 -1.6215 -0.3880
   89SAPC  H10Y 8491   6.227   6.465   5.979  1.7662  0.6746 -1.5089
   89SAPC  C311 8492   6.422   6.567   5.979  0.1623  0.0503 -0.2715
   89SAPC  H11X 8493   6.512   6.556   6.043  0.0014 -0.7117 -0.1621
   89SAPC  H11Y 8494   6.408   6.677   5.978  0.3115  0.0744  0.0793
   89SAPC  C312 8495   6.448   6.515   5.835  0.2762 -0.6271  0.3819
   89SAPC  H12X 8496   6.429   6.406   5.837  3.2994 -1.2539 -0.3298
   89SAPC  H12Y 8497   6.550   6.531   5.796  0.5297  0.9120  1.5498
   89SAPC  C313 8498   6.347   6.572   5.732  0.3463  0.0366  0.5775
   89SAPC  H13X 8499   6.344   6.683   5.726 -0.7832  0.0285  0.6319
   89SAPC  H13Y 8500   6.244   6.547   5.766  0.6737 -2.4456 -0.1229
   89SAPC  C314 8501   6.347   6.504   5.597  0.1505 -0.4463 -0.6604
   89SAPC  H14X 8502   6.328   6.395   5.611  0.9874 -0.6028 -0.6720
   89SAPC  H14Y 8503   6.452   6.517   5.562  0.0414  1.4918 -0.3729
   89SAPC  C315 8504   6.240   6.552   5.504  0.2938  0.3671 -0.4467
   89SAPC  H15X 8505   6.255   6.661   5.489  1.5595  0.5209  1.6394
   89SAPC  H15Y 8506   6.141   6.547   5.555 -0.9219  2.4308 -2.3934
   89SAPC  C316 8507   6.237   6.479   5.371 -0.5823 -0.1829  0.1623
   89SAPC  H16X 8508   6.250   6.373   5.398 -1.1068  0.0501  1.3722
   89SAPC  H16Y 8509   6.332   6.514   5.325 -0.1905 -0.3666  0.8328
   89SAPC  C317 8510   6.111   6.505   5.286  0.0052 -0.4174 -0.6982
   89SAPC  H17X 8511   6.109   6.614   5.264  0.3372  0.4127  2.8186
   89SAPC  H17Y 8512   6.029   6.476   5.355 -0.2745 -0.4781 -1.0529
   89SAPC  C318 8513   6.093   6.414   5.165  0.6737 -0.0327  0.2142
   89SAPC  H18X 8514   6.173   6.422   5.088  0.2788 -1.5849 -0.4007
   89SAPC  H18Y 8515   5.992   6.436   5.124  1.2393  0.6599 -0.8321
   89SAPC  H18Z 8516   6.078   6.313   5.209 -1.9060 -0.2285 -0.9586
   90SAPC     N 8517   2.179   5.701   7.417  0.3201 -0.2111  0.0925
   90SAPC   C12 8518   2.291   5.639   7.496  0.3463  0.0983  0.0981
   90SAPC  H12A 8519   2.254   5.568   7.569  0.9769  0.0414  0.3620
   90SAPC  H12B 8520   2.342   5.723   7.539 -0.6237  1.6015 -1.5496
   90SAPC   C13 8521   2.076   5.771   7.499 -0.2784 -0.1382 -0.0093
   90SAPC  H13A 8522   2.008   5.704   7.550 -0.3687  2.2264  3.2710
   90SAPC  H13B 8523   2.125   5.831   7.574 -1.5699  1.9138 -0.7179
   90SAPC  H13C 8524   2.018   5.838   7.436  0.3879 -1.6804 -2.3889
   90SAPC   C14 8525   2.242   5.811   7.332 -0.1222  0.7713  0.1877
   90SAPC  H14A 8526   2.317   5.757   7.276  1.0116 -0.9115  3.0531
   90SAPC  H14B 8527   2.173   5.867   7.271 -0.8789 -1.3842 -1.0250
   90SAPC  H14C 8528   2.298   5.887   7.385 -0.2466 -0.1262  1.6646
   90SAPC   C15 8529   2.116   5.606   7.317  0.2497  0.4513  0.6897
   90SAPC  H15A 8530   2.056   5.530   7.365  0.0419  0.3768  0.3144
   90SAPC  H15B 8531   2.054   5.665   7.252 -0.1359 -0.4510  0.2213
   90SAPC  H15C 8532   2.190   5.557   7.255  0.4588  1.0278  0.4806
   90SAPC   C11 8533   2.400   5.540   7.431  0.1172 -0.0486 -0.1430
   90SAPC  H11A 8534   2.493   5.545   7.492 -0.1015  0.8123  0.1280
   90SAPC  H11B 8535   2.423   5.576   7.329 -2.2196 -0.4981 -0.8991
   90SAPC     P 8536   2.371   5.309   7.310 -0.0261 -0.1756  0.2794
   90SAPC   O13 8537   2.351   5.174   7.365  0.4197  0.2159 -0.0050
   90SAPC   O14 8538   2.289   5.349   7.195 -0.0642 -0.2888  0.3723
   90SAPC   O12 8539   2.346   5.408   7.436  0.2732 -0.3561  0.3277
   90SAPC   O11 8540   2.525   5.323   7.278 -0.1988  0.0392 -0.4769
   90SAPC    C1 8541   2.553   5.377   7.148  0.1071  0.0448 -0.2295
   90SAPC    HA 8542   2.532   5.306   7.065 -1.1255 -0.4092  0.4476
   90SAPC    HB 8543   2.497   5.469   7.123  3.4604  2.4885  0.5019
   90SAPC    C2 8544   2.702   5.435   7.140  0.4779 -0.0748 -0.4437
   90SAPC    HS 8545   2.738   5.450   7.244 -3.2403 -1.7631  1.2511
   90SAPC   O21 8546   2.706   5.554   7.057  0.0486 -0.2294 -0.4041
   90SAPC   C21 8547   2.795   5.650   7.086  0.8500  1.2497  0.3840
   90SAPC   O22 8548   2.861   5.654   7.185 -0.6643 -0.1384 -0.4136
   90SAPC   C22 8549   2.806   5.754   6.977  0.5692  0.5383  0.3533
   90SAPC   H2R 8550   2.869   5.719   6.892  0.7843  1.5881  0.0755
   90SAPC   H2S 8551   2.708   5.789   6.939  1.1748  0.4567 -1.3843
   90SAPC    C3 8552   2.800   5.331   7.083  0.5027  0.5097 -0.3087
   90SAPC    HX 8553   2.781   5.246   7.151 -0.9802  0.4867 -0.7160
   90SAPC    HY 8554   2.905   5.360   7.105  0.1286  0.0561  2.3400
   90SAPC   O31 8555   2.771   5.301   6.948 -0.2875 -0.9616 -0.4668
   90SAPC   C31 8556   2.833   5.387   6.863 -0.2085 -0.0556  0.1011
   90SAPC   O32 8557   2.909   5.477   6.896  0.4171 -0.3734  0.7312
   90SAPC   C32 8558   2.785   5.344   6.726 -0.1418 -0.2017  0.3526
   90SAPC   H2X 8559   2.679   5.376   6.719  0.4894  1.6885 -1.6477
   90SAPC   H2Y 8560   2.795   5.233   6.727 -1.2663 -0.3230 -0.2025
   90SAPC   C23 8561   2.868   5.883   7.024  0.4567 -1.0138 -0.6205
   90SAPC   H3R 8562   2.971   5.867   7.063  0.1712  0.6460  0.9492
   90SAPC   H3S 8563   2.800   5.911   7.107 -0.9738 -2.4009 -1.2623
   90SAPC   C24 8564   2.860   5.990   6.918  0.3403  0.6225  0.2133
   90SAPC   H4R 8565   2.753   6.012   6.896 -0.8278 -3.9401  0.3816
   90SAPC   H4S 8566   2.923   5.956   6.833  0.1783  1.0180 -0.0668
   90SAPC   C25 8567   2.926   6.120   6.975 -0.0258  0.1273  1.1950
   90SAPC   H5R 8568   2.860   6.164   7.051 -0.4253  1.9888 -0.1307
   90SAPC   C26 8569   3.048   6.179   6.943 -0.3718 -0.0262  0.0906
   90SAPC   H6R 8570   3.067   6.280   6.980  1.2643 -0.1926 -0.2125
   90SAPC   C27 8571   3.136   6.126   6.835 -0.3467 -0.1841 -0.1344
   90SAPC   H7R 8572   3.085   6.066   6.757 -0.5717 -0.5831  0.3164
   90SAPC   H7S 8573   3.216   6.065   6.883 -0.2972 -1.0387 -1.2643
   90SAPC   C28 8574   3.215   6.243   6.776  0.4108 -0.7404  0.7311
   90SAPC   H8R 8575   3.218   6.335   6.836 -1.7685 -0.6512  0.8020
   90SAPC   C29 8576   3.284   6.243   6.660 -0.1725 -0.4365 -0.1605
   90SAPC   H9R 8577   3.318   6.339   6.618 -0.3707 -0.5863 -0.6699
   90SAPC  C210 8578   3.302   6.124   6.565 -0.4407  0.1469  0.1186
   90SAPC  H10R 8579   3.258   6.146   6.466  1.6125  0.8027 -0.7028
   90SAPC  H10S 8580   3.249   6.035   6.607  2.0375 -1.0081  0.9855
   90SAPC  C211 8581   3.448   6.094   6.563 -0.2280 -0.4097  0.6902
   90SAPC  H11R 8582   3.500   6.101   6.660  1.7066  1.8201 -0.4140
   90SAPC  C212 8583   3.522   6.037   6.465 -0.1891  0.6119 -0.9500
   90SAPC  H12R 8584   3.630   6.019   6.480 -0.3509 -0.3429 -0.8512
   90SAPC  C213 8585   3.465   6.008   6.335 -0.2063 -0.9217  0.8805
   90SAPC  H13R 8586   3.355   5.989   6.337 -0.5677  0.6746 -0.8263
   90SAPC  H13S 8587   3.514   5.921   6.287  1.0702  0.4279 -0.3540
   90SAPC  C214 8588   3.488   6.132   6.244  0.4392 -0.3193  0.4726
   90SAPC  H14R 8589   3.588   6.173   6.259  0.2342  1.6082 -2.5389
   90SAPC  C215 8590   3.414   6.191   6.146  0.2450 -0.0143 -0.3267
   90SAPC  H15R 8591   3.457   6.282   6.102  2.1072 -1.1202 -0.9034
   90SAPC  C216 8592   3.274   6.139   6.103  0.2466  0.4535  0.2490
   90SAPC  H16R 8593   3.239   6.050   6.160  1.4798  0.2074  0.6374
   90SAPC  H16S 8594   3.269   6.116   5.994  0.3953  1.3077  0.0493
   90SAPC  C217 8595   3.159   6.241   6.127  0.2731  0.1875  0.5816
   90SAPC  H17R 8596   3.157   6.269   6.235 -2.7734 -0.8088  0.8774
   90SAPC  H17S 8597   3.059   6.198   6.105  0.0692  1.0441 -0.2333
   90SAPC  C218 8598   3.170   6.375   6.060 -0.2308  0.5772 -0.2018
   90SAPC  H18R 8599   3.271   6.416   6.082 -1.1881  2.7581  0.3402
   90SAPC  H18S 8600   3.093   6.447   6.093 -0.2014 -0.1175  1.4654
   90SAPC  C219 8601   3.180   6.361   5.898 -0.8364 -0.0227 -0.2885
   90SAPC  H19R 8602   3.257   6.290   5.862 -1.7683 -0.7708 -0.8918
   90SAPC  H19S 8603   3.207   6.455   5.847  1.1192 -0.5799 -0.3673
   90SAPC  C220 8604   3.043   6.307   5.844  0.5732  0.1807 -0.2080
   90SAPC  H20R 8605   3.023   6.205   5.883 -1.2557  1.0698  1.4066
   90SAPC  H20S 8606   3.042   6.299   5.734 -1.7512 -1.9555 -0.1200
   90SAPC  H20T 8607   2.961   6.370   5.885  0.9743 -0.2728  1.4001
   90SAPC   C33 8608   2.872   5.404   6.617  0.4454 -0.0121  0.7357
   90SAPC   H3X 8609   2.975   5.369   6.640  0.1071 -2.2207 -0.7573
   90SAPC   H3Y 8610   2.851   5.513   6.612  2.0641  0.2645 -1.5195
   90SAPC   C34 8611   2.835   5.342   6.477 -0.6549 -0.5044  0.5075
   90SAPC   H4X 8612   2.731   5.368   6.448 -0.1644 -0.9222 -1.8036
   90SAPC   H4Y 8613   2.826   5.232   6.486 -0.0519 -0.4987  1.2587
   90SAPC   C35 8614   2.926   5.386   6.366  0.3804 -0.1222  1.1282
   90SAPC   H5X 8615   3.028   5.348   6.387 -0.0608 -1.1920  1.4240
   90SAPC   H5Y 8616   2.945   5.495   6.361  1.4493 -0.3430 -0.9098
   90SAPC   C36 8617   2.868   5.337   6.234  0.1062  0.3156 -0.4435
   90SAPC   H6X 8618   2.773   5.390   6.212 -0.7534  0.1612  2.4433
   90SAPC   H6Y 8619   2.846   5.228   6.238  1.0569  0.0691  4.0421
   90SAPC   C37 8620   2.966   5.347   6.109  0.0304  0.8098 -0.9441
   90SAPC   H7X 8621   3.065   5.302   6.129 -0.4650  0.0146 -0.1872
   90SAPC   H7Y 8622   2.982   5.454   6.085  2.5107  0.3711 -1.4843
   90SAPC   C38 8623   2.896   5.293   5.982 -0.7277 -0.3901  0.1615
   90SAPC   H8X 8624   2.785   5.303   5.989 -0.6810  0.5603 -0.3202
   90SAPC   H8Y 8625   2.910   5.184   5.968 -1.2635 -0.3120 -1.1076
   90SAPC   C39 8626   2.954   5.363   5.855  1.1231 -0.1394 -0.4043
   90SAPC   H9X 8627   3.063   5.366   5.877  1.3822  2.2927 -1.6737
   90SAPC   H9Y 8628   2.906   5.463   5.847 -2.7627 -1.8289 -0.2475
   90SAPC  C310 8629   2.922   5.286   5.728  0.3969  0.1974 -0.7553
   90SAPC  H10X 8630   2.812   5.272   5.725  0.5393 -0.9565 -1.3011
   90SAPC  H10Y 8631   2.945   5.179   5.748 -0.1661  0.4871  1.8474
   90SAPC  C311 8632   2.978   5.330   5.592 -0.0961  0.1727  0.1341
   90SAPC  H11X 8633   2.954   5.435   5.566  0.2442  1.0066  2.8464
   90SAPC  H11Y 8634   2.926   5.264   5.520 -0.8368  1.8059 -0.8875
   90SAPC  C312 8635   3.133   5.300   5.576  1.1371  0.3309 -0.0729
   90SAPC  H12X 8636   3.143   5.190   5.578 -0.0376  0.1440 -2.0217
   90SAPC  H12Y 8637   3.170   5.350   5.668 -2.3296 -0.5661  1.9945
   90SAPC  C313 8638   3.188   5.349   5.440 -0.0714  0.1416 -0.0708
   90SAPC  H13X 8639   3.156   5.455   5.427 -0.5804  0.2252  1.6308
   90SAPC  H13Y 8640   3.136   5.282   5.368 -2.3552  0.3535  1.2978
   90SAPC  C314 8641   3.342   5.338   5.436 -0.9726 -0.0303 -0.4458
   90SAPC  H14X 8642   3.381   5.382   5.342  1.8958 -1.3205  0.0264
   90SAPC  H14Y 8643   3.373   5.231   5.439 -1.7794 -0.2663 -0.1096
   90SAPC  C315 8644   3.419   5.417   5.537 -0.3361 -0.2404  0.2221
   90SAPC  H15X 8645   3.523   5.429   5.498  0.1337 -3.6971  0.1182
   90SAPC  H15Y 8646   3.432   5.366   5.635 -0.8595 -1.4277 -0.3112
   90SAPC  C316 8647   3.371   5.555   5.575  0.8015  0.1268  0.4249
   90SAPC  H16X 8648   3.447   5.609   5.636  0.7360  1.5572 -0.6872
   90SAPC  H16Y 8649   3.278   5.549   5.636  0.4912  1.4337  0.1148
   90SAPC  C317 8650   3.342   5.651   5.454 -0.9923  0.2699  0.0675
   90SAPC  H17X 8651   3.311   5.746   5.503 -0.6196 -0.4149  1.7088
   90SAPC  H17Y 8652   3.261   5.619   5.385  1.2043 -0.9332 -2.1091
   90SAPC  C318 8653   3.471   5.681   5.374 -0.1741 -0.3732 -0.7949
   90SAPC  H18X 8654   3.503   5.594   5.312 -1.9222  0.2233 -2.6856
   90SAPC  H18Y 8655   3.542   5.710   5.454 -2.2779  0.0140  1.0194
   90SAPC  H18Z 8656   3.455   5.775   5.318 -0.3986  0.7714  1.1211
   91SAPC     N 8657   1.999   5.099   7.583  0.1502 -0.2624 -0.0010
   91SAPC   C12 8658   2.052   5.196   7.470 -0.4017  0.5126 -0.5883
   91SAPC  H12A 8659   2.107   5.130   7.404 -1.0212 -0.4871 -0.1158
   91SAPC  H12B 8660   2.125   5.261   7.516  0.6806  0.0674 -1.6147
   91SAPC   C13 8661   2.108   5.006   7.643 -0.1587 -0.1695 -0.0281
   91SAPC  H13A 8662   2.176   5.072   7.694 -1.4805  0.3584  1.1028
   91SAPC  H13B 8663   2.070   4.927   7.706 -0.0423 -3.1219 -3.3180
   91SAPC  H13C 8664   2.151   4.951   7.560  0.2294  0.3066 -0.1455
   91SAPC   C14 8665   1.933   5.182   7.686 -0.1523  0.3123 -0.6909
   91SAPC  H14A 8666   1.840   5.219   7.645 -0.1065 -1.2268 -2.3497
   91SAPC  H14B 8667   1.908   5.110   7.762  0.2437  0.7028 -0.1802
   91SAPC  H14C 8668   1.998   5.259   7.725 -0.5150  0.4703 -0.4012
   91SAPC   C15 8669   1.900   5.001   7.524 -0.5253  0.1629 -0.7689
   91SAPC  H15A 8670   1.816   5.054   7.481 -1.9053 -0.6337  0.7967
   91SAPC  H15B 8671   1.945   4.938   7.449  1.3803 -0.2285  0.6445
   91SAPC  H15C 8672   1.859   4.939   7.602  2.0650  0.6418  1.1072
   91SAPC   C11 8673   1.958   5.281   7.387  0.4365 -0.2533 -0.0368
   91SAPC  H11A 8674   1.861   5.232   7.361  0.5902 -1.2023  1.1083
   91SAPC  H11B 8675   2.004   5.297   7.287 -0.1046 -2.5678 -0.7264
   91SAPC     P 8676   1.777   5.455   7.477  0.2352  0.0132 -0.0644
   91SAPC   O13 8677   1.722   5.350   7.564  0.3625 -0.1456 -0.6958
   91SAPC   O14 8678   1.772   5.592   7.523 -0.1761  0.4111  0.1005
   91SAPC   O12 8679   1.932   5.406   7.452  0.0852 -0.2106  0.5188
   91SAPC   O11 8680   1.725   5.445   7.323  0.4709 -0.1296  0.2063
   91SAPC    C1 8681   1.779   5.497   7.205  0.2211 -0.1179 -0.6188
   91SAPC    HA 8682   1.725   5.591   7.184  0.1609  0.0479  0.2120
   91SAPC    HB 8683   1.882   5.534   7.225  0.5993 -0.6600 -1.4828
   91SAPC    C2 8684   1.789   5.393   7.092  0.2375 -0.0328  0.7460
   91SAPC    HS 8685   1.878   5.330   7.115 -0.3027 -0.8286  0.7009
   91SAPC   O21 8686   1.821   5.457   6.968 -0.4889 -0.1599 -0.4690
   91SAPC   C21 8687   1.890   5.376   6.880  0.3735  0.2443  0.3117
   91SAPC   O22 8688   1.928   5.263   6.907  0.0658  0.0677 -0.3197
   91SAPC   C22 8689   1.915   5.455   6.747  0.1425  0.2263 -0.2306
   91SAPC   H2R 8690   1.818   5.478   6.698  0.3654  0.3697 -0.6153
   91SAPC   H2S 8691   1.956   5.555   6.771 -1.4907  1.0749 -0.8036
   91SAPC    C3 8692   1.663   5.310   7.082 -0.3485  0.2322  0.6770
   91SAPC    HX 8693   1.644   5.251   7.174 -3.0044 -1.4582 -0.8201
   91SAPC    HY 8694   1.687   5.225   7.014  0.3304  0.8373  0.1393
   91SAPC   O31 8695   1.549   5.392   7.036  0.6634 -0.1380 -0.2458
   91SAPC   C31 8696   1.540   5.409   6.903  0.3434  0.2025 -0.5095
   91SAPC   O32 8697   1.606   5.351   6.820 -0.1295  0.4931  0.4451
   91SAPC   C32 8698   1.440   5.522   6.873  0.4134  0.0039 -0.0792
   91SAPC   H2X 8699   1.440   5.593   6.958 -1.3761 -0.0332 -0.0083
   91SAPC   H2Y 8700   1.336   5.488   6.850 -0.2476  1.2779  0.9010
   91SAPC   C23 8701   2.021   5.393   6.653 -1.0613  0.1659  0.2699
   91SAPC   H3R 8702   2.106   5.371   6.722 -0.5412 -1.0021 -0.7058
   91SAPC   H3S 8703   2.060   5.464   6.577  0.3208  0.8912  1.5991
   91SAPC   C24 8704   1.987   5.268   6.576  0.3210 -0.0215  0.1493
   91SAPC   H4R 8705   1.939   5.188   6.636 -1.5196 -0.0831 -1.2851
   91SAPC   H4S 8706   2.079   5.222   6.535 -0.3811 -0.8922 -0.5076
   91SAPC   C25 8707   1.892   5.309   6.466  0.2421 -0.2615  0.6514
   91SAPC   H5R 8708   1.794   5.355   6.485  0.4143  0.8323 -0.9104
   91SAPC   C26 8709   1.914   5.303   6.331 -0.3104 -0.1322 -0.0522
   91SAPC   H6R 8710   1.830   5.326   6.264  1.3948 -0.5888 -2.4675
   91SAPC   C27 8711   2.043   5.254   6.265 -0.0036 -0.6172  0.0220
   91SAPC   H7R 8712   2.039   5.154   6.217  0.0510 -0.9812  0.7490
   91SAPC   H7S 8713   2.124   5.243   6.340 -0.1264 -2.6626 -0.0724
   91SAPC   C28 8714   2.093   5.363   6.170  0.1866  0.2837 -0.6651
   91SAPC   H8R 8715   2.134   5.442   6.235 -3.5003  2.3101 -0.5183
   91SAPC   C29 8716   2.095   5.363   6.036  0.2264 -0.1241 -1.1217
   91SAPC   H9R 8717   2.116   5.451   5.975  1.7438 -0.1366 -0.6557
   91SAPC  C210 8718   2.038   5.252   5.957  0.2504  0.4279  0.1248
   91SAPC  H10R 8719   1.958   5.296   5.895  0.6897 -1.1474 -1.6564
   91SAPC  H10S 8720   1.991   5.177   6.024 -0.9775  1.2173  0.1675
   91SAPC  C211 8721   2.138   5.183   5.869 -0.0424  0.1411  0.4961
   91SAPC  H11R 8722   2.224   5.128   5.910  0.8222  0.0319 -1.3552
   91SAPC  C212 8723   2.146   5.218   5.741 -0.1543  0.3743 -0.4048
   91SAPC  H12R 8724   2.225   5.170   5.681  2.3584  1.7423  1.6331
   91SAPC  C213 8725   2.053   5.317   5.662 -0.4047 -0.1630 -0.2009
   91SAPC  H13R 8726   2.025   5.404   5.725  0.6685  1.7786 -2.2690
   91SAPC  H13S 8727   1.956   5.272   5.632 -0.5664 -1.0236  1.4528
   91SAPC  C214 8728   2.129   5.383   5.553  0.1709 -0.1924  0.5696
   91SAPC  H14R 8729   2.198   5.461   5.588 -0.3559 -0.0878  1.3855
   91SAPC  C215 8730   2.113   5.366   5.422 -0.5113 -0.5358 -0.6959
   91SAPC  H15R 8731   2.167   5.428   5.349 -1.5256  0.5973 -0.5266
   91SAPC  C216 8732   1.995   5.291   5.370  0.5379 -0.6588  0.4675
   91SAPC  H16R 8733   1.968   5.339   5.274  0.0011 -1.9708 -0.0573
   91SAPC  H16S 8734   1.904   5.295   5.434  1.6345  0.7082  2.0129
   91SAPC  C217 8735   2.025   5.150   5.336  0.4122  0.1146  0.2428
   91SAPC  H17R 8736   2.132   5.143   5.307  0.4703  1.1369  0.1926
   91SAPC  H17S 8737   1.954   5.113   5.259  0.5347  1.0691 -0.3474
   91SAPC  C218 8738   2.015   5.053   5.457  0.5802  0.8037  0.5244
   91SAPC  H18R 8739   1.952   5.084   5.543 -2.6920 -3.4662 -0.0034
   91SAPC  H18S 8740   2.119   5.041   5.494 -0.2456  2.3598  3.6413
   91SAPC  C219 8741   1.956   4.917   5.425 -0.7952 -0.0164  0.1621
   91SAPC  H19R 8742   1.846   4.918   5.409 -0.7900 -2.3941 -0.3662
   91SAPC  H19S 8743   1.962   4.848   5.513  0.4338 -0.8643 -0.5558
   91SAPC  C220 8744   2.023   4.840   5.310  0.0483 -0.1230  0.7850
   91SAPC  H20R 8745   2.132   4.820   5.315 -0.0724 -0.6877  1.1584
   91SAPC  H20S 8746   2.017   4.906   5.220  1.6499 -2.7651 -1.4003
   91SAPC  H20T 8747   1.991   4.744   5.265 -1.6077  2.0836 -3.3513
   91SAPC   C33 8748   1.473   5.594   6.742  0.1433 -0.0061 -0.1249
   91SAPC   H3X 8749   1.577   5.629   6.728  0.1243  1.0739  2.0765
   91SAPC   H3Y 8750   1.400   5.678   6.733  0.2449  0.0233 -0.7787
   91SAPC   C34 8751   1.427   5.506   6.619 -0.2869 -0.5985 -0.3989
   91SAPC   H4X 8752   1.317   5.495   6.623 -0.1309 -3.0205 -1.2314
   91SAPC   H4Y 8753   1.478   5.407   6.621  2.5908  0.7696 -0.1255
   91SAPC   C35 8754   1.459   5.582   6.490 -0.6457  0.1022  0.2653
   91SAPC   H5X 8755   1.565   5.613   6.489 -0.6031 -0.0172  0.8472
   91SAPC   H5Y 8756   1.406   5.680   6.487  0.5340  0.7348 -0.5617
   91SAPC   C36 8757   1.447   5.510   6.358  0.5918  0.7055  0.1225
   91SAPC   H6X 8758   1.452   5.586   6.276 -0.8969  1.0509  0.3125
   91SAPC   H6Y 8759   1.352   5.454   6.345  0.1489  1.4767 -0.0089
   91SAPC   C37 8760   1.555   5.402   6.338 -0.5105  0.0567  0.7240
   91SAPC   H7X 8761   1.549   5.325   6.418 -0.5353 -0.5921  0.0968
   91SAPC   H7Y 8762   1.648   5.462   6.352  0.1069 -0.4319 -1.1087
   91SAPC   C38 8763   1.557   5.344   6.202  0.0222  0.0582  0.1415
   91SAPC   H8X 8764   1.453   5.335   6.162  0.2192  0.5920 -0.5051
   91SAPC   H8Y 8765   1.609   5.247   6.189  1.2538  0.8595 -1.1283
   91SAPC   C39 8766   1.627   5.444   6.098  0.6553  0.1135 -0.7016
   91SAPC   H9X 8767   1.729   5.477   6.126 -0.9170  1.8564  4.0104
   91SAPC   H9Y 8768   1.558   5.531   6.105  0.5790  0.0031  0.0008
   91SAPC  C310 8769   1.632   5.399   5.953  0.7937 -0.1934  0.7653
   91SAPC  H10X 8770   1.546   5.332   5.933 -0.1497  1.2849 -0.4165
   91SAPC  H10Y 8771   1.731   5.351   5.937  1.1337  0.0849  1.9822
   91SAPC  C311 8772   1.623   5.511   5.849  0.5827 -0.1672 -0.3241
   91SAPC  H11X 8773   1.702   5.586   5.874 -0.8055  0.7933  1.4446
   91SAPC  H11Y 8774   1.525   5.563   5.863  0.6118 -0.4010  0.9231
   91SAPC  C312 8775   1.640   5.463   5.705 -0.3532 -0.5547  0.2916
   91SAPC  H12X 8776   1.567   5.379   5.695 -0.4487 -0.4976  0.4817
   91SAPC  H12Y 8777   1.743   5.422   5.698  1.3723  3.4515 -0.1600
   91SAPC  C313 8778   1.629   5.577   5.594 -0.1528 -0.1101  0.2540
   91SAPC  H13X 8779   1.718   5.645   5.592 -0.9773  1.1161  2.0375
   91SAPC  H13Y 8780   1.533   5.629   5.611 -0.5548 -0.9857  0.7127
   91SAPC  C314 8781   1.625   5.512   5.451  0.0444 -0.4975 -0.0661
   91SAPC  H14X 8782   1.535   5.446   5.450 -0.8294  0.5964 -3.3381
   91SAPC  H14Y 8783   1.729   5.476   5.443  0.0578 -0.1393 -1.7923
   91SAPC  C315 8784   1.600   5.614   5.345 -0.2122  0.7292  0.0040
   91SAPC  H15X 8785   1.685   5.683   5.334 -2.6530  3.7513 -1.6679
   91SAPC  H15Y 8786   1.510   5.676   5.365 -0.7749 -0.3627  1.0438
   91SAPC  C316 8787   1.590   5.550   5.205 -0.6891 -0.7780 -0.4565
   91SAPC  H16X 8788   1.509   5.474   5.199  1.2801 -3.0342 -0.4213
   91SAPC  H16Y 8789   1.678   5.485   5.183 -0.4762 -0.9264  0.7344
   91SAPC  C317 8790   1.570   5.654   5.089 -0.2172  0.2812 -0.7631
   91SAPC  H17X 8791   1.594   5.611   4.990 -2.7655 -1.1775 -0.8342
   91SAPC  H17Y 8792   1.654   5.725   5.101  0.6448 -0.8763  0.3377
   91SAPC  C318 8793   1.441   5.724   5.063 -0.2980 -0.6182  0.3144
   91SAPC  H18X 8794   1.432   5.792   4.975 -0.4622 -0.0318  0.7786
   91SAPC  H18Y 8795   1.403   5.784   5.148  1.9803  1.3997  0.0066
   91SAPC  H18Z 8796   1.367   5.642   5.047 -0.7792  0.0785 -1.2302
   92SAPC     N 8797   2.162   3.808   7.799 -0.2153  0.5439  0.3811
   92SAPC   C12 8798   2.264   3.800   7.685 -0.4239 -0.1238  0.1138
   92SAPC  H12A 8799   2.331   3.717   7.703 -1.3726 -0.6298  1.4426
   92SAPC  H12B 8800   2.334   3.882   7.694  0.2246 -0.8182  1.8702
   92SAPC   C13 8801   2.072   3.689   7.794 -0.0653  0.1209 -0.7680
   92SAPC  H13A 8802   2.005   3.685   7.879 -1.3052 -0.6969 -1.7437
   92SAPC  H13B 8803   2.011   3.685   7.705 -1.7243  0.1944  0.3218
   92SAPC  H13C 8804   2.135   3.602   7.790  1.1043  0.8850  0.2478
   92SAPC   C14 8805   2.237   3.797   7.921 -0.7269  0.3147 -0.0919
   92SAPC  H14A 8806   2.302   3.712   7.914 -1.0748 -0.3891  3.4789
   92SAPC  H14B 8807   2.300   3.885   7.926  0.4401 -0.4105 -1.3568
   92SAPC  H14C 8808   2.173   3.790   8.008  0.7920 -0.0594  1.0450
   92SAPC   C15 8809   2.091   3.944   7.787 -0.4025  0.4142 -0.4486
   92SAPC  H15A 8810   2.032   3.947   7.697  0.2749  1.6086 -0.8811
   92SAPC  H15B 8811   2.022   3.958   7.869 -1.4508  2.1666 -1.5643
   92SAPC  H15C 8812   2.155   4.031   7.793 -1.4947  1.2847 -0.9883
   92SAPC   C11 8813   2.211   3.797   7.538  0.4096  0.1452  0.4867
   92SAPC  H11A 8814   2.141   3.710   7.530  0.3723  0.0351  1.7370
   92SAPC  H11B 8815   2.285   3.761   7.464  1.7319 -0.6305  2.1148
   92SAPC     P 8816   2.199   4.055   7.483 -0.0382 -0.3377  0.5059
   92SAPC   O13 8817   2.108   4.159   7.531 -0.5038 -0.8036 -0.5402
   92SAPC   O14 8818   2.334   4.060   7.542  1.0869  0.3461  0.1968
   92SAPC   O12 8819   2.132   3.910   7.505 -0.3962  0.2062 -0.2854
   92SAPC   O11 8820   2.216   4.063   7.328  0.3866 -0.2170 -0.4782
   92SAPC    C1 8821   2.108   4.064   7.233  0.0235  0.3898 -0.5045
   92SAPC    HA 8822   2.007   4.077   7.276  0.4327  1.0352  0.2713
   92SAPC    HB 8823   2.124   4.147   7.161 -0.6058  1.8891  1.0161
   92SAPC    C2 8824   2.116   3.934   7.145  0.3090 -0.7311 -0.1543
   92SAPC    HS 8825   2.151   3.857   7.217 -0.4625 -0.3394  0.6584
   92SAPC   O21 8826   2.219   3.948   7.048  0.5140  0.4149  0.0970
   92SAPC   C21 8827   2.321   3.867   7.036  0.0634  0.4594 -0.0285
   92SAPC   O22 8828   2.352   3.779   7.117  1.0502 -0.2241 -0.1037
   92SAPC   C22 8829   2.393   3.900   6.901 -0.4174 -0.4644 -0.2811
   92SAPC   H2R 8830   2.456   3.990   6.912 -0.9605 -0.0430 -0.5470
   92SAPC   H2S 8831   2.453   3.814   6.863 -2.6217 -1.5189 -1.5848
   92SAPC    C3 8832   1.986   3.880   7.074 -0.2306 -0.2866  0.7734
   92SAPC    HX 8833   1.904   3.879   7.148 -1.6385 -1.9068 -0.7051
   92SAPC    HY 8834   2.001   3.776   7.037 -0.6551 -0.0252 -0.1826
   92SAPC   O31 8835   1.948   3.968   6.964  0.1435 -0.1003  0.9717
   92SAPC   C31 8836   1.928   3.906   6.845  0.7116 -0.3312 -0.4045
   92SAPC   O32 8837   1.926   3.785   6.827 -0.2288  0.6055 -0.4216
   92SAPC   C32 8838   1.906   4.003   6.735  0.5564  0.3984  0.3075
   92SAPC   H2X 8839   1.999   4.061   6.716  2.4707 -3.1513 -2.1914
   92SAPC   H2Y 8840   1.821   4.068   6.766  1.3347  1.6975 -0.1729
   92SAPC   C23 8841   2.288   3.923   6.789  0.1674  0.3301 -0.0170
   92SAPC   H3R 8842   2.225   4.011   6.815  1.0988  1.0475 -0.1294
   92SAPC   H3S 8843   2.225   3.834   6.768  1.2315 -0.3798 -0.2388
   92SAPC   C24 8844   2.363   3.973   6.664 -0.2793  0.2033 -0.0034
   92SAPC   H4R 8845   2.409   3.890   6.606 -0.8957 -0.1818  0.0604
   92SAPC   H4S 8846   2.448   4.044   6.679  0.3843 -0.5994  0.0816
   92SAPC   C25 8847   2.275   4.050   6.570 -0.3342 -0.0103 -0.2992
   92SAPC   H5R 8848   2.238   4.146   6.608  0.4251  0.8107 -1.5681
   92SAPC   C26 8849   2.233   4.006   6.449 -0.0189 -0.8261  0.3942
   92SAPC   H6R 8850   2.166   4.068   6.388  0.7669  0.1182  0.4710
   92SAPC   C27 8851   2.282   3.881   6.373 -0.3181  0.5267  0.2199
   92SAPC   H7R 8852   2.269   3.800   6.447 -0.2985  0.9195  0.6586
   92SAPC   H7S 8853   2.390   3.890   6.347 -0.9150 -0.4621 -3.1174
   92SAPC   C28 8854   2.201   3.832   6.252  0.2093  0.5058  1.4562
   92SAPC   H8R 8855   2.120   3.773   6.296 -0.1352  1.5571  2.2686
   92SAPC   C29 8856   2.198   3.875   6.122  0.0801  0.9031  0.2510
   92SAPC   H9R 8857   2.125   3.834   6.051  1.6854 -0.1623 -0.8849
   92SAPC  C210 8858   2.285   3.982   6.053 -0.2404 -0.5830  0.1315
   92SAPC  H10R 8859   2.360   4.030   6.119 -2.0518  1.1081  1.0664
   92SAPC  H10S 8860   2.220   4.065   6.018 -0.4421 -0.6126  0.4361
   92SAPC  C211 8861   2.352   3.935   5.927  0.4376  0.3023 -0.0616
   92SAPC  H11R 8862   2.353   3.825   5.924 -0.5689  0.1330  2.6446
   92SAPC  C212 8863   2.375   4.010   5.818 -0.4988  0.5150  0.3304
   92SAPC  H12R 8864   2.419   3.951   5.735 -1.2197 -0.6146  0.7283
   92SAPC  C213 8865   2.342   4.154   5.789  0.6450 -0.1069  0.1743
   92SAPC  H13R 8866   2.420   4.218   5.742 -0.8304  1.9703  0.4359
   92SAPC  H13S 8867   2.317   4.207   5.883 -1.0038 -2.4059  1.1425
   92SAPC  C214 8868   2.206   4.150   5.724  0.5681 -0.1517  0.7253
   92SAPC  H14R 8869   2.160   4.051   5.712 -2.5431  1.4361 -2.0267
   92SAPC  C215 8870   2.138   4.252   5.658 -0.3545  0.0877 -0.6631
   92SAPC  H15R 8871   2.039   4.243   5.612 -0.5153  1.0389 -0.5210
   92SAPC  C216 8872   2.202   4.383   5.633 -0.2849  0.3713  0.2681
   92SAPC  H16R 8873   2.189   4.419   5.529 -1.4316  0.1409  0.3193
   92SAPC  H16S 8874   2.307   4.402   5.666 -0.8553  3.4683  0.5587
   92SAPC  C217 8875   2.135   4.494   5.707  0.0173  0.4067  0.0563
   92SAPC  H17R 8876   2.156   4.480   5.815 -2.5375  0.9592  0.6950
   92SAPC  H17S 8877   2.024   4.492   5.696 -0.0176  1.0231  0.2628
   92SAPC  C218 8878   2.172   4.638   5.673  0.3607 -0.0369  0.2812
   92SAPC  H18R 8879   2.150   4.661   5.567 -0.5637 -1.2192  0.1884
   92SAPC  H18S 8880   2.275   4.674   5.695  0.5617  1.0714 -2.2169
   92SAPC  C219 8881   2.078   4.732   5.747  0.0282  0.0343 -0.0151
   92SAPC  H19R 8882   1.974   4.698   5.725  0.0232  0.4383 -0.6350
   92SAPC  H19S 8883   2.097   4.836   5.711 -2.1843  0.6938  0.5385
   92SAPC  C220 8884   2.069   4.727   5.894 -0.1690  0.1301  0.3830
   92SAPC  H20R 8885   2.163   4.761   5.942 -0.6670 -0.4450  1.8470
   92SAPC  H20S 8886   2.048   4.623   5.928 -1.0741  0.0489 -0.3536
   92SAPC  H20T 8887   1.988   4.800   5.919 -1.5858 -0.3691 -2.3067
   92SAPC   C33 8888   1.885   3.914   6.603  0.2535  0.0515 -1.2043
   92SAPC   H3X 8889   1.794   3.851   6.604 -0.4691  1.0736 -0.9622
   92SAPC   H3Y 8890   1.974   3.847   6.600  1.6392  1.7971 -0.8376
   92SAPC   C34 8891   1.877   4.005   6.479  0.7640  0.0075 -0.3441
   92SAPC   H4X 8892   1.965   4.071   6.467 -0.3870  2.1100  1.8941
   92SAPC   H4Y 8893   1.789   4.072   6.491  0.8670 -0.1396  1.5458
   92SAPC   C35 8894   1.860   3.921   6.354 -0.1947 -0.1996  0.0334
   92SAPC   H5X 8895   1.848   3.814   6.380  0.0664 -0.2466 -0.0300
   92SAPC   H5Y 8896   1.951   3.934   6.291  0.3032 -1.9060  0.3493
   92SAPC   C36 8897   1.733   3.965   6.279 -0.1505  0.2553 -0.2942
   92SAPC   H6X 8898   1.744   4.072   6.251  4.3188  0.5572  1.5998
   92SAPC   H6Y 8899   1.648   3.969   6.350  0.6758 -1.8457  0.9273
   92SAPC   C37 8900   1.707   3.885   6.155 -0.1671 -0.9516  0.1970
   92SAPC   H7X 8901   1.641   3.928   6.077 -0.3686  2.3896  2.0337
   92SAPC   H7Y 8902   1.668   3.788   6.193  0.7163 -1.5068 -0.2502
   92SAPC   C38 8903   1.835   3.848   6.078  0.0159 -0.0863 -0.1986
   92SAPC   H8X 8904   1.907   3.781   6.130 -0.5188 -0.1378  0.4829
   92SAPC   H8Y 8905   1.883   3.938   6.036 -1.1246 -0.6501 -2.9626
   92SAPC   C39 8906   1.796   3.772   5.953 -0.2809  0.0775 -0.2857
   92SAPC   H9X 8907   1.726   3.826   5.886  0.1697  0.5372 -0.3985
   92SAPC   H9Y 8908   1.747   3.679   5.988  1.2667  0.4813  3.4468
   92SAPC  C310 8909   1.914   3.752   5.856  0.4002  0.1080  0.8079
   92SAPC  H10X 8910   1.991   3.689   5.906  0.2190 -2.9016 -2.3470
   92SAPC  H10Y 8911   1.955   3.852   5.832 -0.0785  0.0505 -0.3186
   92SAPC  C311 8912   1.887   3.686   5.723 -0.3637 -0.1329  0.4621
   92SAPC  H11X 8913   1.799   3.731   5.673  1.4462  1.4462 -1.4751
   92SAPC  H11Y 8914   1.871   3.576   5.733  2.7146 -0.6741  0.4636
   92SAPC  C312 8915   1.996   3.711   5.616 -0.0222 -0.2207  0.2454
   92SAPC  H12X 8916   1.999   3.635   5.536  2.6129  1.0729 -1.0089
   92SAPC  H12Y 8917   2.094   3.698   5.667 -0.8722 -1.2571  1.7145
   92SAPC  C313 8918   1.990   3.853   5.552  0.2318  0.4948  0.5028
   92SAPC  H13X 8919   2.028   3.924   5.628 -1.8424  2.1667  0.0830
   92SAPC  H13Y 8920   1.890   3.892   5.524  1.0239  2.5422  0.3630
   92SAPC  C314 8921   2.065   3.866   5.422  0.0087 -0.7828  0.1849
   92SAPC  H14X 8922   2.035   3.965   5.382  1.2897 -1.3043 -2.2633
   92SAPC  H14Y 8923   2.032   3.793   5.345 -0.6570 -0.8598  0.5398
   92SAPC  C315 8924   2.220   3.872   5.452 -0.2597 -0.4515 -0.6133
   92SAPC  H15X 8925   2.250   3.778   5.503 -2.1692 -0.1791  1.1373
   92SAPC  H15Y 8926   2.242   3.957   5.520 -2.2152 -0.1425 -0.3141
   92SAPC  C316 8927   2.299   3.914   5.320 -0.1752 -0.7659 -0.0647
   92SAPC  H16X 8928   2.283   3.839   5.239 -2.9476 -1.6488  1.1843
   92SAPC  H16Y 8929   2.405   3.920   5.352 -0.0914  1.3990 -0.5792
   92SAPC  C317 8930   2.259   4.053   5.275 -0.5199  0.3329 -0.2978
   92SAPC  H17X 8931   2.265   4.122   5.362  2.5958 -1.1660  0.8443
   92SAPC  H17Y 8932   2.159   4.033   5.231 -1.6050  1.7150  1.4182
   92SAPC  C318 8933   2.351   4.100   5.157  0.2604 -0.5714 -0.6413
   92SAPC  H18X 8934   2.291   4.112   5.064  0.8609 -0.9055 -1.0803
   92SAPC  H18Y 8935   2.439   4.036   5.135  0.7103 -0.4802  0.7938
   92SAPC  H18Z 8936   2.385   4.203   5.182  0.9389 -1.4377  2.3531
   93SAPC     N 8937   2.197   6.494   7.766  0.2186 -0.0024  0.4623
   93SAPC   C12 8938   2.103   6.393   7.691  0.2916 -0.6339 -0.4957
   93SAPC  H12A 8939   2.002   6.429   7.710  0.8776 -0.1365  2.0896
   93SAPC  H12B 8940   2.097   6.300   7.745  0.2970 -0.4232 -0.1292
   93SAPC   C13 8941   2.325   6.443   7.772  0.4834 -0.6533 -0.5614
   93SAPC  H13A 8942   2.363   6.439   7.670 -0.6773  0.7502 -1.0878
   93SAPC  H13B 8943   2.399   6.490   7.835  1.2365 -1.1819 -1.0240
   93SAPC  H13C 8944   2.322   6.342   7.809 -1.6940 -0.4454 -0.0371
   93SAPC   C14 8945   2.188   6.631   7.711 -0.0122 -1.2683 -0.1966
   93SAPC  H14A 8946   2.209   6.639   7.605  0.1015 -1.0827 -0.1601
   93SAPC  H14B 8947   2.086   6.665   7.719  0.3263 -0.3343  0.2515
   93SAPC  H14C 8948   2.256   6.705   7.750 -2.0605  1.3190 -1.1887
   93SAPC   C15 8949   2.133   6.497   7.906  0.6808 -0.4879  0.7911
   93SAPC  H15A 8950   2.191   6.558   7.974  0.3724  2.0074 -1.0583
   93SAPC  H15B 8951   2.037   6.545   7.894 -0.1064 -1.8447  1.3722
   93SAPC  H15C 8952   2.124   6.399   7.952 -0.7175 -0.1812  1.2165
   93SAPC   C11 8953   2.129   6.380   7.541 -0.1440 -0.2135  0.0344
   93SAPC  H11A 8954   2.132   6.477   7.488 -1.4303 -1.7689 -3.1209
   93SAPC  H11B 8955   2.044   6.338   7.483 -0.0816  1.2566 -1.1770
   93SAPC     P 8956   2.247   6.152   7.510 -0.1851  0.3826  0.1063
   93SAPC   O13 8957   2.380   6.098   7.541 -0.4535 -0.4204  0.1652
   93SAPC   O14 8958   2.136   6.104   7.596 -0.5553 -0.0968 -0.4663
   93SAPC   O12 8959   2.249   6.310   7.521 -0.4256  0.0097  0.6193
   93SAPC   O11 8960   2.213   6.122   7.358  0.2229 -0.0097 -0.0119
   93SAPC    C1 8961   2.256   6.200   7.248 -0.5543 -0.9769  0.6694
   93SAPC    HA 8962   2.215   6.303   7.256 -1.8516 -1.5467  1.8003
   93SAPC    HB 8963   2.367   6.203   7.247 -0.5540  1.3839  1.7263
   93SAPC    C2 8964   2.199   6.145   7.116 -0.2097 -0.0027  0.5236
   93SAPC    HS 8965   2.226   6.038   7.102 -0.9238  0.1224 -2.4682
   93SAPC   O21 8966   2.251   6.222   7.001 -0.4454  0.3112  0.3319
   93SAPC   C21 8967   2.365   6.176   6.959  0.4329 -0.2603 -0.1717
   93SAPC   O22 8968   2.427   6.083   7.005 -0.2180 -0.5594 -0.4528
   93SAPC   C22 8969   2.409   6.252   6.832  0.4113 -0.7719  0.3830
   93SAPC   H2R 8970   2.327   6.260   6.758  1.1529  2.6779 -0.2542
   93SAPC   H2S 8971   2.420   6.355   6.875 -2.3131 -0.2025 -0.1033
   93SAPC    C3 8972   2.045   6.139   7.134  0.5669 -0.2779  0.4973
   93SAPC    HX 8973   2.011   6.244   7.123  0.9427 -0.1184  0.8100
   93SAPC    HY 8974   2.021   6.121   7.241 -1.5420 -0.6387 -0.0048
   93SAPC   O31 8975   1.978   6.052   7.037 -0.6577  0.3656 -0.1002
   93SAPC   C31 8976   1.958   5.926   7.069 -0.4860  0.2701  0.1460
   93SAPC   O32 8977   1.993   5.867   7.168  0.0914 -0.4021 -0.2692
   93SAPC   C32 8978   1.882   5.870   6.954 -0.0376 -0.5371  0.0304
   93SAPC   H2X 8979   1.800   5.944   6.937  2.2745  2.2342  0.0748
   93SAPC   H2Y 8980   1.832   5.778   6.991  0.7799 -0.3085  1.8359
   93SAPC   C23 8981   2.544   6.209   6.772  0.2090  0.0298 -0.3566
   93SAPC   H3R 8982   2.554   6.106   6.731  4.5602 -0.7637  2.0503
   93SAPC   H3S 8983   2.624   6.217   6.849  1.7253  2.9170 -2.0549
   93SAPC   C24 8984   2.589   6.303   6.656 -0.2661 -0.1705 -0.7603
   93SAPC   H4R 8985   2.693   6.280   6.622 -0.0551 -2.4297  1.1392
   93SAPC   H4S 8986   2.592   6.410   6.683 -0.3865 -0.1763 -0.7244
   93SAPC   C25 8987   2.502   6.281   6.536 -0.3531 -0.4264 -0.2363
   93SAPC   H5R 8988   2.495   6.174   6.511  1.4965 -0.5875 -0.1623
   93SAPC   C26 8989   2.412   6.359   6.468  0.6067 -0.3680 -0.5031
   93SAPC   H6R 8990   2.359   6.316   6.381  1.4029 -2.4784  0.0081
   93SAPC   C27 8991   2.404   6.510   6.491 -0.0445  1.0134  0.3548
   93SAPC   H7R 8992   2.478   6.540   6.568  0.4239 -0.8871  0.7038
   93SAPC   H7S 8993   2.302   6.542   6.521 -1.1730  0.2609 -2.2996
   93SAPC   C28 8994   2.438   6.573   6.361  0.4177  0.2114 -0.1545
   93SAPC   H8R 8995   2.544   6.591   6.338  0.1752  0.3869 -1.2242
   93SAPC   C29 8996   2.347   6.617   6.268  0.0127  0.2305  0.0564
   93SAPC   H9R 8997   2.377   6.679   6.182 -3.1705  0.9665 -0.6688
   93SAPC  C210 8998   2.196   6.590   6.278 -0.0892 -0.2849 -0.0049
   93SAPC  H10R 8999   2.152   6.590   6.380 -2.1043  0.5387 -0.8136
   93SAPC  H10S 9000   2.181   6.485   6.246 -0.5566  0.6622 -3.2646
   93SAPC  C211 9001   2.093   6.665   6.197  0.5542  0.2081  0.4970
   93SAPC  H11R 9002   2.036   6.737   6.257  0.9861  0.0223  1.1423
   93SAPC  C212 9003   2.076   6.660   6.068 -0.0170  0.0447  1.3711
   93SAPC  H12R 9004   1.988   6.711   6.025 -0.7426 -1.9662  0.3665
   93SAPC  C213 9005   2.152   6.585   5.961  0.3519 -0.0293  0.3959
   93SAPC  H13R 9006   2.088   6.531   5.888 -1.4388  2.6477 -0.1764
   93SAPC  H13S 9007   2.233   6.515   5.993  0.3348  0.2598  1.0906
   93SAPC  C214 9008   2.227   6.703   5.890  0.2939  0.1414  0.0933
   93SAPC  H14R 9009   2.291   6.769   5.951  2.0473 -1.0686 -0.3462
   93SAPC  C215 9010   2.240   6.709   5.756 -0.2018  0.1245  0.6870
   93SAPC  H15R 9011   2.312   6.781   5.713 -0.6521  0.0393 -0.2481
   93SAPC  C216 9012   2.174   6.617   5.652  0.5152 -1.0327 -0.2366
   93SAPC  H16R 9013   2.080   6.671   5.630  1.5475  1.0687  0.1667
   93SAPC  H16S 9014   2.163   6.516   5.697  1.4683 -1.5832 -1.2016
   93SAPC  C217 9015   2.263   6.609   5.525 -0.2782 -0.6373 -0.5357
   93SAPC  H17R 9016   2.354   6.548   5.544 -0.3899 -1.9117 -3.5476
   93SAPC  H17S 9017   2.289   6.711   5.488  2.6604 -1.2868 -0.5006
   93SAPC  C218 9018   2.203   6.538   5.403  0.4234  0.3677  0.2156
   93SAPC  H18R 9019   2.101   6.577   5.386  0.1026  0.2878  1.8650
   93SAPC  H18S 9020   2.206   6.429   5.424  2.0404 -0.0580 -1.7725
   93SAPC  C219 9021   2.292   6.538   5.273  0.0146  0.5801  0.3023
   93SAPC  H19R 9022   2.289   6.641   5.232  4.1379  0.7230 -0.0257
   93SAPC  H19S 9023   2.243   6.477   5.194  1.8088  0.2809 -0.6328
   93SAPC  C220 9024   2.436   6.489   5.292 -0.1123 -0.3518  0.1332
   93SAPC  H20R 9025   2.496   6.549   5.363  2.0789 -1.2894 -0.8104
   93SAPC  H20S 9026   2.501   6.504   5.203 -0.3547 -1.5971 -0.2845
   93SAPC  H20T 9027   2.443   6.382   5.322  0.8599 -0.2696  0.2490
   93SAPC   C33 9028   1.971   5.842   6.828 -0.5399  0.3650 -0.8042
   93SAPC   H3X 9029   2.027   5.747   6.844 -0.1988  0.4305 -1.5713
   93SAPC   H3Y 9030   2.059   5.909   6.821 -0.2180  0.1030  0.4909
   93SAPC   C34 9031   1.897   5.835   6.696  0.1224 -0.1714 -0.4406
   93SAPC   H4X 9032   1.844   5.930   6.670 -0.8577 -0.7578 -0.6460
   93SAPC   H4Y 9033   1.815   5.762   6.711 -0.8506  1.0578  0.5354
   93SAPC   C35 9034   1.991   5.801   6.588  0.7272  0.3610  0.4322
   93SAPC   H5X 9035   2.052   5.721   6.633  0.1346 -1.3879 -1.7191
   93SAPC   H5Y 9036   2.051   5.892   6.563  0.7507  0.0019 -0.8943
   93SAPC   C36 9037   1.915   5.764   6.455 -0.2408 -0.1906  0.2195
   93SAPC   H6X 9038   1.856   5.854   6.429 -1.4388 -1.1970 -0.6215
   93SAPC   H6Y 9039   1.832   5.695   6.482  0.2620 -0.1630  1.9761
   93SAPC   C37 9040   1.998   5.714   6.342  0.0831  0.5824  0.4592
   93SAPC   H7X 9041   1.964   5.611   6.317  1.7218  0.0549  0.3006
   93SAPC   H7Y 9042   2.100   5.694   6.381  0.6060 -1.7460 -1.7937
   93SAPC   C38 9043   1.996   5.802   6.217 -0.2277  0.5253  0.4498
   93SAPC   H8X 9044   2.082   5.873   6.221 -1.0537  1.5112  1.1862
   93SAPC   H8Y 9045   1.903   5.858   6.196 -0.5884 -0.3928 -0.5483
   93SAPC   C39 9046   2.016   5.715   6.091 -0.4160  0.5899 -0.6621
   93SAPC   H9X 9047   1.923   5.655   6.087 -0.8756  0.7409  3.5560
   93SAPC   H9Y 9048   2.106   5.651   6.097 -1.2291 -0.4655  0.6180
   93SAPC  C310 9049   2.024   5.807   5.963 -0.3027  0.2668  0.9385
   93SAPC  H10X 9050   2.108   5.880   5.969 -0.2199  0.1344  1.3904
   93SAPC  H10Y 9051   1.934   5.870   5.952 -0.2648  0.2565  0.5459
   93SAPC  C311 9052   2.047   5.718   5.836 -0.7382 -0.3727 -0.3874
   93SAPC  H11X 9053   1.954   5.659   5.822  0.0359 -1.6336 -0.3773
   93SAPC  H11Y 9054   2.130   5.646   5.856 -1.4924 -0.5641  2.5721
   93SAPC  C312 9055   2.067   5.812   5.714 -0.5285  0.2019 -0.1612
   93SAPC  H12X 9056   2.166   5.862   5.717  0.2348 -1.2775  0.7463
   93SAPC  H12Y 9057   1.984   5.885   5.717 -1.7254 -0.9897 -2.1676
   93SAPC  C313 9058   2.063   5.719   5.593  0.4748  0.2022 -0.2547
   93SAPC  H13X 9059   1.988   5.639   5.613  0.8002 -0.3117 -1.0709
   93SAPC  H13Y 9060   2.162   5.670   5.581 -0.2052 -1.4127  0.5265
   93SAPC  C314 9061   2.018   5.805   5.474 -0.4611 -0.4735 -0.2077
   93SAPC  H14X 9062   2.102   5.877   5.464  2.1922 -2.9774  2.3422
   93SAPC  H14Y 9063   1.917   5.843   5.500 -1.3088 -3.2455  0.8316
   93SAPC  C315 9064   2.016   5.729   5.340  0.3800 -0.0876  0.1768
   93SAPC  H15X 9065   1.948   5.642   5.352 -1.6069  1.5314  1.4230
   93SAPC  H15Y 9066   2.118   5.686   5.326 -1.0181 -3.7303  0.1136
   93SAPC  C316 9067   1.987   5.806   5.212  0.4365 -0.1829 -0.6658
   93SAPC  H16X 9068   2.067   5.875   5.178 -0.3510  1.4048  0.5533
   93SAPC  H16Y 9069   1.895   5.867   5.227 -0.4039 -1.2307 -1.4464
   93SAPC  C317 9070   1.961   5.708   5.101 -0.4426 -1.0375 -0.2683
   93SAPC  H17X 9071   1.869   5.648   5.118 -1.6693  0.1445 -2.2620
   93SAPC  H17Y 9072   2.050   5.641   5.102  1.0938  0.9158  0.0783
   93SAPC  C318 9073   1.946   5.775   4.965 -0.1197  0.3523 -0.0199
   93SAPC  H18X 9074   2.036   5.833   4.937 -1.1839  2.6908  1.1324
   93SAPC  H18Y 9075   1.863   5.849   4.961  0.4769  1.1888  1.8412
   93SAPC  H18Z 9076   1.922   5.701   4.885  0.0044 -0.2883  0.5328
   94SAPC     N 9077   6.448   3.265   6.851  0.4894  0.2999  0.2261
   94SAPC   C12 9078   6.506   3.274   6.712 -0.2744 -0.7187  0.1183
   94SAPC  H12A 9079   6.515   3.376   6.678 -1.5604 -0.9063 -0.8681
   94SAPC  H12B 9080   6.431   3.241   6.643 -0.5806 -0.9792  0.5699
   94SAPC   C13 9081   6.308   3.320   6.856 -0.2506 -0.2184  1.1238
   94SAPC  H13A 9082   6.241   3.264   6.794 -0.0933  0.1235  0.6425
   94SAPC  H13B 9083   6.270   3.318   6.957  0.2119 -0.2696  1.2996
   94SAPC  H13C 9084   6.308   3.420   6.816  1.9091 -1.6297 -2.9867
   94SAPC   C14 9085   6.436   3.120   6.895 -0.4695  0.2181  0.1870
   94SAPC  H14A 9086   6.366   3.069   6.830 -1.6733  1.1040  0.7478
   94SAPC  H14B 9087   6.529   3.067   6.887 -0.6689 -0.0526 -0.3499
   94SAPC  H14C 9088   6.411   3.109   7.000  1.2420 -2.6611  0.3959
   94SAPC   C15 9089   6.537   3.329   6.950  0.0779  0.6923 -0.7844
   94SAPC  H15A 9090   6.634   3.291   6.919 -0.7465 -2.2444 -0.0392
   94SAPC  H15B 9091   6.533   3.437   6.945  1.9170  0.8041 -0.7384
   94SAPC  H15C 9092   6.518   3.302   7.053  1.0405 -0.0554 -0.7894
   94SAPC   C11 9093   6.642   3.208   6.677 -0.3703 -0.0129  0.0429
   94SAPC  H11A 9094   6.660   3.214   6.568  1.2541  0.9904  0.3307
   94SAPC  H11B 9095   6.627   3.101   6.701 -0.4246  0.1510  0.7756
   94SAPC     P 9096   6.819   3.394   6.732 -0.0069 -0.2248  0.3039
   94SAPC   O13 9097   6.713   3.501   6.725  0.2428 -0.0559 -0.9366
   94SAPC   O14 9098   6.926   3.411   6.831 -0.0995  0.0689 -0.1259
   94SAPC   O12 9099   6.748   3.258   6.762 -0.7287 -0.5091  0.2599
   94SAPC   O11 9100   6.879   3.379   6.584  0.0539 -0.3909  0.0210
   94SAPC    C1 9101   6.864   3.484   6.492 -0.5323  0.4322  0.1605
   94SAPC    HA 9102   6.765   3.466   6.445 -1.3013  1.6619  1.2395
   94SAPC    HB 9103   6.861   3.588   6.531 -3.2675  0.4992 -0.0734
   94SAPC    C2 9104   6.978   3.469   6.386 -0.3570  0.0991 -0.0937
   94SAPC    HS 9105   7.076   3.478   6.439  0.5788  0.1719 -1.7372
   94SAPC   O21 9106   6.966   3.579   6.297 -0.1458 -0.3298  0.3716
   94SAPC   C21 9107   7.084   3.613   6.237  0.2298  0.3969  0.0988
   94SAPC   O22 9108   7.193   3.567   6.266  0.2121  0.0914  0.0606
   94SAPC   C22 9109   7.052   3.717   6.136 -0.7264 -0.0881 -0.6408
   94SAPC   H2R 9110   6.942   3.714   6.123 -1.4525  0.5601  3.7590
   94SAPC   H2S 9111   7.067   3.816   6.185  1.6890 -0.2357 -0.9463
   94SAPC    C3 9112   6.959   3.337   6.310  0.1493 -0.5460  0.6632
   94SAPC    HX 9113   6.857   3.341   6.265  0.9619 -1.6149 -1.3943
   94SAPC    HY 9114   6.951   3.244   6.370 -0.5567 -0.4666  0.7045
   94SAPC   O31 9115   7.050   3.327   6.203  0.2728 -0.0588 -0.2054
   94SAPC   C31 9116   7.170   3.288   6.240  0.2050 -0.0259  0.2301
   94SAPC   O32 9117   7.208   3.255   6.352 -0.0705 -0.7603 -0.6818
   94SAPC   C32 9118   7.267   3.303   6.115 -0.2622  0.7782  0.3101
   94SAPC   H2X 9119   7.274   3.410   6.087 -1.4489  0.5612 -0.9027
   94SAPC   H2Y 9120   7.225   3.241   6.033  1.6223  0.6838 -0.6357
   94SAPC   C23 9121   7.122   3.703   6.001 -0.0200  0.0142  0.3894
   94SAPC   H3R 9122   7.215   3.643   6.007 -0.0850 -0.0204  1.1142
   94SAPC   H3S 9123   7.153   3.804   5.965 -0.3456  0.7876  2.1523
   94SAPC   C24 9124   7.025   3.631   5.888  0.0600 -0.3148  0.3290
   94SAPC   H4R 9125   7.069   3.647   5.787 -2.0064  1.1969 -0.4082
   94SAPC   H4S 9126   6.934   3.694   5.898 -0.0340 -0.3772 -0.1233
   94SAPC   C25 9127   6.997   3.488   5.919 -0.5336  0.8050 -0.3012
   94SAPC   H5R 9128   6.965   3.466   6.022  0.0398  0.0343 -0.2806
   94SAPC   C26 9129   7.029   3.386   5.833 -0.2973  0.0752 -0.2241
   94SAPC   H6R 9130   7.010   3.280   5.854 -0.2427 -0.2115 -1.5327
   94SAPC   C27 9131   7.102   3.413   5.697  0.0339 -0.0791 -0.0694
   94SAPC   H7R 9132   7.068   3.504   5.645 -0.3879  0.1422  0.5754
   94SAPC   H7S 9133   7.071   3.334   5.625  1.1562  1.6505 -2.5747
   94SAPC   C28 9134   7.253   3.399   5.700  0.4290 -0.1946  0.2116
   94SAPC   H8R 9135   7.285   3.332   5.781  0.2853  1.4771  1.7132
   94SAPC   C29 9136   7.337   3.468   5.628  0.0795  0.3255  0.1234
   94SAPC   H9R 9137   7.441   3.435   5.645 -0.2939 -0.5258  0.8565
   94SAPC  C210 9138   7.296   3.586   5.539  0.2686  0.2965 -0.5289
   94SAPC  H10R 9139   7.388   3.646   5.521  1.0658 -0.4107  0.9485
   94SAPC  H10S 9140   7.220   3.654   5.582 -0.8644 -1.3026  0.0984
   94SAPC  C211 9141   7.241   3.535   5.416  0.0480 -1.0180 -0.2841
   94SAPC  H11R 9142   7.196   3.435   5.424 -2.6952  0.0632 -0.9824
   94SAPC  C212 9143   7.247   3.590   5.296 -0.4644  0.0250 -0.2531
   94SAPC  H12R 9144   7.203   3.544   5.206  0.0418 -0.9856 -0.0004
   94SAPC  C213 9145   7.313   3.718   5.272 -0.1651  0.5177 -0.8629
   94SAPC  H13R 9146   7.311   3.789   5.357  0.9243 -0.9147  0.4212
   94SAPC  H13S 9147   7.256   3.776   5.196  0.3900  0.3408 -1.4271
   94SAPC  C214 9148   7.459   3.709   5.220 -0.0249  0.3970 -0.5578
   94SAPC  H14R 9149   7.538   3.694   5.295 -0.0603  1.9067 -0.1881
   94SAPC  C215 9150   7.505   3.737   5.097 -0.0421  0.6784  0.5046
   94SAPC  H15R 9151   7.612   3.729   5.071 -0.0105  1.5936  0.2932
   94SAPC  C216 9152   7.429   3.769   4.968  0.6638  0.3249  0.1425
   94SAPC  H16R 9153   7.438   3.875   4.934 -2.5217  0.8973  0.7395
   94SAPC  H16S 9154   7.323   3.752   4.997  1.0280  2.0660  2.9476
   94SAPC  C217 9155   7.460   3.677   4.845 -0.4602  0.1185  0.6146
   94SAPC  H17R 9156   7.544   3.709   4.780 -1.6516  0.5169 -0.8127
   94SAPC  H17S 9157   7.374   3.685   4.774 -0.1625 -1.5862  0.0207
   94SAPC  C218 9158   7.472   3.529   4.871  0.2743  0.6454  0.3888
   94SAPC  H18R 9159   7.387   3.491   4.931 -0.2604  1.1804 -0.0132
   94SAPC  H18S 9160   7.563   3.495   4.925  0.6206 -1.2742 -1.2885
   94SAPC  C219 9161   7.480   3.455   4.740 -0.5090  0.4824  0.9307
   94SAPC  H19R 9162   7.550   3.493   4.662  1.2370 -0.5936  1.9032
   94SAPC  H19S 9163   7.383   3.461   4.685  0.6188  2.8562 -1.0277
   94SAPC  C220 9164   7.518   3.311   4.773 -0.8748 -0.5586  0.4132
   94SAPC  H20R 9165   7.557   3.260   4.683  1.4610 -0.8414  1.4972
   94SAPC  H20S 9166   7.428   3.257   4.811  0.5773 -2.8135  0.7854
   94SAPC  H20T 9167   7.591   3.299   4.856 -0.3441  0.8695  0.1830
   94SAPC   C33 9168   7.410   3.241   6.150  0.5522 -0.2155 -0.1278
   94SAPC   H3X 9169   7.397   3.136   6.183  0.6597  0.4188  2.0370
   94SAPC   H3Y 9170   7.467   3.287   6.233  1.7160 -0.5355 -0.7240
   94SAPC   C34 9171   7.507   3.229   6.030 -0.0982 -0.6411  0.8462
   94SAPC   H4X 9172   7.461   3.162   5.954  0.2096  0.4015 -0.2752
   94SAPC   H4Y 9173   7.591   3.185   6.089  0.9745  2.0260  1.4414
   94SAPC   C35 9174   7.546   3.358   5.970  0.4666 -0.3394 -0.6123
   94SAPC   H5X 9175   7.596   3.424   6.044  0.2400 -1.6640  0.7655
   94SAPC   H5Y 9176   7.464   3.422   5.932 -0.4743 -0.4370  1.1677
   94SAPC   C36 9177   7.648   3.350   5.856  0.2089 -0.4976 -0.8693
   94SAPC   H6X 9178   7.612   3.282   5.775 -0.7579  0.5904 -1.3808
   94SAPC   H6Y 9179   7.739   3.301   5.896 -0.6641 -0.8932  0.7082
   94SAPC   C37 9180   7.688   3.489   5.802 -0.1725 -0.0305  0.0906
   94SAPC   H7X 9181   7.737   3.554   5.877  0.9939 -1.0273  0.2106
   94SAPC   H7Y 9182   7.587   3.532   5.783 -0.3824 -0.5815 -0.0439
   94SAPC   C38 9183   7.783   3.475   5.681 -0.2333  0.3283  0.1285
   94SAPC   H8X 9184   7.866   3.408   5.709 -0.7984  0.0340  1.1613
   94SAPC   H8Y 9185   7.838   3.571   5.668  1.9807 -0.7271  1.1915
   94SAPC   C39 9186   7.705   3.433   5.554 -0.1134  0.5527  0.3370
   94SAPC   H9X 9187   7.656   3.526   5.517  0.4120  1.1024  0.9917
   94SAPC   H9Y 9188   7.635   3.349   5.574  1.9332 -1.0455  1.0936
   94SAPC  C310 9189   7.804   3.384   5.447 -0.2753  0.3383 -0.0188
   94SAPC  H10X 9190   7.868   3.307   5.496 -0.6730 -1.0289 -1.5495
   94SAPC  H10Y 9191   7.869   3.468   5.415  1.3113  0.1419  2.3964
   94SAPC  C311 9192   7.737   3.331   5.315 -0.0409  0.8178 -0.4417
   94SAPC  H11X 9193   7.662   3.405   5.279  0.2303  0.1935 -2.3991
   94SAPC  H11Y 9194   7.682   3.234   5.318  3.4121 -1.4194 -2.6755
   94SAPC  C312 9195   7.839   3.306   5.200  0.7914 -0.5704 -0.0932
   94SAPC  H12X 9196   7.783   3.271   5.111 -1.1581  1.8249  0.0754
   94SAPC  H12Y 9197   7.917   3.229   5.217  3.5035  1.9520 -0.3741
   94SAPC  C313 9198   7.913   3.432   5.158 -0.3023 -0.6345 -0.0373
   94SAPC  H13X 9199   7.989   3.463   5.233  1.0345 -0.2790 -1.4841
   94SAPC  H13Y 9200   7.836   3.512   5.152 -2.8324 -2.9871 -1.5230
   94SAPC  C314 9201   7.991   3.418   5.025  0.3442 -0.1392  0.3971
   94SAPC  H14X 9202   8.065   3.336   5.036  0.2397 -0.4784 -1.2757
   94SAPC  H14Y 9203   8.043   3.515   5.008  0.6089 -0.1620  1.0351
   94SAPC  C315 9204   7.915   3.406   4.895 -0.4112  0.0331  0.1525
   94SAPC  H15X 9205   7.852   3.497   4.892  1.4481  1.3677 -2.5708
   94SAPC  H15Y 9206   7.848   3.319   4.879 -1.4601  1.1559 -2.0849
   94SAPC  C316 9207   8.010   3.408   4.770  0.4435 -0.9299  0.2427
   94SAPC  H16X 9208   8.080   3.324   4.784  0.2087 -1.3644 -1.0526
   94SAPC  H16Y 9209   8.061   3.507   4.769  0.4399 -0.8952 -1.7285
   94SAPC  C317 9210   7.948   3.380   4.633  0.2209  0.1494 -0.3157
   94SAPC  H17X 9211   7.894   3.283   4.625 -0.1785  0.1865  1.4052
   94SAPC  H17Y 9212   8.031   3.388   4.560 -0.0023  0.8050 -0.5034
   94SAPC  C318 9213   7.855   3.497   4.584 -0.3812  0.2020  0.5492
   94SAPC  H18X 9214   7.896   3.600   4.586  3.4952 -1.1764  2.3652
   94SAPC  H18Y 9215   7.764   3.498   4.649 -0.0777  2.5765  1.0055
   94SAPC  H18Z 9216   7.833   3.477   4.477  2.8721  1.8998 -0.5602
   95SAPC     N 9217   4.477   6.761   2.363  0.0434 -0.3629  0.0205
   95SAPC   C12 9218   4.591   6.676   2.312  0.0579 -0.2418  0.6451
   95SAPC  H12A 9219   4.631   6.737   2.232 -0.6820 -2.1303 -1.2596
   95SAPC  H12B 9220   4.552   6.582   2.276 -2.1726 -0.3247  3.0214
   95SAPC   C13 9221   4.415   6.687   2.478  0.1416  0.3910 -0.4563
   95SAPC  H13A 9222   4.371   6.589   2.466  0.1380 -0.2567  3.4836
   95SAPC  H13B 9223   4.487   6.662   2.555 -0.7791  1.4442  0.7725
   95SAPC  H13C 9224   4.325   6.738   2.506 -1.4412 -1.5711 -1.6377
   95SAPC   C14 9225   4.528   6.886   2.420 -0.3719 -0.0993  0.1104
   95SAPC  H14A 9226   4.451   6.962   2.424 -0.7264 -0.4005 -0.6315
   95SAPC  H14B 9227   4.576   6.863   2.514  0.6775  1.1821 -0.0831
   95SAPC  H14C 9228   4.604   6.929   2.356 -2.1365  0.3596 -1.8139
   95SAPC   C15 9229   4.375   6.792   2.256  0.1248 -0.3994 -0.6045
   95SAPC  H15A 9230   4.321   6.710   2.211 -0.8152 -0.2951  0.2960
   95SAPC  H15B 9231   4.302   6.865   2.286  0.4870 -0.0565 -0.5506
   95SAPC  H15C 9232   4.421   6.847   2.175 -0.6437  0.1602 -0.6662
   95SAPC   C11 9233   4.712   6.642   2.404 -0.2736 -0.1462  0.2591
   95SAPC  H11A 9234   4.763   6.736   2.432  0.2526 -0.2290 -0.3874
   95SAPC  H11B 9235   4.784   6.589   2.337 -1.5899  0.7076 -1.9403
   95SAPC     P 9236   4.798   6.527   2.618  0.3743 -0.1040  0.2588
   95SAPC   O13 9237   4.749   6.419   2.706 -0.1696  0.2892 -0.1261
   95SAPC   O14 9238   4.916   6.507   2.530 -0.1619 -0.6014  0.2905
   95SAPC   O12 9239   4.674   6.565   2.521 -0.6064 -0.1831 -0.0513
   95SAPC   O11 9240   4.812   6.655   2.714  0.4569  0.0916  0.1175
   95SAPC    C1 9241   4.926   6.681   2.798 -0.4355 -0.0708 -0.0901
   95SAPC    HA 9242   4.994   6.594   2.789 -2.7792 -1.9784 -0.3738
   95SAPC    HB 9243   4.990   6.770   2.779 -0.5294  0.3646  1.4730
   95SAPC    C2 9244   4.882   6.680   2.943 -0.3350 -0.3392 -0.1939
   95SAPC    HS 9245   4.809   6.597   2.949 -2.6087  1.5218 -0.7554
   95SAPC   O21 9246   4.818   6.808   2.965 -0.0996  0.0806 -0.4919
   95SAPC   C21 9247   4.707   6.799   3.033 -0.2955 -0.3917 -0.0072
   95SAPC   O22 9248   4.664   6.699   3.093  0.9015 -0.5436  0.2562
   95SAPC   C22 9249   4.634   6.934   3.037 -0.6817 -0.6999 -0.0794
   95SAPC   H2R 9250   4.706   7.014   3.013 -0.3107 -0.4250  1.8298
   95SAPC   H2S 9251   4.550   6.923   2.964  1.0332 -1.6130 -2.0119
   95SAPC    C3 9252   4.996   6.639   3.045  0.0694  0.2961  0.4391
   95SAPC    HX 9253   5.086   6.699   3.018 -0.0915  0.7322  0.8584
   95SAPC    HY 9254   5.020   6.532   3.030 -2.6017 -0.1501 -1.3413
   95SAPC   O31 9255   4.968   6.671   3.182  0.5961 -0.2403 -0.0088
   95SAPC   C31 9256   4.903   6.578   3.249 -0.0223  0.3370  1.0549
   95SAPC   O32 9257   4.870   6.470   3.204 -0.1735  0.4383 -0.1675
   95SAPC   C32 9258   4.862   6.625   3.388 -0.4229  0.3493  0.5175
   95SAPC   H2X 9259   4.787   6.708   3.388 -0.0528  0.7515 -1.7650
   95SAPC   H2Y 9260   4.953   6.670   3.433  1.5004 -2.7914  0.0362
   95SAPC   C23 9261   4.573   6.981   3.169 -0.0505  0.3690 -0.3963
   95SAPC   H3R 9262   4.655   6.971   3.243 -0.4887  0.8074  0.1510
   95SAPC   H3S 9263   4.497   6.906   3.201  0.6484 -0.9605 -1.7077
   95SAPC   C24 9264   4.527   7.121   3.165  0.0742  0.4394  0.5799
   95SAPC   H4R 9265   4.608   7.191   3.136 -0.2719  0.1930 -1.1126
   95SAPC   H4S 9266   4.502   7.150   3.270 -1.1013 -0.1068  0.4637
   95SAPC   C25 9267   4.403   7.132   3.075  0.0273 -0.6385 -0.5955
   95SAPC   H5R 9268   4.420   7.174   2.975 -0.7709 -0.9458 -0.8755
   95SAPC   C26 9269   4.278   7.083   3.105  0.1772  0.0355  0.0514
   95SAPC   H6R 9270   4.196   7.099   3.033 -1.0443 -0.9689  1.1675
   95SAPC   C27 9271   4.237   7.019   3.236  0.3378  0.5651 -0.0292
   95SAPC   H7R 9272   4.316   6.988   3.308  0.2961 -0.9111 -0.5882
   95SAPC   H7S 9273   4.183   6.926   3.207  2.2681 -0.6376  0.0530
   95SAPC   C28 9274   4.146   7.119   3.305 -0.1049  0.5127  0.7649
   95SAPC   H8R 9275   4.067   7.159   3.239 -0.4844 -1.4963 -0.0816
   95SAPC   C29 9276   4.148   7.150   3.432  0.6698 -0.1198  0.4394
   95SAPC   H9R 9277   4.086   7.233   3.471  2.5301  0.2449  2.8790
   95SAPC  C210 9278   4.242   7.090   3.538  0.6236 -0.0804  0.0162
   95SAPC  H10R 9279   4.340   7.057   3.497  0.2777 -0.9075 -0.1680
   95SAPC  H10S 9280   4.195   6.989   3.546  0.4421 -0.3194 -2.8579
   95SAPC  C211 9281   4.239   7.164   3.670  0.0024  0.1704 -0.1411
   95SAPC  H11R 9282   4.193   7.108   3.753  0.6744  0.8435  0.7070
   95SAPC  C212 9283   4.318   7.266   3.710 -0.1193 -0.6312  0.2192
   95SAPC  H12R 9284   4.307   7.321   3.805 -0.1625 -0.8215  0.3260
   95SAPC  C213 9285   4.419   7.334   3.618 -0.4085  0.0512  0.2584
   95SAPC  H13R 9286   4.391   7.320   3.511  1.5306 -0.7675 -0.1983
   95SAPC  H13S 9287   4.506   7.265   3.628  0.3604  0.9649  0.0274
   95SAPC  C214 9288   4.454   7.481   3.652 -0.4491 -0.5185 -0.2101
   95SAPC  H14R 9289   4.400   7.563   3.601  0.6734  0.2330 -0.2203
   95SAPC  C215 9290   4.528   7.508   3.761 -0.1432 -0.1548 -0.5556
   95SAPC  H15R 9291   4.566   7.610   3.779  0.8853 -0.7818  1.0272
   95SAPC  C216 9292   4.589   7.414   3.858 -0.4594  0.4173 -0.2777
   95SAPC  H16R 9293   4.698   7.435   3.852 -0.0884 -1.6416 -1.9201
   95SAPC  H16S 9294   4.577   7.308   3.828 -0.5421  0.7227 -1.3745
   95SAPC  C217 9295   4.537   7.441   3.999  0.2008  0.0362  0.1669
   95SAPC  H17R 9296   4.427   7.427   4.000 -0.1040  2.0337  2.2077
   95SAPC  H17S 9297   4.563   7.540   4.041  0.4448  0.1651 -0.2806
   95SAPC  C218 9298   4.596   7.332   4.092  0.1143 -0.8501 -0.5405
   95SAPC  H18R 9299   4.705   7.344   4.107  0.1098  1.2923 -1.7401
   95SAPC  H18S 9300   4.583   7.230   4.049 -1.2949 -1.2942  0.8288
   95SAPC  C219 9301   4.527   7.336   4.231  0.1896 -0.5111  0.0113
   95SAPC  H19R 9302   4.418   7.314   4.228 -0.5478  2.5693  1.0882
   95SAPC  H19S 9303   4.530   7.439   4.271 -1.9902 -1.6102  3.5756
   95SAPC  C220 9304   4.598   7.254   4.337 -0.1441  0.5272  0.1334
   95SAPC  H20R 9305   4.588   7.148   4.304 -0.0495 -0.3663  2.7522
   95SAPC  H20S 9306   4.543   7.256   4.434  0.2234  1.0243  0.3339
   95SAPC  H20T 9307   4.705   7.281   4.341  0.0811  0.1786 -2.1653
   95SAPC   C33 9308   4.821   6.501   3.470  0.3826 -0.3935  0.5689
   95SAPC   H3X 9309   4.860   6.400   3.445  0.3785 -0.8775  2.3998
   95SAPC   H3Y 9310   4.717   6.485   3.434  0.7247  0.6116 -0.9824
   95SAPC   C34 9311   4.818   6.538   3.620 -0.3311 -0.8664  0.1749
   95SAPC   H4X 9312   4.741   6.618   3.628  1.3321  0.7950  0.2860
   95SAPC   H4Y 9313   4.908   6.598   3.646 -1.0141  0.5793 -0.6674
   95SAPC   C35 9314   4.791   6.416   3.707  0.2006  0.1962  0.0853
   95SAPC   H5X 9315   4.865   6.342   3.669  1.0490  0.8558  0.4249
   95SAPC   H5Y 9316   4.686   6.383   3.700 -0.3588  1.1743  2.8168
   95SAPC   C36 9317   4.811   6.440   3.858 -0.1277  0.3744  0.1152
   95SAPC   H6X 9318   4.740   6.519   3.889 -0.1778  0.4985 -0.3085
   95SAPC   H6Y 9319   4.914   6.478   3.876  0.6326 -0.3875 -2.2622
   95SAPC   C37 9320   4.794   6.305   3.939  0.0078  0.1897  0.4523
   95SAPC   H7X 9321   4.886   6.243   3.941 -0.5634 -0.6683  0.2968
   95SAPC   H7Y 9322   4.717   6.234   3.904 -0.1400  0.2968  0.5587
   95SAPC   C38 9323   4.750   6.351   4.077  0.2159  0.1779  0.0346
   95SAPC   H8X 9324   4.649   6.396   4.070  0.9049  1.7869  0.0098
   95SAPC   H8Y 9325   4.825   6.422   4.117  1.5035 -0.9464 -0.2737
   95SAPC   C39 9326   4.745   6.247   4.193 -0.5255 -0.1673  0.4105
   95SAPC   H9X 9327   4.834   6.182   4.183 -1.4409 -1.3525 -0.2447
   95SAPC   H9Y 9328   4.654   6.187   4.171 -0.1439 -0.0419 -1.6880
   95SAPC  C310 9329   4.743   6.307   4.333 -0.7214 -1.1206 -0.0910
   95SAPC  H10X 9330   4.683   6.399   4.317  0.1929 -0.4172  0.4464
   95SAPC  H10Y 9331   4.843   6.329   4.375  0.2790 -1.8066 -2.0073
   95SAPC  C311 9332   4.666   6.217   4.425 -0.0479  0.0854 -0.4681
   95SAPC  H11X 9333   4.711   6.115   4.431 -0.1247  0.0886  0.2664
   95SAPC  H11Y 9334   4.563   6.205   4.384 -1.5383  3.7326  1.7671
   95SAPC  C312 9335   4.666   6.267   4.569 -0.2016 -0.0560  0.1579
   95SAPC  H12X 9336   4.766   6.277   4.617 -0.6544  1.0690  0.9179
   95SAPC  H12Y 9337   4.600   6.200   4.627 -0.1196 -0.4016 -0.1496
   95SAPC  C313 9338   4.596   6.408   4.574 -0.0956  0.5046  0.1601
   95SAPC  H13X 9339   4.503   6.414   4.514 -0.8450  3.4083  1.4472
   95SAPC  H13Y 9340   4.666   6.480   4.526 -0.1969 -0.4978 -1.5573
   95SAPC  C314 9341   4.576   6.462   4.718 -0.0111 -0.2004  0.7975
   95SAPC  H14X 9342   4.503   6.399   4.774 -1.4099  0.8436  0.2230
   95SAPC  H14Y 9343   4.542   6.567   4.714  3.3028  1.0091  1.5772
   95SAPC  C315 9344   4.699   6.463   4.804  0.0304  0.8362 -0.5069
   95SAPC  H15X 9345   4.782   6.524   4.763  0.4102  2.1902  2.1236
   95SAPC  H15Y 9346   4.749   6.363   4.796 -1.3025 -0.1722  2.4197
   95SAPC  C316 9347   4.678   6.477   4.956 -0.0120  0.0387 -0.4088
   95SAPC  H16X 9348   4.624   6.388   4.995  0.1860 -0.0147 -0.2511
   95SAPC  H16Y 9349   4.621   6.572   4.965  0.8206  1.1548 -4.7345
   95SAPC  C317 9350   4.806   6.492   5.033 -0.0875  0.5242  0.1821
   95SAPC  H17X 9351   4.796   6.529   5.137 -0.6092 -0.9812  0.6930
   95SAPC  H17Y 9352   4.862   6.574   4.984  1.3606  0.5686  1.8443
   95SAPC  C318 9353   4.905   6.378   5.036 -0.4684  0.3300 -0.0418
   95SAPC  H18X 9354   4.924   6.332   4.936  1.9292  1.1103 -0.0163
   95SAPC  H18Y 9355   4.855   6.289   5.080  2.0821 -0.2827  1.8290
   95SAPC  H18Z 9356   4.998   6.394   5.095  1.7050 -1.1880 -2.7534
   96SAPC     N 9357   4.545   0.807   2.660  0.5732  0.7726  0.4285
   96SAPC   C12 9358   4.548   0.956   2.696 -0.2072  0.8698  0.0079
   96SAPC  H12A 9359   4.453   0.988   2.735 -0.7439 -1.9134  1.2431
   96SAPC  H12B 9360   4.561   1.022   2.611 -1.0743  2.5004  1.1054
   96SAPC   C13 9361   4.661   0.764   2.576  0.1758 -0.5081 -0.2500
   96SAPC  H13A 9362   4.752   0.801   2.619  1.1871 -1.0310 -1.8312
   96SAPC  H13B 9363   4.669   0.657   2.572 -1.7736 -0.6754 -1.1976
   96SAPC  H13C 9364   4.649   0.800   2.474  1.1499  0.0347 -0.1787
   96SAPC   C14 9365   4.537   0.716   2.777 -0.5821 -0.7870  0.2550
   96SAPC  H14A 9366   4.467   0.731   2.859 -0.1678  0.1104  0.4577
   96SAPC  H14B 9367   4.522   0.618   2.734  0.7062 -0.5001 -0.9215
   96SAPC  H14C 9368   4.636   0.713   2.819 -0.7046  1.1791  0.7861
   96SAPC   C15 9369   4.427   0.781   2.568 -0.3177 -0.4759 -0.0748
   96SAPC  H15A 9370   4.437   0.682   2.526  2.3405 -0.0162 -0.7152
   96SAPC  H15B 9371   4.334   0.787   2.622 -0.5448  0.6116 -0.5680
   96SAPC  H15C 9372   4.432   0.850   2.485 -0.9536 -1.1169 -0.6575
   96SAPC   C11 9373   4.664   0.997   2.780 -0.2426  0.1547 -0.1258
   96SAPC  H11A 9374   4.658   0.939   2.874  1.5717  0.8322  0.4483
   96SAPC  H11B 9375   4.650   1.101   2.818 -0.3667  0.7576 -1.7341
   96SAPC     P 9376   4.840   1.101   2.610 -0.0984 -0.2810 -0.2951
   96SAPC   O13 9377   4.909   1.033   2.500  0.1319  0.2238 -0.2072
   96SAPC   O14 9378   4.724   1.183   2.571  0.1096 -0.1275  0.3378
   96SAPC   O12 9379   4.784   0.993   2.710 -0.3203  0.2727 -0.1847
   96SAPC   O11 9380   4.938   1.180   2.708  0.3799 -0.7811  0.4425
   96SAPC    C1 9381   5.050   1.118   2.766 -0.3388 -0.5248 -0.8299
   96SAPC    HA 9382   5.094   1.032   2.711  4.1228  0.5244  0.6310
   96SAPC    HB 9383   5.136   1.188   2.777  0.1896 -1.1427 -0.9745
   96SAPC    C2 9384   5.012   1.078   2.907 -0.2527 -0.2557 -0.6117
   96SAPC    HS 9385   4.912   1.029   2.913 -1.5580  2.3316  0.1876
   96SAPC   O21 9386   5.012   1.209   2.980  0.2294  0.0348  0.1552
   96SAPC   C21 9387   4.913   1.219   3.066  0.3214  0.0509  0.2306
   96SAPC   O22 9388   4.827   1.130   3.083 -0.3079 -0.2041 -0.4580
   96SAPC   C22 9389   4.904   1.364   3.115  0.4230 -0.0797 -0.6894
   96SAPC   H2R 9390   4.987   1.427   3.076  0.4292  0.0830 -0.4218
   96SAPC   H2S 9391   4.804   1.403   3.090  0.0301 -0.4994  0.1773
   96SAPC    C3 9392   5.118   0.978   2.964 -0.1887 -0.1390 -0.1582
   96SAPC    HX 9393   5.216   1.028   2.951 -0.1750 -0.4256 -1.3017
   96SAPC    HY 9394   5.117   0.886   2.901 -1.2059 -1.4397  1.6717
   96SAPC   O31 9395   5.096   0.948   3.104  0.0232 -0.2173  0.2168
   96SAPC   C31 9396   5.063   0.831   3.129 -0.4062  0.4343 -0.5194
   96SAPC   O32 9397   5.034   0.741   3.053 -0.6108 -0.0747  0.1352
   96SAPC   C32 9398   5.063   0.817   3.281 -0.3256  0.5024 -0.1227
   96SAPC   H2X 9399   4.997   0.898   3.321 -0.2338 -0.6777  2.6636
   96SAPC   H2Y 9400   5.167   0.827   3.320  0.5625 -1.4735 -1.7975
   96SAPC   C23 9401   4.928   1.372   3.270  0.0422 -0.1703  0.2357
   96SAPC   H3R 9402   4.962   1.475   3.293 -1.6493  0.9265 -1.8686
   96SAPC   H3S 9403   5.012   1.303   3.296 -0.7273 -1.8692 -1.5372
   96SAPC   C24 9404   4.801   1.339   3.356 -0.2982  0.1112 -0.5243
   96SAPC   H4R 9405   4.745   1.248   3.326 -0.5272 -1.4812  3.9753
   96SAPC   H4S 9406   4.735   1.427   3.344 -0.2664  0.3003  0.5744
   96SAPC   C25 9407   4.853   1.340   3.504  0.1201 -0.1824  0.1058
   96SAPC   H5R 9408   4.857   1.438   3.553  1.2520 -0.4987  0.6748
   96SAPC   C26 9409   4.893   1.235   3.579 -1.2670 -0.6393 -0.6045
   96SAPC   H6R 9410   4.928   1.260   3.681  0.8239  2.9740 -1.9991
   96SAPC   C27 9411   4.924   1.098   3.520 -0.0450  0.0512  0.5563
   96SAPC   H7R 9412   5.036   1.096   3.523  0.0054 -2.6732 -0.0060
   96SAPC   H7S 9413   4.900   1.100   3.412  1.2335  3.2079  0.2256
   96SAPC   C28 9414   4.859   0.975   3.582 -0.2274  0.2394 -0.2839
   96SAPC   H8R 9415   4.803   0.912   3.512 -0.2714  1.1600 -1.1070
   96SAPC   C29 9416   4.892   0.917   3.699  0.6479  0.3283 -0.3610
   96SAPC   H9R 9417   4.846   0.820   3.722  0.2749  0.5575 -0.1416
   96SAPC  C210 9418   4.979   0.972   3.811  0.4966 -0.4953 -0.0053
   96SAPC  H10R 9419   4.917   1.034   3.880  0.5691  0.3556 -0.6800
   96SAPC  H10S 9420   5.053   1.038   3.761  0.9102  0.5538  1.8975
   96SAPC  C211 9421   5.052   0.870   3.886 -0.5033 -0.2400 -0.1153
   96SAPC  H11R 9422   5.118   0.816   3.817 -0.0892 -1.8539  1.4940
   96SAPC  C212 9423   5.052   0.855   4.022  0.2173  0.2987 -0.2520
   96SAPC  H12R 9424   5.112   0.770   4.058  0.7120  0.7817  0.0970
   96SAPC  C213 9425   4.970   0.940   4.123  0.6403 -0.2121 -0.0100
   96SAPC  H13R 9426   4.980   1.040   4.077  0.1620 -0.0294  0.2804
   96SAPC  H13S 9427   5.022   0.954   4.220  2.0564 -1.9275 -0.4619
   96SAPC  C214 9428   4.826   0.884   4.132 -0.7027 -0.0370  0.8258
   96SAPC  H14R 9429   4.789   0.839   4.039  1.5343  2.5509 -1.5150
   96SAPC  C215 9430   4.759   0.887   4.245  0.6777 -0.0900 -0.3364
   96SAPC  H15R 9431   4.659   0.841   4.240  1.4961 -2.2762  1.4753
   96SAPC  C216 9432   4.792   0.951   4.377 -0.1780  0.0633  0.3734
   96SAPC  H16R 9433   4.706   1.001   4.426 -1.2546 -1.1682 -0.2125
   96SAPC  H16S 9434   4.861   1.034   4.350 -0.0800 -0.5373 -1.3666
   96SAPC  C217 9435   4.857   0.856   4.479 -0.4578 -0.1458 -0.8919
   96SAPC  H17R 9436   4.950   0.809   4.438 -1.5881 -2.0167 -1.4491
   96SAPC  H17S 9437   4.788   0.772   4.503 -0.0125 -0.4270 -0.5754
   96SAPC  C218 9438   4.882   0.918   4.615  0.4997 -0.3520 -0.2835
   96SAPC  H18R 9439   4.905   0.844   4.695  2.1811  1.2656  0.8129
   96SAPC  H18S 9440   4.792   0.971   4.653  0.8716  0.4579 -0.5156
   96SAPC  C219 9441   5.005   1.018   4.615 -0.4321  0.1772 -0.3321
   96SAPC  H19R 9442   4.986   1.103   4.547  2.3981  0.4904 -0.8386
   96SAPC  H19S 9443   5.084   0.954   4.570 -1.1484 -1.4097  0.5473
   96SAPC  C220 9444   5.051   1.065   4.752 -0.0920 -0.6447  0.5298
   96SAPC  H20R 9445   5.086   0.980   4.814  0.6394  0.6523  1.9698
   96SAPC  H20S 9446   4.980   1.121   4.817 -0.2834 -2.6790  2.1765
   96SAPC  H20T 9447   5.149   1.116   4.744  0.9104 -1.9469  3.4798
   96SAPC   C33 9448   5.010   0.674   3.322  0.3376 -0.4918  0.1272
   96SAPC   H3X 9449   5.042   0.660   3.427  0.3499  0.1823  0.2217
   96SAPC   H3Y 9450   5.055   0.594   3.260  0.8583  1.5739 -2.3385
   96SAPC   C34 9451   4.853   0.647   3.303  0.5580 -0.2074 -0.1815
   96SAPC   H4X 9452   4.844   0.616   3.196  0.6844 -2.5509  0.4202
   96SAPC   H4Y 9453   4.801   0.744   3.317 -0.4116 -0.5116 -1.5052
   96SAPC   C35 9454   4.786   0.551   3.409  0.2424 -0.2782  0.3320
   96SAPC   H5X 9455   4.677   0.547   3.386 -0.2013 -1.3733  2.3727
   96SAPC   H5Y 9456   4.800   0.598   3.509  0.3081  3.7499 -1.3852
   96SAPC   C36 9457   4.843   0.407   3.395  0.1063  0.3521 -0.6342
   96SAPC   H6X 9458   4.951   0.404   3.422  0.0481 -0.5016 -0.4791
   96SAPC   H6Y 9459   4.832   0.385   3.287  0.8961  0.2685 -0.7029
   96SAPC   C37 9460   4.767   0.309   3.476  0.0528  0.6117 -0.6603
   96SAPC   H7X 9461   4.800   0.208   3.443  2.7147  0.6066  1.6225
   96SAPC   H7Y 9462   4.658   0.326   3.472  0.0545  0.8487  0.1847
   96SAPC   C38 9463   4.814   0.316   3.621 -0.2736 -0.7977  0.3221
   96SAPC   H8X 9464   4.766   0.407   3.663 -3.9104 -1.0507 -2.7233
   96SAPC   H8Y 9465   4.919   0.330   3.652 -0.2976 -1.7809  0.8709
   96SAPC   C39 9466   4.752   0.214   3.702  0.6708  0.1981 -0.0948
   96SAPC   H9X 9467   4.801   0.116   3.684 -1.2459 -0.5374 -1.5824
   96SAPC   H9Y 9468   4.649   0.195   3.667  1.3271  2.1131 -3.4878
   96SAPC  C310 9469   4.765   0.251   3.849  0.8753  0.5929  0.2462
   96SAPC  H10X 9470   4.697   0.337   3.865 -1.4388 -0.8073 -1.3515
   96SAPC  H10Y 9471   4.867   0.280   3.882  1.3796  0.2102 -0.9146
   96SAPC  C311 9472   4.710   0.131   3.929  0.0794  0.2923  0.7302
   96SAPC  H11X 9473   4.772   0.039   3.918  2.9404  2.0802  0.9058
   96SAPC  H11Y 9474   4.617   0.095   3.881  0.2662 -1.9238  1.8832
   96SAPC  C312 9475   4.728   0.148   4.083 -0.0044 -0.6593  0.0802
   96SAPC  H12X 9476   4.657   0.228   4.113  0.3807 -0.1620 -0.3245
   96SAPC  H12Y 9477   4.834   0.170   4.107  0.3698 -1.0923 -1.1119
   96SAPC  C313 9478   4.693   0.018   4.154 -0.1467  0.0938 -0.8903
   96SAPC  H13X 9479   4.771  -0.061   4.153 -0.9688 -0.7587  0.2740
   96SAPC  H13Y 9480   4.598  -0.029   4.121 -0.4159 -0.8479  1.0694
   96SAPC  C314 9481   4.674   0.039   4.308  1.0080  0.2070  0.6030
   96SAPC  H14X 9482   4.627  -0.054   4.346 -0.4192 -0.7328 -3.0152
   96SAPC  H14Y 9483   4.597   0.118   4.319  0.7497 -0.2288  2.1638
   96SAPC  C315 9484   4.810   0.067   4.370  0.4435  0.2902  0.1192
   96SAPC  H15X 9485   4.855   0.148   4.308 -2.0618  1.7991  0.1490
   96SAPC  H15Y 9486   4.885  -0.015   4.374  0.2420  0.1135  0.2203
   96SAPC  C316 9487   4.802   0.121   4.508  0.3576 -0.7046 -0.0894
   96SAPC  H16X 9488   4.720   0.195   4.517  0.0242 -1.3238  2.7286
   96SAPC  H16Y 9489   4.901   0.158   4.542  0.0729 -0.4554  0.4710
   96SAPC  C317 9490   4.759   0.019   4.609 -0.3690  0.9650  0.5839
   96SAPC  H17X 9491   4.819  -0.075   4.612 -0.0792  1.1525  0.7189
   96SAPC  H17Y 9492   4.659  -0.023   4.586  0.8436 -0.7885 -1.9920
   96SAPC  C318 9493   4.774   0.080   4.747 -0.3366  0.6409  0.0908
   96SAPC  H18X 9494   4.766   0.191   4.751 -0.9193  0.5797  1.1547
   96SAPC  H18Y 9495   4.865   0.050   4.803  1.8383  0.6652 -3.1664
   96SAPC  H18Z 9496   4.685   0.039   4.800 -0.0714 -1.2636 -0.8446
   97SAPC     N 9497   3.089   6.401   2.457 -0.3364  0.1183 -0.2163
   97SAPC   C12 9498   2.985   6.396   2.570  0.5407  0.1114 -0.4022
   97SAPC  H12A 9499   2.882   6.396   2.537 -0.3718 -0.6554  2.1706
   97SAPC  H12B 9500   2.994   6.488   2.626  0.4356 -0.3606  0.3976
   97SAPC   C13 9501   3.093   6.272   2.395  0.1435 -0.0526  0.3041
   97SAPC  H13A 9502   3.168   6.272   2.317 -1.0358  0.4802 -0.8754
   97SAPC  H13B 9503   3.127   6.196   2.464  0.8727 -0.3497 -0.3576
   97SAPC  H13C 9504   2.997   6.246   2.353 -0.5312 -0.1145  1.8173
   97SAPC   C14 9505   3.061   6.498   2.342  0.0729  0.0053  0.0533
   97SAPC  H14A 9506   3.141   6.496   2.270 -1.4674 -1.3375 -1.7524
   97SAPC  H14B 9507   2.974   6.467   2.286  0.5800 -2.2709  0.4216
   97SAPC  H14C 9508   3.059   6.599   2.380 -0.6182 -0.2457  0.7040
   97SAPC   C15 9509   3.222   6.437   2.521  0.1408  0.5834  0.5201
   97SAPC  H15A 9510   3.209   6.525   2.581  0.8252  0.0936  1.4143
   97SAPC  H15B 9511   3.247   6.357   2.590  3.0887 -0.3313 -1.4081
   97SAPC  H15C 9512   3.301   6.443   2.448  0.2191 -0.2727  0.5145
   97SAPC   C11 9513   2.999   6.287   2.681 -0.7541  0.8050  0.3510
   97SAPC  H11A 9514   2.995   6.190   2.627 -0.6057  2.2606 -2.4565
   97SAPC  H11B 9515   2.908   6.286   2.745  0.0845 -2.3525  1.7238
   97SAPC     P 9516   3.141   6.392   2.883 -0.0138 -0.0402  0.1704
   97SAPC   O13 9517   3.084   6.320   3.003 -0.0351 -0.7925  0.5295
   97SAPC   O14 9518   3.289   6.415   2.878  0.1558 -0.3067 -0.3353
   97SAPC   O12 9519   3.117   6.303   2.756  0.1399  0.6672 -0.0175
   97SAPC   O11 9520   3.065   6.531   2.863  0.8114 -0.3391 -0.3763
   97SAPC    C1 9521   2.948   6.565   2.941 -0.7873  0.6144 -0.4951
   97SAPC    HA 9522   2.883   6.636   2.887 -0.4017  1.8744  0.6458
   97SAPC    HB 9523   2.895   6.469   2.961  1.0692 -0.7563 -1.7248
   97SAPC    C2 9524   3.003   6.637   3.063  0.4609 -0.4283 -0.2761
   97SAPC    HS 9525   3.106   6.674   3.045  1.7839 -3.9593 -0.7297
   97SAPC   O21 9526   3.002   6.539   3.166 -0.4516  0.1739 -0.1397
   97SAPC   C21 9527   3.111   6.524   3.233  0.0814 -0.0620  0.4673
   97SAPC   O22 9528   3.211   6.593   3.225 -0.7199  0.2406 -0.5505
   97SAPC   C22 9529   3.094   6.401   3.323 -0.8306 -0.7502  0.3124
   97SAPC   H2R 9530   2.987   6.374   3.335 -1.5034  0.5358 -2.1106
   97SAPC   H2S 9531   3.136   6.318   3.262  0.6810  1.1812 -1.4380
   97SAPC    C3 9532   2.906   6.753   3.098 -0.3778 -0.0952 -0.4623
   97SAPC    HX 9533   2.808   6.708   3.122  0.1050 -0.6265  0.5985
   97SAPC    HY 9534   2.901   6.825   3.014 -1.0290  0.6030  0.1597
   97SAPC   O31 9535   2.962   6.825   3.217  0.0468 -0.3702  0.0267
   97SAPC   C31 9536   2.946   6.954   3.226  0.3392 -0.2870  0.6007
   97SAPC   O32 9537   2.912   7.037   3.144  0.3608  0.0420 -0.4887
   97SAPC   C32 9538   2.986   7.000   3.369 -0.4803 -0.1054 -0.0978
   97SAPC   H2X 9539   2.915   7.079   3.405 -0.0807  0.8347 -1.3031
   97SAPC   H2Y 9540   3.081   7.057   3.372 -1.6701  1.9914  2.0451
   97SAPC   C23 9541   3.176   6.418   3.451  0.1851 -0.1504  0.4499
   97SAPC   H3R 9542   3.176   6.520   3.494 -1.7378  0.2334 -0.3458
   97SAPC   H3S 9543   3.282   6.419   3.419 -0.4144  1.7320 -1.6966
   97SAPC   C24 9544   3.165   6.302   3.556 -0.0202 -0.0860  0.2220
   97SAPC   H4R 9545   3.063   6.303   3.602  0.2573 -1.0706  0.8914
   97SAPC   H4S 9546   3.233   6.325   3.640  3.0979 -3.7067 -1.0528
   97SAPC   C25 9547   3.197   6.166   3.489 -0.1967  0.2142 -0.1484
   97SAPC   H5R 9548   3.111   6.123   3.436 -0.7455  0.1436  0.7813
   97SAPC   C26 9549   3.324   6.111   3.489 -0.4179  0.8247 -0.8967
   97SAPC   H6R 9550   3.336   6.022   3.426 -1.6953 -0.2994  0.3526
   97SAPC   C27 9551   3.444   6.147   3.575  0.8887  0.2195  0.0422
   97SAPC   H7R 9552   3.427   6.240   3.634 -1.5337  1.0884 -1.8406
   97SAPC   H7S 9553   3.528   6.173   3.508  0.6458  0.7208 -0.0709
   97SAPC   C28 9554   3.491   6.023   3.655 -0.0875  0.2043 -0.1627
   97SAPC   H8R 9555   3.549   5.951   3.596  1.0765  0.3329  0.7787
   97SAPC   C29 9556   3.460   5.991   3.783 -0.0781  0.2012  0.0642
   97SAPC   H9R 9557   3.490   5.892   3.823 -1.0675 -0.1784 -0.1023
   97SAPC  C210 9558   3.395   6.070   3.888 -0.5852  0.2456 -0.4998
   97SAPC  H10R 9559   3.413   6.179   3.878  0.6715  0.1752  0.7338
   97SAPC  H10S 9560   3.431   6.038   3.988  1.3843  3.3354 -0.0909
   97SAPC  C211 9561   3.244   6.054   3.887  0.1982 -0.8757  0.1873
   97SAPC  H11R 9562   3.196   6.010   3.799 -1.1398  1.5526 -0.3976
   97SAPC  C212 9563   3.164   6.099   3.990 -0.0533 -0.3084  0.2413
   97SAPC  H12R 9564   3.054   6.085   3.986 -0.2396  0.3686  2.1099
   97SAPC  C213 9565   3.212   6.175   4.113 -0.0691 -0.5539 -0.0619
   97SAPC  H13R 9566   3.166   6.276   4.114  1.6626  0.3658  3.8419
   97SAPC  H13S 9567   3.321   6.196   4.121 -0.4300  1.1684  0.5666
   97SAPC  C214 9568   3.181   6.102   4.243  0.5568 -0.1932  0.3695
   97SAPC  H14R 9569   3.176   5.992   4.234 -1.0524 -0.1633  0.5783
   97SAPC  C215 9570   3.184   6.162   4.363 -0.6141 -0.7122 -0.3567
   97SAPC  H15R 9571   3.179   6.098   4.453  0.6129  0.0163  0.2569
   97SAPC  C216 9572   3.200   6.313   4.387  0.0355 -0.3042 -0.5664
   97SAPC  H16R 9573   3.232   6.368   4.296  0.7288 -0.0055 -0.1563
   97SAPC  H16S 9574   3.284   6.332   4.458 -0.7821  2.3758 -0.2174
   97SAPC  C217 9575   3.074   6.375   4.457  0.1475  0.5558  0.3043
   97SAPC  H17R 9576   3.022   6.302   4.524 -2.6170  1.0793 -1.1070
   97SAPC  H17S 9577   3.000   6.394   4.377  0.8503  0.4948 -0.3658
   97SAPC  C218 9578   3.111   6.500   4.533 -0.3585  0.1566  0.8651
   97SAPC  H18R 9579   3.022   6.566   4.537 -0.7811 -0.0854 -2.1005
   97SAPC  H18S 9580   3.182   6.556   4.470 -2.3140  1.4067 -0.3504
   97SAPC  C219 9581   3.167   6.471   4.676 -0.1154  0.6739  0.6133
   97SAPC  H19R 9582   3.186   6.574   4.713 -1.4187  1.3441 -0.4960
   97SAPC  H19S 9583   3.257   6.410   4.654  0.8869  2.1424  0.4482
   97SAPC  C220 9584   3.075   6.398   4.769 -0.3056  0.0117  0.2978
   97SAPC  H20R 9585   2.969   6.430   4.756  0.1357  0.5017 -2.7293
   97SAPC  H20S 9586   3.117   6.421   4.870  0.5459  3.1089 -0.6512
   97SAPC  H20T 9587   3.064   6.291   4.743  0.5885  0.2897 -1.3468
   97SAPC   C33 9588   2.995   6.877   3.469  0.1746 -0.6102 -0.5620
   97SAPC   H3X 9589   3.072   6.815   3.419  1.6827  1.5907 -1.1264
   97SAPC   H3Y 9590   2.901   6.819   3.460 -0.4401  0.4429 -1.0726
   97SAPC   C34 9591   3.037   6.917   3.616  0.0349 -0.1398 -0.4689
   97SAPC   H4X 9592   2.947   6.969   3.655  0.5070  1.2433 -1.1544
   97SAPC   H4Y 9593   3.128   6.980   3.613 -0.8405  1.6647  3.8841
   97SAPC   C35 9594   3.073   6.794   3.705 -0.1843  0.2431  0.5561
   97SAPC   H5X 9595   3.167   6.758   3.657 -0.7159 -0.7347  0.2224
   97SAPC   H5Y 9596   3.010   6.704   3.695  0.6362 -0.4011  1.0705
   97SAPC   C36 9597   3.108   6.837   3.848 -0.0157 -0.3705  0.4438
   97SAPC   H6X 9598   3.023   6.897   3.885  0.1965 -0.2489  0.7332
   97SAPC   H6Y 9599   3.202   6.895   3.842  0.1485 -0.7441 -0.9317
   97SAPC   C37 9600   3.121   6.711   3.932  0.0214 -0.4484 -0.0612
   97SAPC   H7X 9601   3.198   6.643   3.891  0.7129  0.2731  0.0240
   97SAPC   H7Y 9602   3.028   6.650   3.931 -0.3854  0.1376  0.6218
   97SAPC   C38 9603   3.142   6.735   4.078  1.1789 -0.6203 -0.3328
   97SAPC   H8X 9604   3.233   6.797   4.092  0.6549 -0.0696  0.7454
   97SAPC   H8Y 9605   3.143   6.633   4.124 -1.3904 -1.2743 -1.5627
   97SAPC   C39 9606   3.028   6.807   4.147  0.1460 -0.5549  0.0337
   97SAPC   H9X 9607   2.928   6.801   4.098  0.0642  0.3875  0.0617
   97SAPC   H9Y 9608   3.053   6.915   4.145  2.7721 -1.0653  0.7211
   97SAPC  C310 9609   3.013   6.775   4.294 -0.1328  0.0381 -0.8798
   97SAPC  H10X 9610   3.110   6.788   4.345  0.3285  0.3243 -1.8024
   97SAPC  H10Y 9611   2.992   6.667   4.309  1.2255 -0.1161  0.0180
   97SAPC  C311 9612   2.898   6.849   4.362 -0.0716  0.2796 -0.4272
   97SAPC  H11X 9613   2.880   6.806   4.463 -2.0396  1.4535 -0.2270
   97SAPC  H11Y 9614   2.810   6.833   4.296  0.6559 -2.0137 -0.9119
   97SAPC  C312 9615   2.917   7.001   4.381 -0.0726 -0.6495  0.2796
   97SAPC  H12X 9616   2.954   7.048   4.287 -2.9485  0.5256 -0.3792
   97SAPC  H12Y 9617   2.993   7.019   4.460  2.9946 -0.6235 -2.4591
   97SAPC  C313 9618   2.788   7.071   4.423  0.5460  0.3214  0.0855
   97SAPC  H13X 9619   2.750   7.024   4.517  0.5965 -1.7437 -0.8863
   97SAPC  H13Y 9620   2.710   7.055   4.346  1.3324 -0.0186 -0.6443
   97SAPC  C314 9621   2.814   7.229   4.441  1.0049  0.0886 -0.2128
   97SAPC  H14X 9622   2.720   7.287   4.431  0.6202 -0.8001 -2.3518
   97SAPC  H14Y 9623   2.883   7.266   4.362 -0.8555  1.6700 -1.1813
   97SAPC  C315 9624   2.863   7.254   4.576  0.4260 -0.6273 -0.1374
   97SAPC  H15X 9625   2.972   7.233   4.584  0.3471 -0.5271  1.3506
   97SAPC  H15Y 9626   2.815   7.195   4.657 -1.0995 -2.0656 -1.9796
   97SAPC  C316 9627   2.864   7.406   4.608  0.6692  0.6703 -0.1886
   97SAPC  H16X 9628   2.756   7.433   4.607  0.2222 -0.7082  2.3916
   97SAPC  H16Y 9629   2.916   7.459   4.525 -0.7411  0.7217 -1.0656
   97SAPC  C317 9630   2.920   7.440   4.744 -0.7950 -1.0801 -0.3069
   97SAPC  H17X 9631   3.011   7.378   4.760 -0.8571 -0.5160  3.2035
   97SAPC  H17Y 9632   2.852   7.409   4.826 -0.9836 -1.9791 -0.7934
   97SAPC  C318 9633   2.965   7.588   4.751 -0.2308 -0.8813 -0.3160
   97SAPC  H18X 9634   3.057   7.605   4.691 -0.6393 -0.6869 -0.8869
   97SAPC  H18Y 9635   2.993   7.627   4.851 -1.6252 -1.0186  0.1516
   97SAPC  H18Z 9636   2.886   7.656   4.714 -0.5224 -1.2629 -0.4022
   98SAPC     N 9637   1.037   0.145   2.884  0.9243 -0.1558 -0.6668
   98SAPC   C12 9638   0.946   0.211   2.994  0.0362 -0.5605 -0.1229
   98SAPC  H12A 9639   0.917   0.132   3.062 -2.4623  0.5057  0.1560
   98SAPC  H12B 9640   0.851   0.244   2.954  0.8207  0.8557 -0.9068
   98SAPC   C13 9641   1.051   0.228   2.763  0.4066  0.5002 -0.2416
   98SAPC  H13A 9642   1.097   0.318   2.801  0.1869 -0.0510  1.3912
   98SAPC  H13B 9643   1.113   0.177   2.690 -0.5256  2.7759 -2.8283
   98SAPC  H13C 9644   0.961   0.266   2.718 -0.4093  0.7514  1.5511
   98SAPC   C14 9645   1.167   0.111   2.949 -0.2443  0.6070 -0.1854
   98SAPC  H14A 9646   1.144   0.040   3.027 -2.2733  0.9315 -0.4373
   98SAPC  H14B 9647   1.238   0.065   2.882  0.5153  1.7351 -0.1948
   98SAPC  H14C 9648   1.200   0.203   2.995  4.4246 -1.0807  0.3229
   98SAPC   C15 9649   0.974   0.016   2.844  0.3602  0.7727  0.1207
   98SAPC  H15A 9650   1.028  -0.043   2.771 -0.0088 -2.7209  2.4311
   98SAPC  H15B 9651   0.952  -0.046   2.929  1.9350 -0.1314 -0.0904
   98SAPC  H15C 9652   0.879   0.040   2.800  0.3859  0.8589  0.1099
   98SAPC   C11 9653   1.002   0.335   3.076  0.0711 -0.2884  0.2126
   98SAPC  H11A 9654   1.101   0.324   3.126  0.1997  1.9049  0.5368
   98SAPC  H11B 9655   0.926   0.364   3.152  0.8253 -0.6275  1.1206
   98SAPC     P 9656   0.902   0.526   2.926 -0.2154  0.0556  0.0110
   98SAPC   O13 9657   0.949   0.624   2.830 -0.2481 -0.1597  0.5140
   98SAPC   O14 9658   0.805   0.428   2.879  0.4734 -0.1250  0.3605
   98SAPC   O12 9659   1.019   0.446   2.990 -0.4129  0.3973  0.0546
   98SAPC   O11 9660   0.834   0.593   3.048 -0.1262 -0.1467  0.1396
   98SAPC    C1 9661   0.861   0.733   3.089  1.3457  0.1940 -0.0652
   98SAPC    HA 9662   0.885   0.802   3.005 -0.7841 -0.0154 -0.9072
   98SAPC    HB 9663   0.773   0.783   3.137 -1.5763 -1.0510 -3.6116
   98SAPC    C2 9664   0.981   0.753   3.187  0.2198  0.0833 -0.1797
   98SAPC    HS 9665   1.060   0.698   3.130 -0.7542  0.9158 -2.4672
   98SAPC   O21 9666   0.943   0.698   3.311  0.0211 -0.0374  0.7696
   98SAPC   C21 9667   1.050   0.668   3.388  0.3729 -0.2153  0.7041
   98SAPC   O22 9668   1.168   0.685   3.362  0.5736 -0.8865  0.8667
   98SAPC   C22 9669   0.994   0.619   3.519 -0.8550 -0.4479 -0.3496
   98SAPC   H2R 9670   0.904   0.679   3.544 -0.7931 -0.5420  0.1070
   98SAPC   H2S 9671   0.967   0.511   3.512 -1.7536 -0.2069 -0.7038
   98SAPC    C3 9672   1.025   0.905   3.200  0.4217 -0.4481  0.4526
   98SAPC    HX 9673   1.048   0.945   3.099  0.6632 -1.4943  0.0871
   98SAPC    HY 9674   1.111   0.907   3.270 -0.0815  0.3930  1.0729
   98SAPC   O31 9675   0.915   0.992   3.252  0.0876  0.5270 -0.1962
   98SAPC   C31 9676   0.958   1.108   3.287  0.1651  0.2617 -0.8961
   98SAPC   O32 9677   1.070   1.153   3.269  0.2976 -0.3466 -0.1596
   98SAPC   C32 9678   0.849   1.170   3.373  0.3426 -0.5269 -0.3087
   98SAPC   H2X 9679   0.866   1.114   3.467  1.9504 -1.8206 -1.3079
   98SAPC   H2Y 9680   0.747   1.153   3.332 -0.9810  2.5821  1.3365
   98SAPC   C23 9681   1.088   0.635   3.642 -0.0818 -0.4235 -0.3788
   98SAPC   H3R 9682   1.181   0.577   3.629  0.3943  0.0973  0.5804
   98SAPC   H3S 9683   1.035   0.590   3.729  0.0744 -1.6108 -0.8898
   98SAPC   C24 9684   1.147   0.770   3.663 -0.2002 -0.7011 -0.0016
   98SAPC   H4R 9685   1.209   0.793   3.574  0.0421 -1.2374  0.0189
   98SAPC   H4S 9686   1.221   0.778   3.746  0.8799 -0.5032 -0.9579
   98SAPC   C25 9687   1.045   0.882   3.681 -0.3930  0.1704  0.0085
   98SAPC   H5R 9688   1.015   0.932   3.588  0.7860  2.4845  0.8099
   98SAPC   C26 9689   1.007   0.939   3.798  0.0416  1.2481 -1.0297
   98SAPC   H6R 9690   0.925   1.012   3.803 -0.9643  0.0561  0.3580
   98SAPC   C27 9691   1.056   0.894   3.935 -0.1371 -0.6044  0.5146
   98SAPC   H7R 9692   1.023   0.966   4.013  0.2249  0.4652 -0.2946
   98SAPC   H7S 9693   1.166   0.904   3.943  0.0920 -2.5572  0.2110
   98SAPC   C28 9694   1.017   0.757   3.991 -0.3761 -0.5114  0.0416
   98SAPC   H8R 9695   0.958   0.697   3.920 -2.5034  1.0049  0.4370
   98SAPC   C29 9696   1.064   0.691   4.096 -0.1077 -0.5354  0.6313
   98SAPC   H9R 9697   1.030   0.593   4.132 -1.2512 -0.5910 -0.5450
   98SAPC  C210 9698   1.155   0.748   4.203 -0.3931 -0.5095  0.4435
   98SAPC  H10R 9699   1.106   0.839   4.244  1.0143  0.9215 -0.9162
   98SAPC  H10S 9700   1.251   0.771   4.151  0.4248 -2.0353  1.2155
   98SAPC  C211 9701   1.195   0.672   4.326 -0.1113  0.0103  0.1597
   98SAPC  H11R 9702   1.192   0.562   4.325  0.7258 -0.1420  3.4014
   98SAPC  C212 9703   1.228   0.735   4.441 -0.3603  0.3143 -0.8415
   98SAPC  H12R 9704   1.235   0.675   4.533  4.8327  1.0815 -0.4232
   98SAPC  C213 9705   1.233   0.877   4.475 -0.7060 -0.1986  0.0978
   98SAPC  H13R 9706   1.208   0.894   4.582 -1.0835  0.4148 -0.0807
   98SAPC  H13S 9707   1.148   0.930   4.427 -1.3723 -0.9543  0.4095
   98SAPC  C214 9708   1.366   0.935   4.423  0.6733 -0.3129 -0.6384
   98SAPC  H14R 9709   1.381   0.915   4.316  0.9374  0.5874 -0.7752
   98SAPC  C215 9710   1.443   1.011   4.498  0.3034 -0.0700 -0.4544
   98SAPC  H15R 9711   1.538   1.043   4.454  0.5620 -1.2110 -0.7406
   98SAPC  C216 9712   1.424   1.029   4.648 -0.4787 -0.2315 -0.2308
   98SAPC  H16R 9713   1.438   0.935   4.706 -0.7114  0.0278  0.2620
   98SAPC  H16S 9714   1.319   1.060   4.668 -1.0767 -2.5156  0.5177
   98SAPC  C217 9715   1.511   1.149   4.703 -0.0882 -0.1035 -0.3780
   98SAPC  H17R 9716   1.484   1.245   4.655 -1.0633 -0.6615 -0.9695
   98SAPC  H17S 9717   1.619   1.130   4.685  0.1635 -0.7650  1.5518
   98SAPC  C218 9718   1.476   1.173   4.857 -0.8541  0.6111 -0.4992
   98SAPC  H18R 9719   1.365   1.171   4.860 -1.0219  2.6612 -2.2844
   98SAPC  H18S 9720   1.509   1.275   4.886  0.2375 -0.4421  2.2870
   98SAPC  C219 9721   1.554   1.081   4.948 -0.4944  0.1498  0.6180
   98SAPC  H19R 9722   1.556   0.979   4.904 -1.0874  0.2201  0.4250
   98SAPC  H19S 9723   1.496   1.070   5.043  0.4008  0.3968  1.2057
   98SAPC  C220 9724   1.704   1.115   4.970 -0.3561  0.5892 -0.2697
   98SAPC  H20R 9725   1.734   1.090   5.074  1.3079  0.9360 -0.6408
   98SAPC  H20S 9726   1.720   1.224   4.951  0.3497 -0.0652 -4.2906
   98SAPC  H20T 9727   1.767   1.063   4.896  0.0810 -0.4125  0.7823
   98SAPC   C33 9728   0.865   1.321   3.399 -0.6941 -0.2154 -0.2768
   98SAPC   H3X 9729   0.806   1.382   3.328 -2.3539  0.9369  1.9540
   98SAPC   H3Y 9730   0.974   1.345   3.398 -0.4884 -1.1230 -0.5740
   98SAPC   C34 9731   0.819   1.367   3.543 -0.8880  0.3626  0.5148
   98SAPC   H4X 9732   0.712   1.338   3.548 -1.0170  0.2728 -1.7242
   98SAPC   H4Y 9733   0.829   1.477   3.534  3.8411  0.0420 -1.4987
   98SAPC   C35 9734   0.894   1.302   3.659  0.4562 -0.5369 -0.1024
   98SAPC   H5X 9735   1.003   1.324   3.652  0.6229 -1.2587  0.1328
   98SAPC   H5Y 9736   0.868   1.194   3.657 -0.9724 -0.2357  0.8056
   98SAPC   C36 9737   0.851   1.368   3.786 -0.3104 -0.2032  0.7092
   98SAPC   H6X 9738   0.741   1.381   3.790 -0.3158  0.8085 -1.2539
   98SAPC   H6Y 9739   0.898   1.466   3.808  0.2597 -0.2418 -0.2580
   98SAPC   C37 9740   0.876   1.279   3.907 -0.6809  0.1021  0.1411
   98SAPC   H7X 9741   0.984   1.256   3.898 -0.7196  0.3015 -0.9870
   98SAPC   H7Y 9742   0.838   1.175   3.896 -0.4908  0.2096 -1.8636
   98SAPC   C38 9743   0.866   1.346   4.046 -0.1999 -0.5544  0.5165
   98SAPC   H8X 9744   0.923   1.441   4.047 -2.0237  0.5867  0.1611
   98SAPC   H8Y 9745   0.922   1.280   4.116  3.6479 -0.3457 -2.1052
   98SAPC   C39 9746   0.728   1.365   4.096 -0.5574  0.2455 -0.3920
   98SAPC   H9X 9747   0.673   1.269   4.083  3.6727 -2.9364  2.5272
   98SAPC   H9Y 9748   0.676   1.446   4.041  0.4998  0.2492 -1.4421
   98SAPC  C310 9749   0.717   1.372   4.250 -0.3504  0.1018  0.5880
   98SAPC  H10X 9750   0.611   1.400   4.270 -1.5031 -2.5185 -1.2820
   98SAPC  H10Y 9751   0.785   1.449   4.294 -0.3848 -0.6257  1.9845
   98SAPC  C311 9752   0.739   1.232   4.315 -0.1097  0.0668  0.9686
   98SAPC  H11X 9753   0.786   1.155   4.250 -1.8834  0.3658 -0.7443
   98SAPC  H11Y 9754   0.639   1.186   4.335 -0.6683  0.8137 -0.0648
   98SAPC  C312 9755   0.823   1.241   4.451 -0.1450 -0.1872 -0.0205
   98SAPC  H12X 9756   0.808   1.149   4.512  1.1985 -0.0915  0.4867
   98SAPC  H12Y 9757   0.789   1.323   4.518  1.1508 -0.0405  0.4753
   98SAPC  C313 9758   0.973   1.243   4.431 -0.2215  0.9047  0.1888
   98SAPC  H13X 9759   1.010   1.338   4.387  0.3869  1.5073  1.9430
   98SAPC  H13Y 9760   1.009   1.170   4.355  2.7430  1.2542  1.1429
   98SAPC  C314 9761   1.060   1.190   4.548  0.6547 -0.7751 -0.5423
   98SAPC  H14X 9762   1.166   1.209   4.521  1.1834 -0.1029  1.7964
   98SAPC  H14Y 9763   1.047   1.081   4.564  1.8377 -0.6762  1.5024
   98SAPC  C315 9764   1.029   1.259   4.683 -0.4231 -0.0226 -0.1392
   98SAPC  H15X 9765   1.093   1.212   4.760  0.9918  0.4683 -0.9780
   98SAPC  H15Y 9766   0.920   1.249   4.704 -0.4815  0.4347 -0.2071
   98SAPC  C316 9767   1.084   1.409   4.683 -0.3650  0.6657  0.2017
   98SAPC  H16X 9768   1.048   1.456   4.777  4.1653  1.1007  1.9627
   98SAPC  H16Y 9769   1.026   1.452   4.599 -1.3619  0.3356  0.7070
   98SAPC  C317 9770   1.238   1.421   4.682  0.6584 -0.2756 -0.0478
   98SAPC  H17X 9771   1.274   1.376   4.587 -2.4806  0.2477 -1.6177
   98SAPC  H17Y 9772   1.280   1.372   4.773  0.6484  0.9192  0.6172
   98SAPC  C318 9773   1.284   1.570   4.690 -0.6692  0.9231 -0.1996
   98SAPC  H18X 9774   1.394   1.583   4.705 -0.0166  0.8423 -3.8500
   98SAPC  H18Y 9775   1.225   1.627   4.765 -0.6989  3.3006 -1.9117
   98SAPC  H18Z 9776   1.268   1.611   4.588  1.8516  0.3145 -0.9082
   99SAPC     N 9777   5.250   6.271   2.720  0.1679  0.1372 -0.2555
   99SAPC   C12 9778   5.232   6.202   2.853 -0.1884  0.0202 -0.6880
   99SAPC  H12A 9779   5.124   6.192   2.862  0.0739 -1.4676  1.5412
   99SAPC  H12B 9780   5.264   6.258   2.940  0.0436  0.2913 -0.9461
   99SAPC   C13 9781   5.174   6.207   2.607 -0.5004  0.4143 -0.8243
   99SAPC  H13A 9782   5.227   6.241   2.519  0.7400  0.9447  0.0923
   99SAPC  H13B 9783   5.188   6.101   2.616  0.7697  0.6774  1.0251
   99SAPC  H13C 9784   5.070   6.235   2.620  0.1448  2.0611  1.4265
   99SAPC   C14 9785   5.212   6.416   2.720 -0.0187  0.2304 -0.1189
   99SAPC  H14A 9786   5.108   6.429   2.697  0.0192  0.4024 -0.1957
   99SAPC  H14B 9787   5.246   6.471   2.807 -1.1425  0.0367  0.4511
   99SAPC  H14C 9788   5.262   6.460   2.634  0.1850  1.9450  0.8246
   99SAPC   C15 9789   5.397   6.254   2.694 -0.4961 -0.9696  0.5445
   99SAPC  H15A 9790   5.435   6.161   2.734  0.1900 -0.8598  0.1661
   99SAPC  H15B 9791   5.413   6.258   2.587  0.7922  0.9614  0.7616
   99SAPC  H15C 9792   5.452   6.336   2.736 -0.0590  0.3629 -2.3550
   99SAPC   C11 9793   5.276   6.051   2.887  0.7445 -0.0523 -0.8100
   99SAPC  H11A 9794   5.250   6.022   2.991 -0.9114  0.9083 -0.9167
   99SAPC  H11B 9795   5.386   6.049   2.875  0.8642  0.9533  0.0070
   99SAPC     P 9796   5.264   5.849   2.726  0.1330 -0.4463 -0.2723
   99SAPC   O13 9797   5.170   5.791   2.628 -0.1013  0.6093 -0.5155
   99SAPC   O14 9798   5.398   5.879   2.671  0.0542 -0.2135  0.7136
   99SAPC   O12 9799   5.197   5.969   2.797 -0.5486  0.5843 -0.1050
   99SAPC   O11 9800   5.276   5.735   2.842  0.7947  0.6970 -0.0336
   99SAPC    C1 9801   5.392   5.737   2.930  0.4742 -0.0471 -0.3344
   99SAPC    HA 9802   5.482   5.779   2.881  1.0888 -0.5618  0.3285
   99SAPC    HB 9803   5.388   5.809   3.015 -0.2243  0.9243 -1.1583
   99SAPC    C2 9804   5.423   5.596   2.982  0.2374 -0.7093 -0.5873
   99SAPC    HS 9805   5.422   5.531   2.892 -0.0535 -2.9926  0.9713
   99SAPC   O21 9806   5.321   5.566   3.081  0.1777 -0.1695  0.3752
   99SAPC   C21 9807   5.321   5.442   3.128 -0.0104  0.1541  0.9710
   99SAPC   O22 9808   5.390   5.353   3.086  0.3590 -0.0469 -0.0395
   99SAPC   C22 9809   5.203   5.419   3.227  0.6893  0.3003 -0.3742
   99SAPC   H2R 9810   5.113   5.408   3.163  0.0804  0.4226  0.4439
   99SAPC   H2S 9811   5.244   5.330   3.279  1.3724 -0.0602 -1.4882
   99SAPC    C3 9812   5.562   5.598   3.040  0.0252  0.5447  0.1917
   99SAPC    HX 9813   5.639   5.613   2.961 -0.7274  0.6075 -0.5483
   99SAPC    HY 9814   5.582   5.502   3.092 -0.6689 -0.2715 -0.9951
   99SAPC   O31 9815   5.574   5.712   3.122  0.2732 -0.5136 -0.1516
   99SAPC   C31 9816   5.551   5.687   3.251  0.5346 -0.1445 -0.5834
   99SAPC   O32 9817   5.533   5.580   3.301  0.4853 -0.0305  0.2356
   99SAPC   C32 9818   5.535   5.809   3.340 -0.0725 -0.7053  0.8389
   99SAPC   H2X 9819   5.426   5.809   3.362  0.2157 -0.5356  2.3575
   99SAPC   H2Y 9820   5.555   5.895   3.273 -2.1686 -0.9357 -0.1500
   99SAPC   C23 9821   5.161   5.522   3.332 -0.2043  1.2701  0.3702
   99SAPC   H3R 9822   5.078   5.584   3.291 -0.0924  1.1225 -0.0909
   99SAPC   H3S 9823   5.245   5.595   3.332 -2.0931  3.5604  0.4825
   99SAPC   C24 9824   5.148   5.463   3.470 -0.0443  0.8602  0.6375
   99SAPC   H4R 9825   5.139   5.544   3.545 -3.5532  0.1512  1.1212
   99SAPC   H4S 9826   5.236   5.398   3.491 -1.5748 -1.8553 -0.7544
   99SAPC   C25 9827   5.017   5.377   3.474  0.9720  0.0499  0.4780
   99SAPC   H5R 9828   4.984   5.334   3.378  1.4789  1.6168 -0.4332
   99SAPC   C26 9829   4.940   5.357   3.581 -0.4752 -0.2737 -0.4867
   99SAPC   H6R 9830   4.848   5.298   3.566 -0.6075 -0.0981 -0.3782
   99SAPC   C27 9831   4.962   5.400   3.724  0.2272  0.2363  0.2701
   99SAPC   H7R 9832   4.870   5.405   3.787  0.8880 -1.6392  1.4851
   99SAPC   H7S 9833   5.004   5.502   3.716 -1.9670  1.1234 -0.4781
   99SAPC   C28 9834   5.060   5.310   3.795 -0.0597  0.3932  0.7143
   99SAPC   H8R 9835   5.163   5.322   3.758 -1.1012 -0.0931 -2.6579
   99SAPC   C29 9836   5.031   5.219   3.892 -0.2387 -0.1787  0.1661
   99SAPC   H9R 9837   5.116   5.162   3.933 -1.4709 -1.4709  0.9952
   99SAPC  C210 9838   4.898   5.185   3.950 -0.0021 -0.2396 -0.3031
   99SAPC  H10R 9839   4.867   5.080   3.932 -0.0986 -0.1985 -0.3761
   99SAPC  H10S 9840   4.821   5.251   3.905 -0.3290 -1.2315 -1.2297
   99SAPC  C211 9841   4.903   5.233   4.095  0.6649 -0.7107  0.2619
   99SAPC  H11R 9842   4.925   5.340   4.101 -2.2099  0.0146 -0.6892
   99SAPC  C212 9843   4.860   5.181   4.212 -0.3033 -0.2852  0.1879
   99SAPC  H12R 9844   4.861   5.235   4.307 -2.1297 -1.8544  1.1667
   99SAPC  C213 9845   4.800   5.042   4.227  0.6278 -0.2200  1.0065
   99SAPC  H13R 9846   4.817   4.970   4.145 -4.8670 -0.2822 -0.4690
   99SAPC  H13S 9847   4.693   5.070   4.221  0.9061  0.6387 -0.2335
   99SAPC  C214 9848   4.828   4.969   4.354 -0.2170  0.8169 -0.2524
   99SAPC  H14R 9849   4.924   4.916   4.351 -0.7726 -0.2103 -0.2475
   99SAPC  C215 9850   4.756   4.949   4.465  0.6064  0.7415  0.3212
   99SAPC  H15R 9851   4.799   4.898   4.553 -0.9882 -0.1768  0.6072
   99SAPC  C216 9852   4.617   5.005   4.481  0.1235  0.4212 -0.1593
   99SAPC  H16R 9853   4.545   4.921   4.492 -1.1627  1.8029  3.1976
   99SAPC  H16S 9854   4.561   5.064   4.405 -2.6241 -1.9290 -0.1532
   99SAPC  C217 9855   4.610   5.079   4.618 -0.2604  0.3321 -0.0930
   99SAPC  H17R 9856   4.505   5.115   4.618 -0.1713  0.7207 -2.2122
   99SAPC  H17S 9857   4.675   5.169   4.622 -1.8261  1.6530 -2.0637
   99SAPC  C218 9858   4.606   4.991   4.746 -1.0791 -0.3574 -0.6625
   99SAPC  H18R 9859   4.596   5.058   4.834 -0.5413 -2.5291  1.1217
   99SAPC  H18S 9860   4.708   4.948   4.747 -0.6978  0.4631  1.6350
   99SAPC  C219 9861   4.518   4.865   4.754 -0.1942 -0.2415 -0.0237
   99SAPC  H19R 9862   4.537   4.796   4.669 -2.9031  0.1016 -1.0006
   99SAPC  H19S 9863   4.413   4.900   4.759 -0.0718  0.6833 -2.4214
   99SAPC  C220 9864   4.536   4.779   4.874  0.2437 -0.0072  0.1233
   99SAPC  H20R 9865   4.469   4.692   4.859  0.1236 -0.4855  2.9286
   99SAPC  H20S 9866   4.495   4.840   4.957 -0.8099 -1.6072  0.8277
   99SAPC  H20T 9867   4.641   4.750   4.898  0.2526 -0.8772 -0.8826
   99SAPC   C33 9868   5.622   5.822   3.467  0.4227 -0.2921  0.4095
   99SAPC   H3X 9869   5.610   5.926   3.503 -2.1553 -0.5883  0.5437
   99SAPC   H3Y 9870   5.725   5.825   3.425  0.4814  1.2469  0.6158
   99SAPC   C34 9871   5.593   5.718   3.575 -0.3022 -0.5322 -0.7221
   99SAPC   H4X 9872   5.610   5.617   3.533  2.0931 -0.9596  1.0273
   99SAPC   H4Y 9873   5.483   5.723   3.583 -0.6289 -0.5138 -4.0606
   99SAPC   C35 9874   5.672   5.741   3.707 -0.7810 -0.0377  0.0067
   99SAPC   H5X 9875   5.663   5.843   3.750  1.0740  0.3616 -0.4656
   99SAPC   H5Y 9876   5.779   5.720   3.688 -1.1746 -0.4816 -1.9873
   99SAPC   C36 9877   5.643   5.640   3.817 -0.3241  0.5255  0.3261
   99SAPC   H6X 9878   5.719   5.641   3.897 -0.8094 -1.0783  0.8530
   99SAPC   H6Y 9879   5.620   5.539   3.775  0.3690  0.4066  0.2293
   99SAPC   C37 9880   5.511   5.676   3.894  0.3162  0.8286  0.7028
   99SAPC   H7X 9881   5.429   5.675   3.818  0.9967  1.2454 -0.0536
   99SAPC   H7Y 9882   5.511   5.782   3.928 -1.1066  1.1133 -0.1076
   99SAPC   C38 9883   5.478   5.581   4.013 -0.2440  1.2573  0.1041
   99SAPC   H8X 9884   5.479   5.477   3.972 -0.1396  0.9489  0.8768
   99SAPC   H8Y 9885   5.379   5.613   4.052 -1.0576 -0.2125 -0.6317
   99SAPC   C39 9886   5.575   5.596   4.128  0.2811  0.5387  0.1517
   99SAPC   H9X 9887   5.603   5.700   4.153 -1.6157  0.3621  3.6661
   99SAPC   H9Y 9888   5.663   5.540   4.091 -0.6850 -0.6362 -0.4499
   99SAPC  C310 9889   5.541   5.520   4.252  0.4410  0.1005 -0.8211
   99SAPC  H10X 9890   5.490   5.428   4.218  1.9149 -0.7504 -0.8189
   99SAPC  H10Y 9891   5.468   5.571   4.319 -0.2580 -0.7163 -0.9371
   99SAPC  C311 9892   5.668   5.467   4.332 -0.0209 -0.0335  0.1935
   99SAPC  H11X 9893   5.734   5.556   4.338  1.8196 -1.0549 -2.6536
   99SAPC  H11Y 9894   5.733   5.410   4.261  2.3788  2.0535  0.5668
   99SAPC  C312 9895   5.648   5.391   4.464  0.5657 -0.3422  0.0523
   99SAPC  H12X 9896   5.752   5.360   4.490  2.0649  3.6435 -0.4535
   99SAPC  H12Y 9897   5.585   5.300   4.461  0.2813 -0.1334 -0.3221
   99SAPC  C313 9898   5.596   5.473   4.581 -0.4692  0.1827 -0.1672
   99SAPC  H13X 9899   5.510   5.533   4.545 -0.4925 -0.8566 -1.9436
   99SAPC  H13Y 9900   5.678   5.545   4.605 -1.2328  0.8700  0.4440
   99SAPC  C314 9901   5.560   5.393   4.700  0.3497  0.7727  0.2937
   99SAPC  H14X 9902   5.527   5.292   4.667 -1.6148  1.1499  0.9984
   99SAPC  H14Y 9903   5.475   5.442   4.751  1.4882  1.1967  1.8416
   99SAPC  C315 9904   5.669   5.373   4.800  0.2178  1.1468 -0.4408
   99SAPC  H15X 9905   5.731   5.464   4.802  0.2260  1.1388  1.5000
   99SAPC  H15Y 9906   5.727   5.287   4.760  0.6884  0.8369  0.8465
   99SAPC  C316 9907   5.623   5.335   4.941 -0.0310  0.1078  0.0833
   99SAPC  H16X 9908   5.552   5.407   4.987 -0.2701 -0.0207 -0.0903
   99SAPC  H16Y 9909   5.714   5.352   5.004 -0.1984  0.3437  0.2656
   99SAPC  C317 9910   5.566   5.193   4.949  0.1121 -0.1410  0.2930
   99SAPC  H17X 9911   5.635   5.121   4.901  0.1049  1.2071 -1.9001
   99SAPC  H17Y 9912   5.466   5.195   4.901 -0.4535  0.7490  1.4462
   99SAPC  C318 9913   5.548   5.162   5.101  0.6372  0.5310 -0.4755
   99SAPC  H18X 9914   5.491   5.070   5.123  2.2411 -0.2488  0.5945
   99SAPC  H18Y 9915   5.479   5.236   5.148  0.0665 -1.6174  2.2640
   99SAPC  H18Z 9916   5.639   5.164   5.165 -1.0129 -2.5552  2.2764
  100SAPC     N 9917   4.159   4.730   2.871  0.4833  0.2405 -0.1590
  100SAPC   C12 9918   4.261   4.668   2.783 -0.6572  0.3497 -0.3781
  100SAPC  H12A 9919   4.228   4.590   2.716  1.9361 -0.8982 -0.3130
  100SAPC  H12B 9920   4.331   4.616   2.846  0.5568  1.0873 -1.0663
  100SAPC   C13 9921   4.102   4.637   2.971 -0.1756 -0.0442  0.4025
  100SAPC  H13A 9922   4.063   4.548   2.923  0.6776 -0.8270  1.1168
  100SAPC  H13B 9923   4.178   4.600   3.038  2.2463  0.4647 -1.8819
  100SAPC  H13C 9924   4.020   4.678   3.028  0.0306  0.5689  0.2659
  100SAPC   C14 9925   4.202   4.844   2.958  0.4128  0.0248 -0.0307
  100SAPC  H14A 9926   4.262   4.909   2.896 -0.9218  0.0300 -1.3772
  100SAPC  H14B 9927   4.117   4.902   2.990  1.3641  1.4099  0.0349
  100SAPC  H14C 9928   4.258   4.809   3.043 -0.3901 -2.9563 -0.6060
  100SAPC   C15 9929   4.046   4.774   2.777  0.1508  0.3136  0.3103
  100SAPC  H15A 9930   3.993   4.691   2.734  1.5062 -0.1296 -0.5827
  100SAPC  H15B 9931   3.981   4.839   2.834  0.9174  1.3012  0.0964
  100SAPC  H15C 9932   4.090   4.830   2.696  0.9681  1.3682  1.4288
  100SAPC   C11 9933   4.347   4.770   2.707  0.1274  0.6356 -0.4039
  100SAPC  H11A 9934   4.283   4.847   2.658  2.5763  1.8426 -1.8685
  100SAPC  H11B 9935   4.403   4.714   2.630  0.5509  1.9621 -1.0914
  100SAPC     P 9936   4.570   4.758   2.836  0.6012 -0.0594  0.0071
  100SAPC   O13 9937   4.580   4.625   2.769 -0.0354 -0.1095 -0.0065
  100SAPC   O14 9938   4.681   4.851   2.811  0.2412 -0.3026  0.0382
  100SAPC   O12 9939   4.437   4.840   2.785 -0.1938  0.4036 -0.2534
  100SAPC   O11 9940   4.547   4.739   2.991 -0.4994  0.5690 -0.5403
  100SAPC    C1 9941   4.537   4.856   3.076 -0.4108 -0.7739  0.2913
  100SAPC    HA 9942   4.625   4.922   3.066  0.2607 -1.9710 -2.3241
  100SAPC    HB 9943   4.457   4.925   3.040  1.7585  3.0195  2.1311
  100SAPC    C2 9944   4.520   4.833   3.228  0.1971  0.1070 -0.0371
  100SAPC    HS 9945   4.615   4.788   3.263 -0.5970 -1.2629  0.4423
  100SAPC   O21 9946   4.398   4.754   3.247 -0.6611 -0.0314  0.0063
  100SAPC   C21 9947   4.407   4.666   3.351  0.2222  0.4251 -1.5358
  100SAPC   O22 9948   4.503   4.649   3.420  0.0113  0.4477 -0.4231
  100SAPC   C22 9949   4.261   4.611   3.370  0.1921  0.2562 -0.9248
  100SAPC   H2R 9950   4.202   4.705   3.368  0.2743  0.3179 -0.3870
  100SAPC   H2S 9951   4.238   4.541   3.286  1.9586 -0.8348 -0.5543
  100SAPC    C3 9952   4.496   4.967   3.298  0.4351  0.0894  0.3319
  100SAPC    HX 9953   4.398   5.001   3.256  1.0783 -2.1252 -3.4085
  100SAPC    HY 9954   4.568   5.050   3.284 -0.2133  0.8907  1.5229
  100SAPC   O31 9955   4.479   4.954   3.439 -0.2578  0.2634 -0.1547
  100SAPC   C31 9956   4.588   4.930   3.517 -0.2733 -0.0612 -1.0072
  100SAPC   O32 9957   4.704   4.924   3.477 -0.3044  0.0340 -0.4488
  100SAPC   C32 9958   4.547   4.923   3.661 -0.3986 -0.3011 -0.2294
  100SAPC   H2X 9959   4.436   4.913   3.663 -0.4769  0.4020 -0.8471
  100SAPC   H2Y 9960   4.579   5.014   3.715  0.0349 -0.5341 -0.0887
  100SAPC   C23 9961   4.240   4.518   3.494  1.1401  0.7486 -0.2739
  100SAPC   H3R 9962   4.227   4.583   3.583 -3.1098  1.7691 -1.4077
  100SAPC   H3S 9963   4.326   4.451   3.517 -0.7396 -1.9091 -0.5281
  100SAPC   C24 9964   4.119   4.424   3.481 -0.4056  0.0122 -0.3008
  100SAPC   H4R 9965   4.112   4.367   3.576  1.4922  2.1463  1.2251
  100SAPC   H4S 9966   4.140   4.353   3.398  1.3232  0.2242 -0.0798
  100SAPC   C25 9967   3.994   4.506   3.447  0.6324  0.1543  0.0164
  100SAPC   H5R 9968   3.994   4.549   3.346  3.1938 -0.1305 -0.1860
  100SAPC   C26 9969   3.892   4.537   3.528 -0.1806 -0.1823  0.8560
  100SAPC   H6R 9970   3.812   4.599   3.487  0.6355 -0.4789 -1.3559
  100SAPC   C27 9971   3.885   4.500   3.669 -0.0743  0.8089  0.1318
  100SAPC   H7R 9972   3.986   4.481   3.709  0.2498 -2.6551 -1.9213
  100SAPC   H7S 9973   3.844   4.397   3.665  1.3275  0.2261  0.4127
  100SAPC   C28 9974   3.810   4.603   3.748  0.1311  0.4112  0.1739
  100SAPC   H8R 9975   3.867   4.697   3.751 -0.9947  1.1004  0.1262
  100SAPC   C29 9976   3.689   4.592   3.809 -0.1404  0.2369 -0.1669
  100SAPC   H9R 9977   3.647   4.669   3.875 -1.1977 -1.7443  1.5810
  100SAPC  C210 9978   3.614   4.463   3.820  0.0574  0.3230 -0.4050
  100SAPC  H10R 9979   3.602   4.426   3.716 -3.9593  1.7385 -0.5965
  100SAPC  H10S 9980   3.510   4.475   3.857  0.1652  0.6221 -0.1987
  100SAPC  C211 9981   3.684   4.362   3.911 -0.3325  0.6787  0.1160
  100SAPC  H11R 9982   3.733   4.276   3.862  0.6127  0.2435  1.7437
  100SAPC  C212 9983   3.691   4.363   4.042 -0.4685 -0.1401  0.2204
  100SAPC  H12R 9984   3.749   4.283   4.090  1.8518  2.1790  1.4618
  100SAPC  C213 9985   3.631   4.466   4.132  0.4636  0.0441 -0.0810
  100SAPC  H13R 9986   3.554   4.414   4.194 -1.1103  1.3251 -0.8691
  100SAPC  H13S 9987   3.566   4.539   4.079  0.8110  1.2896  1.1312
  100SAPC  C214 9988   3.748   4.535   4.196  0.2126  0.5249  0.1315
  100SAPC  H14R 9989   3.817   4.576   4.121 -0.1892 -0.2229 -0.6673
  100SAPC  C215 9990   3.760   4.563   4.327 -0.1277 -0.9194  0.0341
  100SAPC  H15R 9991   3.852   4.618   4.353  1.7719 -3.6187 -0.5575
  100SAPC  C216 9992   3.649   4.533   4.425 -0.0997 -0.7251  0.1684
  100SAPC  H16R 9993   3.550   4.535   4.373 -1.6741  0.6550  2.9883
  100SAPC  H16S 9994   3.646   4.618   4.496 -0.0838  0.5555 -1.3035
  100SAPC  C217 9995   3.672   4.403   4.506  0.7770 -0.4567  0.4737
  100SAPC  H17R 9996   3.726   4.329   4.443 -0.3025 -1.7633  1.0491
  100SAPC  H17S 9997   3.569   4.364   4.517 -0.3173  2.0285 -0.3767
  100SAPC  C218 9998   3.733   4.421   4.644  0.2013  0.3679 -0.7113
  100SAPC  H18R 9999   3.828   4.473   4.617  2.3990 -1.8746  2.0666
  100SAPC  H18S10000   3.760   4.333   4.707 -2.4427  0.1404  0.2154
  100SAPC  C21910001   3.665   4.514   4.745 -0.4201 -0.9962 -0.2872
  100SAPC  H19R10002   3.555   4.500   4.745 -1.0616  2.8816  0.0716
  100SAPC  H19S10003   3.678   4.620   4.714 -1.9997 -1.2215 -1.8722
  100SAPC  C22010004   3.724   4.508   4.884 -0.1829  0.1856  0.2867
  100SAPC  H20R10005   3.693   4.408   4.922  1.3671  0.2755  1.9821
  100SAPC  H20S10006   3.695   4.584   4.960  2.2185  1.0155  0.4643
  100SAPC  H20T10007   3.835   4.510   4.880  0.0187  0.2218  3.2792
  100SAPC   C3310008   4.619   4.809   3.731  0.1079 -0.1814 -0.6429
  100SAPC   H3X10009   4.714   4.847   3.774 -1.0477 -0.2821  2.1510
  100SAPC   H3Y10010   4.638   4.725   3.660  0.9340  0.1569 -0.8392
  100SAPC   C3410011   4.549   4.752   3.855 -0.5950 -0.2846  0.9176
  100SAPC   H4X10012   4.627   4.688   3.902  2.0098  1.5620 -0.5915
  100SAPC   H4Y10013   4.463   4.695   3.814 -0.2645 -0.9498  1.1448
  100SAPC   C3510014   4.500   4.864   3.945 -0.4186  0.6011  0.5589
  100SAPC   H5X10015   4.434   4.930   3.885  3.1135  2.6263 -1.4164
  100SAPC   H5Y10016   4.593   4.916   3.975  0.7808 -1.2253  0.1841
  100SAPC   C3610017   4.433   4.817   4.070  0.5574  0.1207 -0.3899
  100SAPC   H6X10018   4.377   4.727   4.037  0.2585  1.0279 -2.5343
  100SAPC   H6Y10019   4.354   4.889   4.100  2.4417  2.3167 -0.4307
  100SAPC   C3710020   4.539   4.780   4.170  0.9465  0.3186  0.3900
  100SAPC   H7X10021   4.571   4.869   4.230 -1.8891  1.6825  0.0286
  100SAPC   H7Y10022   4.619   4.731   4.111  0.6650  0.4320 -0.0956
  100SAPC   C3810023   4.489   4.671   4.267 -0.0608 -0.4029  0.5585
  100SAPC   H8X10024   4.569   4.652   4.342 -0.3996  2.7331  1.9022
  100SAPC   H8Y10025   4.466   4.581   4.207 -0.3268  0.9684 -1.5226
  100SAPC   C3910026   4.355   4.707   4.338  0.6549 -0.0509 -0.1188
  100SAPC   H9X10027   4.265   4.696   4.273 -0.0513  2.1523  0.3827
  100SAPC   H9Y10028   4.358   4.813   4.370 -0.8455  0.0935 -0.3577
  100SAPC  C31010029   4.338   4.620   4.464 -0.5262 -0.7410 -0.2599
  100SAPC  H10X10030   4.422   4.637   4.535  1.2297  2.6116 -2.8285
  100SAPC  H10Y10031   4.332   4.514   4.429 -0.6066 -0.6842 -0.4176
  100SAPC  C31110032   4.205   4.644   4.536  0.1401  0.5254  0.2857
  100SAPC  H11X10033   4.187   4.553   4.596  0.2187  1.0832  1.1844
  100SAPC  H11Y10034   4.111   4.648   4.477 -0.3964  0.0964  1.0929
  100SAPC  C31210035   4.207   4.765   4.622  0.2656 -0.0101 -0.2811
  100SAPC  H12X10036   4.223   4.856   4.560  1.2335 -0.5967 -0.9249
  100SAPC  H12Y10037   4.295   4.755   4.689  0.8069  1.1392 -0.7947
  100SAPC  C31310038   4.080   4.775   4.712 -0.1263 -0.3081  0.5618
  100SAPC  H13X10039   4.076   4.680   4.770 -0.9362 -0.6433 -0.0222
  100SAPC  H13Y10040   3.989   4.791   4.650  0.7609  2.9831 -0.1083
  100SAPC  C31410041   4.077   4.897   4.801  0.2128 -0.5788  0.3020
  100SAPC  H14X10042   4.021   4.984   4.762 -0.1415 -0.4577  1.0557
  100SAPC  H14Y10043   4.180   4.935   4.818  0.4929 -0.8511 -0.6939
  100SAPC  C31510044   4.008   4.853   4.929 -0.5158  0.8789  0.9775
  100SAPC  H15X10045   4.027   4.749   4.963  0.0180  1.5858  3.0450
  100SAPC  H15Y10046   3.901   4.851   4.901 -0.7047  1.7575  1.6003
  100SAPC  C31610047   4.020   4.957   5.042  0.1445  0.2399 -0.4358
  100SAPC  H16X10048   3.989   4.914   5.140  0.3783  1.5165  0.2134
  100SAPC  H16Y10049   3.949   5.040   5.022 -1.5441  0.2856  4.4506
  100SAPC  C31710050   4.167   5.007   5.074 -0.0132  0.9263  0.6159
  100SAPC  H17X10051   4.158   5.070   5.165  1.3749 -0.1427  1.5397
  100SAPC  H17Y10052   4.202   5.072   4.991  1.9791  1.0545  1.5044
  100SAPC  C31810053   4.267   4.891   5.101  0.1479 -0.4503  0.5539
  100SAPC  H18X10054   4.239   4.849   5.200  0.2222 -0.2174  0.6730
  100SAPC  H18Y10055   4.370   4.929   5.111  0.5754 -0.8971 -1.5908
  100SAPC  H18Z10056   4.255   4.812   5.024 -0.7235 -1.8203  2.0251
  101OSM      N10057   5.319   1.017   7.682  0.0060  0.3662  0.4979
  101OSM    C1510058   5.376   1.142   7.633  0.0672  0.7059 -0.0694
  101OSM   H15A10059   5.482   1.132   7.615  0.0281 -3.5762  0.8412
  101OSM   H15B10060   5.358   1.214   7.711 -1.1234  0.7464 -0.3567
  101OSM   H15C10061   5.337   1.177   7.538  0.7460 -0.0116 -0.6239
  101OSM    C1410062   5.410   0.976   7.790 -0.5982  0.4578 -0.2353
  101OSM   H14A10063   5.379   0.887   7.843 -0.5701  1.7730  2.1142
  101OSM   H14B10064   5.417   1.065   7.850 -0.1336  1.3180 -1.5143
  101OSM   H14C10065   5.503   0.952   7.741 -0.7595  1.2393 -0.9659
  101OSM    C1310066   5.179   1.053   7.734  0.0777 -0.1379 -0.2223
  101OSM   H13A10067   5.189   1.139   7.799  0.2698 -0.4549  0.1750
  101OSM   H13B10068   5.142   0.968   7.789 -0.0604  1.0801  1.6790
  101OSM   H13C10069   5.107   1.061   7.654  1.2457 -1.5762 -1.4621
  101OSM    C1210070   5.307   0.914   7.576 -0.3719  1.0492  0.2974
  101OSM   H12A10071   5.219   0.928   7.515 -0.5141 -0.4012  0.1461
  101OSM   H12B10072   5.304   0.821   7.630 -0.3678  1.0033  0.2186
  101OSM    C1110073   5.429   0.907   7.482  0.4343  0.0039 -0.3513
  101OSM   H11A10074   5.429   0.990   7.408 -0.0491 -0.1131 -0.4909
  101OSM   H11B10075   5.410   0.820   7.415  2.9883  0.6196 -2.0206
  101OSM      P10076   5.613   0.747   7.587  0.1159 -0.3651  0.3895
  101OSM    O1310077   5.725   0.748   7.679 -0.5126 -0.0753 -1.1495
  101OSM    O1410078   5.500   0.659   7.616 -0.1234 -0.4632  0.7269
  101OSM    O1110079   5.668   0.698   7.447 -0.0570  0.0538  0.1003
  101OSM    O1210080   5.559   0.892   7.547 -0.4687 -0.8180 -0.0018
  101OSM    C1S10081   5.786   0.761   7.396 -0.2839  0.6131 -0.1001
  101OSM    H1S10082   5.872   0.722   7.455 -1.0600 -0.2526  0.4840
  101OSM    H1T10083   5.802   0.868   7.418  2.0853  0.1125  0.9268
  101OSM     NF10084   5.929   0.803   7.216 -0.6691 -0.1560 -0.0563
  101OSM    HNF10085   5.920   0.889   7.167 -0.3896 -0.1460 -0.0957
  101OSM    C2S10086   5.805   0.743   7.250 -0.1745  0.0516 -0.3936
  101OSM    H2S10087   5.815   0.634   7.230  1.0852 -0.3919  2.1851
  101OSM    C3S10088   5.684   0.800   7.168 -0.4199  0.9143  1.1115
  101OSM    H3S10089   5.658   0.904   7.197  0.3166  0.7351  2.5119
  101OSM     O310090   5.564   0.729   7.178  0.5470 -0.3767 -0.3454
  101OSM    HO310091   5.573   0.671   7.255  0.9812 -0.6561 -0.6029
  101OSM    C4S10092   5.725   0.804   7.022  0.2550 -0.3881  0.0243
  101OSM    H4S10093   5.731   0.913   7.004 -0.9717  0.0353  1.8626
  101OSM    C5S10094   5.736   0.711   6.932 -0.0249 -0.0115 -0.1017
  101OSM    H5S10095   5.734   0.604   6.958  2.6588 -0.0431  0.1902
  101OSM    C6S10096   5.782   0.736   6.792  0.1168  0.7129  0.0540
  101OSM    H6S10097   5.885   0.696   6.778 -0.0238  0.4210 -0.1599
  101OSM    H6T10098   5.782   0.844   6.766  2.7906  1.5696  2.9384
  101OSM    C7S10099   5.703   0.644   6.701  0.4563 -1.1515  0.7269
  101OSM    H7S10100   5.594   0.668   6.697  0.6968  0.1024  1.1211
  101OSM    H7T10101   5.716   0.538   6.733  1.8539 -1.2678 -0.1422
  101OSM    C8S10102   5.744   0.655   6.555  0.5614 -0.3271 -0.2487
  101OSM    H8S10103   5.854   0.649   6.545  0.5261 -2.0453  0.1990
  101OSM    H8T10104   5.709   0.754   6.518  0.7560  0.5351  1.7160
  101OSM    C9S10105   5.673   0.554   6.459 -0.3730 -0.2089 -0.5110
  101OSM    H9S10106   5.563   0.565   6.449 -0.6453  0.5961  2.4761
  101OSM    H9T10107   5.690   0.452   6.500  2.3488  0.4168  0.1478
  101OSM   C10S10108   5.739   0.559   6.318  0.0678  0.2478  0.7661
  101OSM   H10S10109   5.842   0.519   6.330  0.4690  0.6670 -1.0201
  101OSM   H10T10110   5.757   0.664   6.287  2.3175  0.1281  1.4913
  101OSM   C11S10111   5.665   0.483   6.205 -0.1758 -0.0760 -0.2470
  101OSM   H11S10112   5.582   0.552   6.178  1.2518  1.3231 -1.2691
  101OSM   H11T10113   5.639   0.378   6.229  1.4524 -0.2966  0.7354
  101OSM   C12S10114   5.753   0.456   6.081 -0.5218  0.3576  0.1210
  101OSM   H12S10115   5.847   0.411   6.119 -0.0790  0.8434 -0.3838
  101OSM   H12T10116   5.782   0.546   6.022 -0.2001 -0.0257 -0.3065
  101OSM   C13S10117   5.688   0.367   5.977  0.2395 -0.7319  0.3852
  101OSM   H13S10118   5.632   0.286   6.028  0.1793 -1.2558 -0.4942
  101OSM   H13T10119   5.770   0.307   5.933  1.0900 -0.3846  1.4622
  101OSM   C14S10120   5.604   0.427   5.859 -0.2285  0.8699 -0.6485
  101OSM   H14S10121   5.545   0.519   5.879 -2.7856 -1.2444  2.6514
  101OSM   H14T10122   5.532   0.351   5.820  2.2715 -0.8736 -2.1829
  101OSM   C15S10123   5.701   0.450   5.742  0.0157 -0.0524  0.7030
  101OSM   H15S10124   5.728   0.352   5.698  3.1163 -0.2393  2.7393
  101OSM   H15T10125   5.787   0.507   5.782 -0.7104  4.0530 -2.7334
  101OSM   C16S10126   5.628   0.541   5.644 -0.1625  1.0369  0.4764
  101OSM   H16S10127   5.590   0.635   5.689 -0.5085  1.5444 -0.8168
  101OSM   H16T10128   5.545   0.487   5.594 -1.5164  2.4143  1.1617
  101OSM   C17S10129   5.719   0.595   5.529 -0.4783  0.3028 -1.1811
  101OSM   H17S10130   5.767   0.520   5.464  1.0348 -0.3184  0.5781
  101OSM   H17T10131   5.801   0.646   5.584 -0.0368 -1.5854 -0.0118
  101OSM   C18S10132   5.643   0.687   5.439  0.2491 -0.2076  0.2399
  101OSM   H18S10133   5.585   0.616   5.376  0.7637  0.4711 -1.0208
  101OSM   H18T10134   5.707   0.751   5.375  0.2681  0.4781  0.9279
  101OSM   H18U10135   5.579   0.749   5.505 -0.9498 -1.5711  0.4050
  101OSM    C1F10136   6.054   0.754   7.246 -0.2239  0.4857  0.8489
  101OSM     OF10137   6.075   0.667   7.327 -0.3701  0.4466  0.0786
  101OSM    C2F10138   6.171   0.830   7.183 -1.1444 -0.0424 -0.2204
  101OSM    H2F10139   6.234   0.850   7.272 -1.5337 -2.2943  0.6218
  101OSM    H2G10140   6.140   0.930   7.145  0.2531  0.6624  0.4175
  101OSM    C3F10141   6.229   0.739   7.069 -0.1133 -0.1087 -0.2624
  101OSM    H3F10142   6.143   0.721   7.000 -0.3718  2.2947 -0.6714
  101OSM    H3G10143   6.259   0.640   7.108  1.0775 -0.1324 -1.1761
  101OSM    C4F10144   6.355   0.793   6.993  0.0465  0.2819 -0.1300
  101OSM    H4F10145   6.426   0.809   7.076  0.1027  1.5187 -0.3860
  101OSM    H4G10146   6.333   0.890   6.943 -1.1666 -1.3448 -3.0298
  101OSM    C5F10147   6.410   0.707   6.881  0.1163 -0.1934  0.3397
  101OSM    H5F10148   6.486   0.766   6.825  1.5484 -1.9847  0.2842
  101OSM    H5G10149   6.332   0.674   6.808 -2.7442  1.3780  2.4823
  101OSM    C6F10150   6.495   0.589   6.924  0.0958 -0.2900  0.4591
  101OSM    H6F10151   6.432   0.504   6.958  1.1215 -1.1345  0.3228
  101OSM    H6G10152   6.566   0.616   7.005  1.9259  0.6075 -1.3679
  101OSM    C7F10153   6.594   0.537   6.816 -0.4928 -0.9573  0.3641
  101OSM    H7F10154   6.647   0.457   6.872 -1.4018 -0.8501  1.4126
  101OSM    H7G10155   6.660   0.621   6.787  1.9750 -2.4487  1.3334
  101OSM    C8F10156   6.508   0.480   6.695  0.1794 -0.2150  0.1939
  101OSM    H8F10157   6.469   0.572   6.647 -0.5623 -1.1188 -0.9816
  101OSM    H8G10158   6.422   0.418   6.727  1.5544 -1.7240  1.1303
  101OSM    C9F10159   6.593   0.406   6.597  0.2539 -0.3836  0.4990
  101OSM    H9F10160   6.623   0.307   6.634  2.0071  0.1783  0.6580
  101OSM   C10F10161   6.643   0.452   6.482 -0.6318 -0.0680  0.2275
  101OSM   H10F10162   6.690   0.385   6.409  0.5868 -0.0906  0.9991
  101OSM   C11F10163   6.613   0.586   6.422  0.2688 -0.5217  0.1435
  101OSM   H11F10164   6.701   0.620   6.364  0.0525 -0.3352 -0.0763
  101OSM   H11G10165   6.612   0.670   6.494 -3.3492  0.3446 -0.7380
  101OSM   C12F10166   6.496   0.596   6.333  0.5829 -0.3030 -0.2807
  101OSM   H12F10167   6.476   0.701   6.302  1.4416  0.0069  0.1890
  101OSM   H12G10168   6.402   0.585   6.391  0.2030 -0.3383 -0.8866
  101OSM   C13F10169   6.494   0.501   6.210 -0.5987  0.1017 -0.1442
  101OSM   H13F10170   6.389   0.493   6.174 -0.5882 -3.5970  0.3217
  101OSM   H13G10171   6.510   0.403   6.259  3.2076  0.9067  0.5586
  101OSM   C14F10172   6.599   0.543   6.104 -0.3546 -0.1095 -0.3395
  101OSM   H14F10173   6.695   0.547   6.159 -1.6680  1.8991  2.0259
  101OSM   H14G10174   6.577   0.646   6.069  1.9061  0.6903  0.4381
  101OSM   C15F10175   6.594   0.451   5.983  0.0113  0.6005  0.5768
  101OSM   H15F10176   6.506   0.491   5.928  0.0719 -1.5370 -1.2531
  101OSM   H15G10177   6.585   0.345   6.018  1.7832  0.7924  1.7425
  101OSM   C16F10178   6.709   0.458   5.883  0.5176 -0.2634  0.0575
  101OSM   H16F10179   6.793   0.408   5.936  1.8364 -0.8309 -2.4211
  101OSM   H16G10180   6.743   0.562   5.868  0.6863 -0.2166  0.7214
  101OSM   C17F10181   6.671   0.382   5.753 -0.3204 -0.4492  0.5472
  101OSM   H17F10182   6.615   0.294   5.791 -0.8535  0.4205  1.8537
  101OSM   H17G10183   6.761   0.352   5.695 -1.4362 -1.0766 -0.9228
  101OSM   C18F10184   6.585   0.467   5.664  0.0831 -0.3393  0.2364
  101OSM   H18F10185   6.509   0.405   5.611  0.4049 -2.1895  1.7967
  101OSM   H18G10186   6.651   0.533   5.604  0.4524 -0.4917  0.4680
  101OSM   H18H10187   6.518   0.525   5.731 -3.3686 -3.9724  0.3327
  102OSM      N10188   6.487   4.828   7.333 -0.0613 -0.0088  0.0755
  102OSM    C1510189   6.639   4.796   7.334  0.3143 -0.2326 -0.4166
  102OSM   H15A10190   6.675   4.798   7.435 -1.9395  0.2290  0.4381
  102OSM   H15B10191   6.686   4.880   7.286 -0.6512  0.7331  0.3040
  102OSM   H15C10192   6.658   4.700   7.287  0.1169  0.0798 -1.1454
  102OSM    C1410193   6.436   4.799   7.196  0.2877  0.5896 -0.8320
  102OSM   H14A10194   6.334   4.832   7.182 -0.1630 -0.5033 -0.1978
  102OSM   H14B10195   6.426   4.693   7.178 -1.1681  0.6047 -0.2513
  102OSM   H14C10196   6.507   4.842   7.127 -0.2971  0.8689 -1.2772
  102OSM    C1310197   6.420   4.738   7.429 -0.0493 -0.1321 -0.1286
  102OSM   H13A10198   6.319   4.774   7.447  0.1902  0.2648  0.4820
  102OSM   H13B10199   6.477   4.746   7.521  1.9399  1.3622 -1.4039
  102OSM   H13C10200   6.409   4.639   7.388  1.2863  0.5129 -2.1710
  102OSM    C1210201   6.467   4.972   7.361 -0.0953 -0.5923 -0.5926
  102OSM   H12A10202   6.496   4.997   7.462  1.7999 -1.7185 -0.8163
  102OSM   H12B10203   6.361   4.991   7.351 -0.5258 -2.5529 -0.2188
  102OSM    C1110204   6.546   5.075   7.277  0.1627 -0.5053 -0.0715
  102OSM   H11A10205   6.492   5.168   7.307 -0.1795 -1.3629  2.1927
  102OSM   H11B10206   6.526   5.060   7.169 -0.1515 -0.1178 -0.0682
  102OSM      P10207   6.762   5.205   7.304 -0.3099 -0.0828  0.2586
  102OSM    O1310208   6.707   5.287   7.414 -0.2962  0.4634  0.7534
  102OSM    O1410209   6.902   5.154   7.307 -0.0984  0.0947  0.0472
  102OSM    O1110210   6.721   5.264   7.166  0.5468  0.4539  0.2797
  102OSM    O1210211   6.687   5.069   7.306 -0.3248 -0.2698  0.5251
  102OSM    C1S10212   6.787   5.226   7.049  0.4754  0.6593  0.2505
  102OSM    H1S10213   6.794   5.116   7.036  1.9133  0.5897  1.3431
  102OSM    H1T10214   6.895   5.254   7.058  1.4083 -3.0201  2.4048
  102OSM     NF10215   6.753   5.229   6.805 -0.4201  0.5677  0.0097
  102OSM    HNF10216   6.828   5.277   6.760  0.4384 -0.8918 -0.1956
  102OSM    C2S10217   6.701   5.288   6.934 -0.5375 -0.0506  0.1836
  102OSM    H2S10218   6.593   5.264   6.938 -1.5603  3.5224 -1.7620
  102OSM    C3S10219   6.723   5.444   6.934 -0.2723  0.2200 -0.4904
  102OSM    H3S10220   6.833   5.456   6.918 -0.0568 -1.1097 -0.1651
  102OSM     O310221   6.707   5.516   7.054 -0.2124  0.1299 -0.5985
  102OSM    HO310222   6.697   5.442   7.114  1.6532 -0.9889 -1.5830
  102OSM    C4S10223   6.663   5.511   6.815  0.5897 -0.3138  0.3978
  102OSM    H4S10224   6.736   5.515   6.732  0.5768 -0.4606  0.3795
  102OSM    C5S10225   6.541   5.559   6.805 -0.4011  0.2531 -0.6410
  102OSM    H5S10226   6.474   5.555   6.892  0.5122 -1.3341  0.0312
  102OSM    C6S10227   6.476   5.630   6.690  0.1021  0.0748  0.3812
  102OSM    H6S10228   6.435   5.731   6.712  0.7998  1.1813 -2.7811
  102OSM    H6T10229   6.384   5.574   6.661 -2.4505  2.9704  2.2058
  102OSM    C7S10230   6.563   5.645   6.565  0.6302  0.6178  0.8467
  102OSM    H7S10231   6.664   5.678   6.594  1.4362 -1.1074  0.1752
  102OSM    H7T10232   6.526   5.735   6.511 -0.5833  0.1977  0.9322
  102OSM    C8S10233   6.562   5.512   6.475  0.0526 -1.0095 -0.0075
  102OSM    H8S10234   6.457   5.502   6.439 -0.1513 -0.9976  0.5642
  102OSM    H8T10235   6.581   5.427   6.543 -2.1122 -0.6740  1.1160
  102OSM    C9S10236   6.651   5.517   6.352  0.3046  0.1525  0.3553
  102OSM    H9S10237   6.652   5.616   6.301 -1.2358 -0.0786 -0.1867
  102OSM    H9T10238   6.605   5.449   6.276 -1.2195  1.0635  0.4280
  102OSM   C10S10239   6.801   5.473   6.376 -0.0953 -0.2646  0.0350
  102OSM   H10S10240   6.802   5.384   6.442  1.1289  0.3574  0.9090
  102OSM   H10T10241   6.857   5.556   6.425 -0.6764 -0.8003  1.6610
  102OSM   C11S10242   6.865   5.429   6.244 -0.3839  0.2198  0.0845
  102OSM   H11S10243   6.869   5.508   6.165  2.4081 -0.7497 -0.8728
  102OSM   H11T10244   6.813   5.345   6.193 -1.0750  0.4754  0.3562
  102OSM   C12S10245   7.016   5.390   6.266 -0.0245 -0.6862  0.6420
  102OSM   H12S10246   7.012   5.313   6.347 -2.7074 -1.1209  0.2126
  102OSM   H12T10247   7.089   5.467   6.296  0.8782 -1.7232  1.1805
  102OSM   C13S10248   7.075   5.337   6.134 -0.5052  0.5615  0.4758
  102OSM   H13S10249   7.035   5.234   6.122 -1.7247  0.4813  4.0343
  102OSM   H13T10250   7.184   5.322   6.145 -0.9027 -2.0842  1.7273
  102OSM   C14S10251   7.052   5.425   6.012  0.2939 -0.7020 -0.2056
  102OSM   H14S10252   7.074   5.532   6.029 -1.1261 -0.0768 -2.0365
  102OSM   H14T10253   6.950   5.408   5.973  0.6595 -2.1449 -0.6027
  102OSM   C15S10254   7.139   5.374   5.894  0.8761  0.0781  1.1886
  102OSM   H15S10255   7.126   5.264   5.891  0.5167  0.1347  0.6315
  102OSM   H15T10256   7.240   5.393   5.936  0.7405 -3.2059  3.3702
  102OSM   C16S10257   7.103   5.454   5.769 -0.2192  0.0930 -0.5056
  102OSM   H16S10258   7.123   5.563   5.775  2.2667 -0.3575  0.6037
  102OSM   H16T10259   7.009   5.428   5.716  0.9759 -2.8523 -1.3805
  102OSM   C17S10260   7.197   5.411   5.653 -0.0316 -0.7871  0.2669
  102OSM   H17S10261   7.173   5.303   5.641  0.8058 -0.9245 -0.2564
  102OSM   H17T10262   7.299   5.404   5.697  0.3712  1.5412 -0.1456
  102OSM   C18S10263   7.192   5.482   5.519 -0.4997  0.2360  0.1054
  102OSM   H18S10264   7.093   5.471   5.469  0.0785  0.2679 -1.0762
  102OSM   H18T10265   7.264   5.440   5.445  0.3251  1.1217  0.3736
  102OSM   H18U10266   7.198   5.592   5.533 -0.2487  0.2515 -0.1106
  102OSM    C1F10267   6.727   5.101   6.767  0.0358  0.1124 -0.2843
  102OSM     OF10268   6.650   5.035   6.831 -0.2394  0.0046 -0.8312
  102OSM    C2F10269   6.789   5.048   6.640  0.2380 -0.4655 -0.5672
  102OSM    H2F10270   6.793   4.937   6.644  2.1351 -0.4008  1.1169
  102OSM    H2G10271   6.892   5.088   6.638 -0.7744  2.7798  2.2360
  102OSM    C3F10272   6.700   5.101   6.519  0.1074 -0.2452 -0.4545
  102OSM    H3F10273   6.699   5.212   6.518  2.1607 -0.1812 -1.0893
  102OSM    H3G10274   6.599   5.067   6.549  0.4155 -0.0284  0.9388
  102OSM    C4F10275   6.754   5.048   6.382  0.0438  0.5400 -0.4560
  102OSM    H4F10276   6.757   4.937   6.375  1.0292  0.3664  1.9403
  102OSM    H4G10277   6.855   5.091   6.363  0.2697  0.5187  0.6524
  102OSM    C5F10278   6.660   5.095   6.267 -0.0866 -0.3824 -0.1261
  102OSM    H5F10279   6.621   5.198   6.280 -0.9061 -1.0016  3.7589
  102OSM    H5G10280   6.568   5.033   6.273 -1.2223  1.0643 -1.7489
  102OSM    C6F10281   6.712   5.076   6.121  0.1025 -0.5364  0.0494
  102OSM    H6F10282   6.742   4.969   6.113 -0.3393 -0.5787 -1.4694
  102OSM    H6G10283   6.798   5.141   6.093 -1.0699  0.1789 -2.1607
  102OSM    C7F10284   6.594   5.086   6.016  0.0820  1.1735 -0.0106
  102OSM    H7F10285   6.505   5.027   6.047  0.8377 -1.5453 -2.5614
  102OSM    H7G10286   6.630   5.022   5.933 -0.0029  0.4759  0.4833
  102OSM    C8F10287   6.550   5.214   5.974 -0.7042  0.1406  0.1448
  102OSM    H8F10288   6.513   5.273   6.061  0.4804  0.3878  0.5014
  102OSM    H8G10289   6.462   5.202   5.907  0.3233  0.5788 -1.3294
  102OSM    C9F10290   6.650   5.306   5.901  0.0477 -0.9860 -0.0725
  102OSM    H9F10291   6.708   5.369   5.970  1.3417 -0.1202 -1.8661
  102OSM   C10F10292   6.658   5.330   5.766 -0.3264  0.1732 -0.7868
  102OSM   H10F10293   6.738   5.395   5.729 -0.9241  1.1735 -0.3682
  102OSM   C11F10294   6.562   5.261   5.660 -0.3852  0.4045  0.4497
  102OSM   H11F10295   6.551   5.335   5.578 -2.7689 -0.0910  0.2684
  102OSM   H11G10296   6.462   5.249   5.706 -0.6806  1.3995  0.0889
  102OSM   C12F10297   6.605   5.117   5.612 -0.2013  0.1573  0.7794
  102OSM   H12F10298   6.524   5.071   5.550  1.9229 -0.8536 -1.4005
  102OSM   H12G10299   6.613   5.058   5.706 -3.7639  1.3637  2.0241
  102OSM   C13F10300   6.731   5.123   5.527  0.1723 -0.0514 -0.0889
  102OSM   H13F10301   6.772   5.021   5.512 -0.1899 -0.3458  0.8265
  102OSM   H13G10302   6.803   5.189   5.580  1.5864 -0.3346 -1.5614
  102OSM   C14F10303   6.705   5.172   5.382  0.1914  0.3491 -0.6286
  102OSM   H14F10304   6.676   5.279   5.375  0.1285  0.2844 -1.5875
  102OSM   H14G10305   6.612   5.123   5.347 -0.0645  2.3636 -3.1013
  102OSM   C15F10306   6.819   5.148   5.296 -0.1639 -0.5902  1.1771
  102OSM   H15F10307   6.852   5.042   5.310 -2.9300 -1.6441  0.3145
  102OSM   H15G10308   6.910   5.206   5.322 -0.2699 -1.1250  2.8694
  102OSM   C16F10309   6.803   5.154   5.145  0.0961 -0.8407  0.3146
  102OSM   H16F10310   6.739   5.070   5.112 -0.8793 -0.3049  0.7932
  102OSM   H16G10311   6.905   5.147   5.100  0.6230  3.1994  0.4784
  102OSM   C17F10312   6.742   5.289   5.093 -0.8888 -0.4677  0.4290
  102OSM   H17F10313   6.637   5.295   5.129 -1.3063  0.6997 -0.9065
  102OSM   H17G10314   6.736   5.283   4.982  0.3989  0.9945  0.2507
  102OSM   C18F10315   6.825   5.421   5.128  0.9331  0.0256 -0.1762
  102OSM   H18F10316   6.897   5.446   5.047  0.9250  3.3831  0.7114
  102OSM   H18G10317   6.866   5.425   5.231 -0.9681 -3.3761  0.8780
  102OSM   H18H10318   6.742   5.494   5.122  0.3197 -0.2024  3.5668
  103OSM      N10319   4.575   1.516   7.382 -0.5694  0.0428 -0.6589
  103OSM    C1510320   4.448   1.596   7.413 -0.0028  0.2982  0.2723
  103OSM   H15A10321   4.385   1.570   7.330 -0.6273 -0.1085  0.8595
  103OSM   H15B10322   4.464   1.703   7.418 -0.3197  0.2895  2.7207
  103OSM   H15C10323   4.404   1.554   7.503 -1.0289  1.4369  0.3271
  103OSM    C1410324   4.674   1.544   7.495 -0.7531  0.9123 -0.1911
  103OSM   H14A10325   4.652   1.489   7.585 -0.7216  0.3284 -0.5363
  103OSM   H14B10326   4.701   1.646   7.517 -0.0165  0.8124 -0.5951
  103OSM   H14C10327   4.772   1.505   7.473 -0.1200  0.2148  3.3738
  103OSM    C1310328   4.534   1.371   7.403 -0.1954  0.1150  0.1444
  103OSM   H13A10329   4.493   1.353   7.501  2.4385 -0.0612  1.2779
  103OSM   H13B10330   4.629   1.321   7.394 -0.3038 -0.0680  0.0070
  103OSM   H13C10331   4.469   1.337   7.324  0.0792 -0.8448  0.3197
  103OSM    C1210332   4.624   1.542   7.239 -0.5673 -0.2855  0.0728
  103OSM   H12A10333   4.547   1.504   7.174 -0.2850 -0.5187 -0.1258
  103OSM   H12B10334   4.698   1.469   7.213 -0.7886 -1.0175  1.3842
  103OSM    C1110335   4.682   1.679   7.212  1.4513 -0.1117  0.2805
  103OSM   H11A10336   4.625   1.765   7.253  1.8269  1.3579 -2.1137
  103OSM   H11B10337   4.672   1.698   7.103 -1.9446  2.3168  0.8453
  103OSM      P10338   4.941   1.701   7.186  0.1400 -0.3538 -0.2130
  103OSM    O1310339   4.956   1.849   7.163  0.3356  0.0099  0.4038
  103OSM    O1410340   5.040   1.618   7.260 -0.4649 -0.0838 -0.4420
  103OSM    O1110341   4.903   1.623   7.054 -0.0031  0.4038  0.5047
  103OSM    O1210342   4.808   1.697   7.271  0.4703  0.0106  0.3542
  103OSM    C1S10343   4.942   1.677   6.923  0.0355  0.8076 -0.3830
  103OSM    H1S10344   5.047   1.714   6.927 -0.2534  1.5602  0.6617
  103OSM    H1T10345   4.876   1.763   6.896 -0.5874 -0.0105 -1.5535
  103OSM     NF10346   4.941   1.650   6.682  0.0653 -0.5501 -0.3944
  103OSM    HNF10347   4.859   1.670   6.628  0.9722 -1.6605 -2.2951
  103OSM    C2S10348   4.914   1.578   6.807 -0.2737  0.9500  1.1307
  103OSM    H2S10349   4.990   1.497   6.816  0.6061  1.5473 -0.4778
  103OSM    C3S10350   4.780   1.512   6.809 -0.3377  0.8290  0.6125
  103OSM    H3S10351   4.706   1.595   6.802 -0.0014  1.5128  3.5766
  103OSM     O310352   4.749   1.450   6.928 -0.7167  0.0503 -0.3201
  103OSM    HO310353   4.797   1.503   6.992 -0.3485 -0.0872 -0.4830
  103OSM    C4S10354   4.767   1.422   6.686  0.5178  0.2000  0.4039
  103OSM    H4S10355   4.852   1.354   6.669  0.8584  0.0254  2.5122
  103OSM    C5S10356   4.670   1.434   6.585  0.0982 -0.2981 -0.6863
  103OSM    H5S10357   4.583   1.495   6.615  1.4013  0.2317  2.4465
  103OSM    C6S10358   4.659   1.364   6.452 -0.0292  0.1758  0.5421
  103OSM    H6S10359   4.666   1.442   6.373 -1.7204 -0.7851 -0.6278
  103OSM    H6T10360   4.557   1.321   6.443 -0.7040  1.9453 -0.7399
  103OSM    C7S10361   4.768   1.261   6.412  0.9746 -0.2774  0.3304
  103OSM    H7S10362   4.752   1.174   6.479 -1.2119 -0.7133 -0.6395
  103OSM    H7T10363   4.867   1.309   6.420 -0.0149  2.1933 -0.9464
  103OSM    C8S10364   4.744   1.221   6.267 -0.4042 -0.1151  0.5598
  103OSM    H8S10365   4.778   1.307   6.206 -0.5948  1.1029  2.0919
  103OSM    H8T10366   4.637   1.197   6.248  0.0326  0.7634 -3.9707
  103OSM    C9S10367   4.832   1.100   6.227 -0.3913  0.7169  0.1572
  103OSM    H9S10368   4.801   1.011   6.287  0.1035  0.4505  0.0209
  103OSM    H9T10369   4.938   1.117   6.254 -0.5544 -0.1484  1.4684
  103OSM   C10S10370   4.826   1.058   6.082  0.2877  0.4518 -0.3805
  103OSM   H10S10371   4.717   1.059   6.058 -0.0851  0.8914  1.2428
  103OSM   H10T10372   4.869   0.957   6.067 -1.7734 -0.1023 -3.3510
  103OSM   C11S10373   4.898   1.149   5.984 -0.5204  0.0420 -0.2587
  103OSM   H11S10374   4.960   1.084   5.918 -1.5708 -1.6404  0.3343
  103OSM   H11T10375   4.959   1.225   6.037  0.4989 -1.0410  0.1615
  103OSM   C12S10376   4.795   1.227   5.893  0.1162  0.1973 -0.1433
  103OSM   H12S10377   4.721   1.284   5.953  1.8353  0.7759  1.5462
  103OSM   H12T10378   4.725   1.155   5.845  0.6192  0.2754 -1.0219
  103OSM   C13S10379   4.860   1.327   5.799 -0.3319 -0.0952  0.0956
  103OSM   H13S10380   4.939   1.390   5.846 -0.8645  0.9242 -0.3466
  103OSM   H13T10381   4.783   1.395   5.756  0.5897  0.4191 -0.7724
  103OSM   C14S10382   4.934   1.251   5.683  0.0435  0.6682 -0.4815
  103OSM   H14S10383   5.017   1.198   5.734  0.1520  2.4320  1.2958
  103OSM   H14T10384   4.966   1.322   5.604 -0.8677  2.6311  0.8372
  103OSM   C15S10385   4.844   1.158   5.594 -0.0616 -0.3249 -0.0004
  103OSM   H15S10386   4.746   1.209   5.581  0.3396  0.1983 -1.1171
  103OSM   H15T10387   4.839   1.065   5.654 -1.2019 -0.9602 -1.0366
  103OSM   C16S10388   4.910   1.138   5.457 -0.8749  0.1184 -0.4279
  103OSM   H16S10389   5.019   1.120   5.469 -0.4563  1.2894 -2.0821
  103OSM   H16T10390   4.900   1.243   5.424  0.7962  0.4129 -0.0932
  103OSM   C17S10391   4.846   1.032   5.364 -0.4742 -0.8809 -0.0108
  103OSM   H17S10392   4.737   1.040   5.384  0.0801  0.3196  3.0765
  103OSM   H17T10393   4.888   0.938   5.406  1.3494 -0.4349 -0.7405
  103OSM   C18S10394   4.888   1.048   5.219  0.3813 -0.3289  0.1888
  103OSM   H18S10395   4.863   0.957   5.160  1.1125  0.2051 -0.9794
  103OSM   H18T10396   4.997   1.065   5.203 -0.3906  2.5479 -3.2366
  103OSM   H18U10397   4.837   1.136   5.174 -0.4442  0.3441  2.3056
  103OSM    C1F10398   5.059   1.702   6.652 -0.2234  0.3429 -0.5568
  103OSM     OF10399   5.164   1.665   6.714 -0.0156  0.1012  0.0297
  103OSM    C2F10400   5.066   1.796   6.542  0.2017  0.0115  0.8612
  103OSM    H2F10401   5.005   1.889   6.547 -2.2793 -1.1877 -2.9344
  103OSM    H2G10402   5.016   1.740   6.460 -0.6042 -1.0431  2.0334
  103OSM    C3F10403   5.207   1.831   6.510  0.0171  0.2114  0.0755
  103OSM    H3F10404   5.279   1.747   6.496 -0.5678 -0.2608 -0.1060
  103OSM    H3G10405   5.241   1.893   6.596 -0.6555  0.9413 -0.1825
  103OSM    C4F10406   5.215   1.913   6.376 -0.6213  0.3247  0.4331
  103OSM    H4F10407   5.299   1.985   6.372  0.0399 -0.4676 -0.6235
  103OSM    H4G10408   5.126   1.979   6.364 -0.4339  0.7024  1.0968
  103OSM    C5F10409   5.225   1.831   6.243  0.3704 -0.3313 -0.0881
  103OSM    H5F10410   5.150   1.750   6.254  0.3652 -0.1982  0.9288
  103OSM    H5G10411   5.329   1.791   6.239  0.2307 -0.6288 -3.6009
  103OSM    C6F10412   5.206   1.919   6.113  0.3126 -0.2294  0.1008
  103OSM    H6F10413   5.135   2.002   6.131 -0.7213 -1.3350  1.4030
  103OSM    H6G10414   5.177   1.856   6.026 -0.0574  1.2161 -0.8539
  103OSM    C7F10415   5.345   1.971   6.065  0.2300  1.2839  0.8597
  103OSM    H7F10416   5.423   1.893   6.048 -0.5715  0.8725 -1.1779
  103OSM    H7G10417   5.393   2.034   6.143  0.0527  0.5388  1.5862
  103OSM    C8F10418   5.335   2.048   5.933 -0.5460 -0.7411  0.1563
  103OSM    H8F10419   5.438   2.088   5.930 -1.4297  1.6605 -0.2616
  103OSM    H8G10420   5.263   2.133   5.942 -0.4476 -0.6023 -0.3472
  103OSM    C9F10421   5.310   1.963   5.813  0.0154  0.4345  0.7598
  103OSM    H9F10422   5.207   1.928   5.799 -0.2571 -0.3635  3.9592
  103OSM   C10F10423   5.402   1.927   5.719 -0.4639  0.2523  0.7946
  103OSM   H10F10424   5.360   1.880   5.629  0.0351 -1.0371  1.2227
  103OSM   C11F10425   5.545   1.959   5.719 -0.0753 -0.2018  0.0538
  103OSM   H11F10426   5.608   1.892   5.782  0.7348  0.4625 -0.0244
  103OSM   H11G10427   5.568   2.062   5.755  0.5028 -0.0035 -0.8558
  103OSM   C12F10428   5.624   1.956   5.583 -0.0254 -0.3152  0.3623
  103OSM   H12F10429   5.582   2.019   5.502 -1.0711  0.9545  1.8198
  103OSM   H12G10430   5.632   1.850   5.552 -2.4057 -0.4700  0.1039
  103OSM   C13F10431   5.765   2.003   5.591 -0.1991 -0.5096  0.1854
  103OSM   H13F10432   5.830   1.944   5.659  0.2405 -1.6000 -1.1275
  103OSM   H13G10433   5.772   2.108   5.627 -1.3715  0.6802 -2.7253
  103OSM   C14F10434   5.831   2.020   5.449  0.7763  0.3496 -0.4290
  103OSM   H14F10435   5.773   2.101   5.399  2.0938  2.5660  1.4070
  103OSM   H14G10436   5.810   1.936   5.380  1.1664 -0.2621  0.1842
  103OSM   C15F10437   5.976   2.053   5.469 -0.6556 -0.2543  0.7200
  103OSM   H15F10438   6.023   1.983   5.541  1.4900  0.0382 -0.3152
  103OSM   H15G10439   5.980   2.154   5.515  2.0028  0.2672 -0.5131
  103OSM   C16F10440   6.041   2.073   5.331  0.1549 -0.7360 -0.3862
  103OSM   H16F10441   5.979   2.147   5.277 -2.0229 -1.4395  1.0403
  103OSM   H16G10442   6.027   1.987   5.262 -0.3598  0.4424 -1.7749
  103OSM   C17F10443   6.181   2.129   5.339  0.1637 -0.0259  0.3026
  103OSM   H17F10444   6.257   2.053   5.366  1.6859  1.2311 -0.2368
  103OSM   H17G10445   6.190   2.200   5.424 -0.0079 -0.8048  0.9745
  103OSM   C18F10446   6.230   2.190   5.204  0.3612  0.3010 -0.7943
  103OSM   H18F10447   6.316   2.253   5.238  0.8998 -1.9232  2.3753
  103OSM   H18G10448   6.148   2.255   5.167  1.2284  1.8148 -0.1582
  103OSM   H18H10449   6.267   2.111   5.135 -0.3938 -0.3717 -0.4257
  104OSM      N10450   5.608   1.270   7.141  0.0064 -0.5447  0.1007
  104OSM    C1510451   5.725   1.262   7.046 -0.2761  0.7227  0.0670
  104OSM   H15A10452   5.692   1.233   6.947  0.0012  2.3205 -0.5281
  104OSM   H15B10453   5.785   1.177   7.073 -2.3653 -0.1563  2.3801
  104OSM   H15C10454   5.779   1.355   7.033  1.1509 -0.1000 -0.0613
  104OSM    C1410455   5.533   1.400   7.105  0.2383  0.2045 -0.5611
  104OSM   H14A10456   5.443   1.411   7.163 -1.4001 -1.3104 -2.6477
  104OSM   H14B10457   5.508   1.398   7.000  0.1093  1.5365 -0.5703
  104OSM   H14C10458   5.594   1.488   7.120 -0.4624  0.7017 -0.5964
  104OSM    C1310459   5.526   1.150   7.119  0.3203  0.4502  0.4219
  104OSM   H13A10460   5.571   1.065   7.168 -0.0846 -1.7796 -2.7904
  104OSM   H13B10461   5.505   1.129   7.015 -2.0124  1.4411  0.6177
  104OSM   H13C10462   5.432   1.165   7.170  0.0848 -2.3370  0.9247
  104OSM    C1210463   5.662   1.290   7.289  0.0361  0.4699 -0.1410
  104OSM   H12A10464   5.585   1.318   7.360 -0.5298 -0.3134 -0.4295
  104OSM   H12B10465   5.729   1.375   7.288  1.3431 -0.5160  0.6804
  104OSM    C1110466   5.738   1.167   7.357 -0.3241  0.0327  0.6152
  104OSM   H11A10467   5.660   1.088   7.365 -0.7863  0.5986  2.0668
  104OSM   H11B10468   5.760   1.205   7.459 -0.7880 -0.0481  0.7519
  104OSM      P10469   5.983   1.189   7.291 -0.5936  0.1154 -0.1680
  104OSM    O1310470   5.965   1.332   7.315 -0.1154 -0.0007 -0.3217
  104OSM    O1410471   6.068   1.108   7.384  0.0008 -0.1712 -0.2353
  104OSM    O1110472   6.026   1.173   7.144 -0.5862  0.4788 -0.4028
  104OSM    O1210473   5.847   1.114   7.279 -0.2901  0.1024 -0.0625
  104OSM    C1S10474   6.080   1.268   7.060  0.4710  0.1571 -0.1315
  104OSM    H1S10475   6.162   1.315   7.119 -0.3883  0.0380  1.1984
  104OSM    H1T10476   6.005   1.348   7.042 -1.4616 -1.4523  0.4841
  104OSM     NF10477   6.226   1.300   6.862  0.1008 -0.1814  0.1556
  104OSM    HNF10478   6.200   1.318   6.767  3.0742  2.2148 -0.3850
  104OSM    C2S10479   6.149   1.206   6.942  0.0055 -0.2610  0.6398
  104OSM    H2S10480   6.218   1.134   6.991  2.2159 -0.1592 -2.0769
  104OSM    C3S10481   6.048   1.122   6.857 -0.0722 -0.1003  0.2202
  104OSM    H3S10482   5.983   1.199   6.810 -3.0462 -2.9241 -0.6575
  104OSM     O310483   5.949   1.044   6.928 -0.1518  0.1591  0.0008
  104OSM    HO310484   5.957   1.078   7.017  1.6749  0.3377 -0.2054
  104OSM    C4S10485   6.103   1.034   6.747 -0.0785 -0.4399 -0.7099
  104OSM    H4S10486   6.149   1.093   6.666  1.2625  0.9073  0.9650
  104OSM    C5S10487   6.095   0.896   6.733 -0.0816 -0.0439  0.0045
  104OSM    H5S10488   6.033   0.836   6.800  0.4847  0.0523  0.6253
  104OSM    C6S10489   6.162   0.817   6.620  0.1936  0.7343  0.3199
  104OSM    H6S10490   6.178   0.711   6.648  0.0191  0.9646  1.3133
  104OSM    H6T10491   6.267   0.854   6.620  0.5571 -0.2760 -0.1386
  104OSM    C7S10492   6.094   0.828   6.485  0.3678 -0.2538  0.1074
  104OSM    H7S10493   6.112   0.937   6.470 -0.9275 -0.0623 -0.1372
  104OSM    H7T10494   5.986   0.802   6.487  0.5018 -0.7766  1.5967
  104OSM    C8S10495   6.166   0.749   6.379 -0.6478  0.6826  0.1331
  104OSM    H8S10496   6.137   0.645   6.408 -0.1152  0.6777  0.6661
  104OSM    H8T10497   6.276   0.760   6.384 -0.4087  1.7894 -4.1648
  104OSM    C9S10498   6.110   0.786   6.244  0.7147  0.3376  0.3088
  104OSM    H9S10499   6.128   0.895   6.235  3.1246  0.0618  1.0720
  104OSM    H9T10500   6.002   0.767   6.257  0.6462  1.3503  1.3928
  104OSM   C10S10501   6.185   0.689   6.146  0.2977  0.5581 -0.5173
  104OSM   H10S10502   6.164   0.586   6.181 -0.3279  0.8811  0.0824
  104OSM   H10T10503   6.290   0.718   6.169  0.0163  0.9478  0.2936
  104OSM   C11S10504   6.145   0.699   6.000  0.0929 -0.3322 -0.1198
  104OSM   H11S10505   6.185   0.799   5.973  0.1338 -0.1813  0.4912
  104OSM   H11T10506   6.034   0.698   5.991 -0.2489 -0.5072  2.8879
  104OSM   C12S10507   6.208   0.588   5.920 -0.6200  0.2711 -0.8275
  104OSM   H12S10508   6.149   0.500   5.951  1.0601 -0.7419 -0.3790
  104OSM   H12T10509   6.311   0.567   5.956  0.1623  3.1990 -1.0804
  104OSM   C13S10510   6.225   0.621   5.768  0.3471  0.5699  0.1260
  104OSM   H13S10511   6.267   0.528   5.726  1.8571  1.4931 -0.4949
  104OSM   H13T10512   6.305   0.697   5.751  3.4647 -2.6723 -0.8011
  104OSM   C14S10513   6.094   0.642   5.699  0.1219  0.3645  0.3688
  104OSM   H14S10514   6.038   0.727   5.746 -1.9166 -0.9694  0.4675
  104OSM   H14T10515   6.027   0.556   5.720  2.0209 -1.0551  0.8183
  104OSM   C15S10516   6.108   0.656   5.544 -0.2409 -0.4081 -0.2077
  104OSM   H15S10517   6.162   0.752   5.537 -0.4218 -0.0337  2.4316
  104OSM   H15T10518   6.013   0.679   5.490  1.3440  1.1812 -2.4816
  104OSM   C16S10519   6.172   0.535   5.475  0.2153  0.1338 -0.0860
  104OSM   H16S10520   6.122   0.451   5.528 -2.5004  1.0800 -0.9513
  104OSM   H16T10521   6.282   0.531   5.492  0.3695  2.2070 -0.3139
  104OSM   C17S10522   6.155   0.538   5.321  0.0555  0.5635  0.3113
  104OSM   H17S10523   6.236   0.602   5.277  1.2498 -0.2288  1.3069
  104OSM   H17T10524   6.058   0.582   5.290  0.3088  1.2524  0.4686
  104OSM   C18S10525   6.156   0.390   5.281 -0.2018 -0.3756 -0.2041
  104OSM   H18S10526   6.154   0.381   5.170 -0.5984  0.0190 -0.2313
  104OSM   H18T10527   6.068   0.337   5.320 -0.6995 -1.0337 -2.1116
  104OSM   H18U10528   6.251   0.346   5.319 -0.0045  1.0405  1.0599
  104OSM    C1F10529   6.340   1.358   6.904  0.4877 -0.1819  0.6067
  104OSM     OF10530   6.382   1.326   7.015 -0.2978  0.1445 -0.2353
  104OSM    C2F10531   6.415   1.457   6.816 -0.2308 -0.3220 -0.0758
  104OSM    H2F10532   6.342   1.507   6.750 -0.6157  0.3631  0.8450
  104OSM    H2G10533   6.482   1.395   6.753  1.6851 -0.0553  1.5708
  104OSM    C3F10534   6.494   1.563   6.894  0.5038  0.8955  0.4794
  104OSM    H3F10535   6.571   1.527   6.967  1.3454  0.0143 -0.8031
  104OSM    H3G10536   6.427   1.637   6.943 -0.7675 -0.6872  1.2221
  104OSM    C4F10537   6.582   1.641   6.794  0.6851  0.0295 -0.6450
  104OSM    H4F10538   6.622   1.575   6.714 -0.2803 -2.3791  0.7744
  104OSM    H4G10539   6.669   1.685   6.847  0.7256 -2.2115  1.2941
  104OSM    C5F10540   6.506   1.760   6.742  0.2193  0.4499 -0.0180
  104OSM    H5F10541   6.485   1.832   6.823  2.6890  0.5846  0.5883
  104OSM    H5G10542   6.410   1.735   6.693  1.8000 -1.3410 -2.4526
  104OSM    C6F10543   6.589   1.836   6.637 -0.1463 -0.1682  0.4832
  104OSM    H6F10544   6.641   1.763   6.571 -1.0539 -0.8766  0.5353
  104OSM    H6G10545   6.666   1.894   6.692 -1.4873 -0.6425  3.0535
  104OSM    C7F10546   6.506   1.920   6.541 -0.4595  0.2500 -0.1689
  104OSM    H7F10547   6.469   1.994   6.615  2.1864  1.0238  0.5217
  104OSM    H7G10548   6.419   1.878   6.487 -0.2010 -0.6620  0.1089
  104OSM    C8F10549   6.589   1.994   6.438  0.1179 -0.3460  1.0272
  104OSM    H8F10550   6.637   1.917   6.374 -0.3947  1.1885 -1.3426
  104OSM    H8G10551   6.668   2.043   6.498  0.6787 -2.1415  1.8070
  104OSM    C9F10552   6.530   2.104   6.347 -0.1349 -0.4562 -0.1220
  104OSM    H9F10553   6.464   2.170   6.405 -0.7953 -2.2565  1.2831
  104OSM   C10F10554   6.542   2.120   6.214  0.1968  0.4772  0.3216
  104OSM   H10F10555   6.486   2.195   6.155  0.1534  0.8900  0.8758
  104OSM   C11F10556   6.623   2.021   6.129  0.1832 -0.2889 -0.6302
  104OSM   H11F10557   6.579   1.921   6.111 -1.8488  0.6022 -0.8472
  104OSM   H11G10558   6.727   2.003   6.164  0.1619 -1.7900 -1.2693
  104OSM   C12F10559   6.652   2.083   5.990 -0.5715 -0.1419 -0.5832
  104OSM   H12F10560   6.714   2.175   6.000 -0.1083 -0.5109  0.0632
  104OSM   H12G10561   6.558   2.122   5.946  0.7801  3.2013 -0.8238
  104OSM   C13F10562   6.727   1.987   5.901  0.1537  0.5273 -0.2504
  104OSM   H13F10563   6.652   1.910   5.874 -2.2320  1.7026  2.5641
  104OSM   H13G10564   6.802   1.940   5.968  0.3007 -1.0138 -1.4152
  104OSM   C14F10565   6.784   2.042   5.770 -0.1956  0.0469 -0.0570
  104OSM   H14F10566   6.839   1.960   5.719  1.1476  1.1394 -0.4052
  104OSM   H14G10567   6.849   2.128   5.794  0.2696 -0.9220  2.4815
  104OSM   C15F10568   6.682   2.105   5.673 -0.0044  0.4993 -0.6940
  104OSM   H15F10569   6.636   2.197   5.716 -1.6379 -1.1767  1.3595
  104OSM   H15G10570   6.600   2.031   5.659  0.0833 -0.3869  2.5996
  104OSM   C16F10571   6.735   2.126   5.532 -1.0198 -0.1565  0.2547
  104OSM   H16F10572   6.809   2.056   5.486 -0.4961  0.5634 -0.0231
  104OSM   H16G10573   6.786   2.224   5.527 -1.4748  0.0832  0.2849
  104OSM   C17F10574   6.614   2.140   5.440 -0.2461  0.4435  0.2018
  104OSM   H17F10575   6.557   2.229   5.473 -0.9612  0.1624 -0.2551
  104OSM   H17G10576   6.546   2.055   5.464  2.5036 -1.7377  0.9339
  104OSM   C18F10577   6.640   2.155   5.289  0.1859 -0.2987 -0.1943
  104OSM   H18F10578   6.681   2.060   5.248  0.6641 -0.2808  0.2384
  104OSM   H18G10579   6.715   2.236   5.279  0.8494 -1.0385 -1.5659
  104OSM   H18H10580   6.547   2.176   5.233 -0.1403 -1.7741 -0.2262
  105OSM      N10581   0.291   1.340   7.523  0.3666 -0.3351  0.6813
  105OSM    C1510582   0.339   1.315   7.666  0.6464 -0.0019 -0.0144
  105OSM   H15A10583   0.421   1.244   7.664  0.4171 -0.2896 -2.7572
  105OSM   H15B10584   0.268   1.270   7.733  0.5735  4.0785  3.1015
  105OSM   H15C10585   0.369   1.406   7.717  0.9327  0.3759 -0.8339
  105OSM    C1410586   0.234   1.212   7.476 -0.0326  1.2559 -0.3913
  105OSM   H14A10587   0.142   1.189   7.526  1.4392  0.8063  2.2739
  105OSM   H14B10588   0.298   1.127   7.498 -0.8547  1.1777  1.9496
  105OSM   H14C10589   0.210   1.215   7.370  1.1328 -0.1020 -0.7236
  105OSM    C1310590   0.185   1.451   7.540 -0.0255 -0.0834  0.2422
  105OSM   H13A10591   0.120   1.466   7.455 -4.0461 -0.5179  2.9575
  105OSM   H13B10592   0.241   1.543   7.549  1.0892 -0.6066 -0.9883
  105OSM   H13C10593   0.123   1.441   7.628 -3.9988 -1.3534 -2.4044
  105OSM    C1210594   0.409   1.378   7.431 -0.7402 -0.4918 -0.3143
  105OSM   H12A10595   0.492   1.311   7.445 -0.7889 -0.5633 -0.3663
  105OSM   H12B10596   0.440   1.473   7.471  0.0161 -1.5932  1.8442
  105OSM    C1110597   0.380   1.384   7.274  0.4166  0.0733 -0.4523
  105OSM   H11A10598   0.345   1.285   7.240  2.0028 -0.4627 -0.5878
  105OSM   H11B10599   0.472   1.404   7.215 -0.2390  0.0563 -1.4850
  105OSM      P10600   0.312   1.632   7.247  0.2411  0.3225  0.1989
  105OSM    O1310601   0.186   1.710   7.239 -0.2205 -0.0562  0.3262
  105OSM    O1410602   0.402   1.668   7.352 -0.2326 -0.1249 -0.7750
  105OSM    O1110603   0.379   1.652   7.107 -0.1410 -0.4481  0.0827
  105OSM    O1210604   0.272   1.475   7.241 -0.2723  0.1532  0.2434
  105OSM    C1S10605   0.319   1.567   6.999  0.7940  0.3192 -1.0207
  105OSM    H1S10606   0.209   1.578   6.987  0.6666  1.8491  0.9979
  105OSM    H1T10607   0.349   1.460   7.002  0.7367  0.2736 -1.9235
  105OSM     NF10608   0.314   1.537   6.755 -0.2587 -1.0627 -0.4974
  105OSM    HNF10609   0.352   1.456   6.710  2.0322 -0.1413 -0.3875
  105OSM    C2S10610   0.389   1.599   6.867 -0.4695 -0.4091  0.3713
  105OSM    H2S10611   0.372   1.707   6.851 -1.3687 -0.7775 -1.3824
  105OSM    C3S10612   0.546   1.559   6.871  0.2031  0.2953 -0.1369
  105OSM    H3S10613   0.549   1.448   6.876 -0.2326  0.3065  0.4600
  105OSM     O310614   0.611   1.598   6.993  0.4290 -0.6222  0.1388
  105OSM    HO310615   0.545   1.636   7.052  1.0466 -2.3382  2.0355
  105OSM    C4S10616   0.625   1.588   6.746 -0.0394  0.7083 -0.1320
  105OSM    H4S10617   0.586   1.518   6.670 -1.2009  1.5658 -0.3576
  105OSM    C5S10618   0.720   1.681   6.730 -0.1589  0.4716  0.5258
  105OSM    H5S10619   0.760   1.733   6.818  1.8153 -0.4386  0.2195
  105OSM    C6S10620   0.791   1.720   6.599  0.4059  0.1909 -0.4602
  105OSM    H6S10621   0.886   1.667   6.580  0.4230 -1.5747  3.5421
  105OSM    H6T10622   0.811   1.827   6.621 -2.6064  0.5038  1.4172
  105OSM    C7S10623   0.690   1.725   6.482  0.2029  0.4429 -0.1978
  105OSM    H7S10624   0.654   1.626   6.447 -1.0315  1.1602 -1.0280
  105OSM    H7T10625   0.751   1.766   6.398 -0.2748 -0.2600 -0.8967
  105OSM    C8S10626   0.573   1.817   6.501  0.3503 -0.3294 -0.0785
  105OSM    H8S10627   0.610   1.889   6.577  0.5714 -1.4472  0.9104
  105OSM    H8T10628   0.495   1.749   6.542  1.0754 -1.4045 -0.4151
  105OSM    C9S10629   0.534   1.871   6.364 -0.3833 -0.8149  0.3248
  105OSM    H9S10630   0.424   1.886   6.352 -0.2271 -1.4448 -2.8089
  105OSM    H9T10631   0.561   1.796   6.287 -2.0508 -1.8069  0.6448
  105OSM   C10S10632   0.606   1.997   6.322 -0.2037  0.6720  0.3951
  105OSM   H10S10633   0.712   1.988   6.352  0.6437  2.3086 -1.7831
  105OSM   H10T10634   0.562   2.087   6.370  1.7450  1.2925  1.1080
  105OSM   C11S10635   0.609   2.028   6.164  0.3517 -0.2054  0.0452
  105OSM   H11S10636   0.667   1.949   6.111  2.4254  2.5076 -2.1126
  105OSM   H11T10637   0.663   2.124   6.147 -0.1303 -0.1807 -1.5769
  105OSM   C12S10638   0.474   2.048   6.096  0.0352  0.9922  0.1732
  105OSM   H12S10639   0.416   2.136   6.134  1.6805  1.8397  0.8061
  105OSM   H12T10640   0.407   1.964   6.123 -0.0462  1.0100  0.0302
  105OSM   C13S10641   0.497   2.048   5.946  0.1034 -0.3492 -0.2926
  105OSM   H13S10642   0.531   1.944   5.926  2.1071  0.4985 -1.6031
  105OSM   H13T10643   0.583   2.117   5.931 -0.6962  0.3029 -2.0326
  105OSM   C14S10644   0.371   2.076   5.863 -0.5087  0.0416  0.3070
  105OSM   H14S10645   0.333   2.177   5.891  2.6712  0.9062  1.8963
  105OSM   H14T10646   0.294   1.997   5.877  0.6254 -1.0827  0.3500
  105OSM   C15S10647   0.398   2.091   5.716 -0.2014  0.4912  0.1307
  105OSM   H15S10648   0.457   2.185   5.713 -1.1929  1.5085  4.5626
  105OSM   H15T10649   0.301   2.111   5.666 -0.7305 -2.4141 -0.1820
  105OSM   C16S10650   0.465   1.974   5.646  0.1766 -0.3467 -0.1787
  105OSM   H16S10651   0.399   1.884   5.648 -0.9600  0.4430 -0.7821
  105OSM   H16T10652   0.561   1.944   5.692  1.1874  1.9430 -0.6661
  105OSM   C17S10653   0.507   2.012   5.500  0.1325  0.1046  0.2158
  105OSM   H17S10654   0.576   2.097   5.521  0.1939 -0.0968  0.8670
  105OSM   H17T10655   0.414   2.048   5.450 -0.2310  0.3404  1.0358
  105OSM   C18S10656   0.563   1.896   5.417 -0.1977  0.2437  0.2532
  105OSM   H18S10657   0.494   1.810   5.402 -0.6414  0.2860  1.8729
  105OSM   H18T10658   0.644   1.845   5.474  0.2514  0.2226 -0.3960
  105OSM   H18U10659   0.598   1.921   5.314  2.4081  0.4991  1.1228
  105OSM    C1F10660   0.199   1.594   6.714 -0.1718 -0.1331 -0.3349
  105OSM     OF10661   0.134   1.677   6.775  0.0258  0.6487 -0.6479
  105OSM    C2F10662   0.147   1.545   6.588 -0.1108  0.1006  0.4168
  105OSM    H2F10663   0.041   1.512   6.592 -0.4522  1.1345  0.1160
  105OSM    H2G10664   0.208   1.464   6.541  0.2520  1.0128 -0.7367
  105OSM    C3F10665   0.152   1.658   6.482 -0.0495 -0.0381  0.1654
  105OSM    H3F10666   0.258   1.693   6.476 -0.1344 -0.0033 -2.4197
  105OSM    H3G10667   0.100   1.751   6.514 -0.7292 -0.0953 -0.7333
  105OSM    C4F10668   0.113   1.617   6.329 -0.5726 -0.0125 -0.3487
  105OSM    H4F10669   0.003   1.622   6.316 -0.4897 -2.8279 -3.3763
  105OSM    H4G10670   0.134   1.508   6.329 -1.5109 -0.2113 -1.5572
  105OSM    C5F10671   0.172   1.706   6.222  0.4695  0.0571 -0.0222
  105OSM    H5F10672   0.282   1.691   6.229  0.2405 -1.7410  0.0063
  105OSM    H5G10673   0.150   1.813   6.243  0.3723 -0.3055  1.9023
  105OSM    C6F10674   0.120   1.679   6.083  0.4917  0.1386  0.3032
  105OSM    H6F10675   0.040   1.752   6.060  1.5931  1.6142  1.0250
  105OSM    H6G10676   0.074   1.578   6.086 -0.9609  0.7933  0.6896
  105OSM    C7F10677   0.223   1.686   5.975  0.6951 -0.6504  0.4221
  105OSM    H7F10678   0.311   1.633   6.019  1.9089  0.4728 -0.5396
  105OSM    H7G10679   0.253   1.793   5.961 -1.9291  0.1288  0.2562
  105OSM    C8F10680   0.181   1.633   5.839  0.4328  1.1843  0.1619
  105OSM    H8F10681   0.270   1.651   5.774  1.2898  0.2951  1.0402
  105OSM    H8G10682   0.097   1.689   5.794 -0.0064  0.7697  0.4583
  105OSM    C9F10683   0.141   1.486   5.849  0.3858  0.4123  0.9647
  105OSM    H9F10684   0.050   1.458   5.904  1.5660 -2.2849  1.7167
  105OSM   C10F10685   0.207   1.380   5.802 -0.0873  0.5666 -0.1612
  105OSM   H10F10686   0.167   1.280   5.827  1.9765 -0.0741  0.8117
  105OSM   C11F10687   0.342   1.375   5.733 -0.0433  0.1796 -0.2769
  105OSM   H11F10688   0.395   1.285   5.769 -2.8243 -1.8226 -0.8016
  105OSM   H11G10689   0.398   1.468   5.757 -2.2403  1.4993  0.0878
  105OSM   C12F10690   0.341   1.359   5.577  0.4680 -0.5635  0.2169
  105OSM   H12F10691   0.444   1.367   5.535 -0.1136  2.4485 -0.9667
  105OSM   H12G10692   0.277   1.443   5.541  2.4092  0.6424 -0.5997
  105OSM   C13F10693   0.291   1.217   5.541  0.5316  0.4302  0.7336
  105OSM   H13F10694   0.196   1.199   5.594 -0.0598  0.7311 -0.1926
  105OSM   H13G10695   0.361   1.142   5.585  1.1239  0.2638 -0.4369
  105OSM   C14F10696   0.265   1.200   5.389  0.0638 -0.5446 -0.0455
  105OSM   H14F10697   0.339   1.124   5.356  1.9105  1.1489  0.0653
  105OSM   H14G10698   0.300   1.288   5.331  1.5819 -0.5995  0.7548
  105OSM   C15F10699   0.120   1.160   5.352  0.6746 -0.0542  0.3687
  105OSM   H15F10700   0.049   1.239   5.385  1.4270  0.5155  0.6396
  105OSM   H15G10701   0.099   1.069   5.412  1.8283  0.6633  1.9118
  105OSM   C16F10702   0.093   1.146   5.203  0.3156 -0.6141  0.0645
  105OSM   H16F10703  -0.002   1.091   5.188  0.4370 -0.8874  0.2949
  105OSM   H16G10704   0.170   1.089   5.145  0.9390 -0.3708  0.6395
  105OSM   C17F10705   0.065   1.288   5.137 -0.0568 -0.9460  0.4627
  105OSM   H17F10706   0.160   1.346   5.128  0.7424 -2.3424 -0.6852
  105OSM   H17G10707  -0.005   1.351   5.195  0.8710  1.6581 -1.0955
  105OSM   C18F10708   0.004   1.276   4.996  0.2369  0.3087  0.1054
  105OSM   H18F10709   0.061   1.195   4.947 -1.6198 -0.9136 -0.0924
  105OSM   H18G10710   0.034   1.368   4.940  0.2354 -0.2381 -0.8089
  105OSM   H18H10711  -0.102   1.250   4.977  0.0543  2.0967 -1.6334
  106OSM      N10712   5.881   5.304   7.463 -0.2041  0.0624 -0.2766
  106OSM    C1510713   5.867   5.184   7.363  0.1024 -0.3459 -0.6139
  106OSM   H15A10714   5.964   5.141   7.345  1.1780  2.3440 -1.9913
  106OSM   H15B10715   5.820   5.215   7.270 -0.8058 -1.3607 -0.5058
  106OSM   H15C10716   5.804   5.108   7.405 -0.0814  0.0669 -0.1418
  106OSM    C1410717   5.925   5.259   7.595  0.0268 -0.0976  0.1289
  106OSM   H14A10718   5.866   5.180   7.639 -0.4289 -1.0139 -2.0306
  106OSM   H14B10719   5.932   5.340   7.667  1.5499 -0.1415  0.0586
  106OSM   H14C10720   6.023   5.214   7.598  0.4089  0.6677 -0.4906
  106OSM    C1310721   5.991   5.392   7.406  0.2010  0.0642 -0.4235
  106OSM   H13A10722   6.011   5.470   7.478 -1.7918  0.0109  0.2520
  106OSM   H13B10723   5.952   5.446   7.321 -1.9657  0.8063  0.9566
  106OSM   H13C10724   6.088   5.348   7.388  1.8035  2.3852  1.7881
  106OSM    C1210725   5.753   5.377   7.479 -0.5357  0.5006 -0.7075
  106OSM   H12A10726   5.769   5.446   7.560  1.8070 -0.8580  0.0580
  106OSM   H12B10727   5.676   5.305   7.504  0.0720  0.6130  1.7453
  106OSM    C1110728   5.707   5.461   7.366  0.0810 -0.1758  0.3669
  106OSM   H11A10729   5.708   5.404   7.270 -1.0205  1.1381 -0.4574
  106OSM   H11B10730   5.769   5.553   7.363 -0.7578  0.5115  2.5035
  106OSM      P10731   5.457   5.405   7.369 -0.0972  0.0225 -0.2096
  106OSM    O1310732   5.486   5.284   7.451 -0.5625 -0.0867 -0.1737
  106OSM    O1410733   5.329   5.470   7.395  0.0548 -0.0923  0.1138
  106OSM    O1110734   5.461   5.352   7.224 -0.2714  0.6092  0.4848
  106OSM    O1210735   5.576   5.511   7.385 -0.6307 -0.1101  0.6000
  106OSM    C1S10736   5.462   5.432   7.104  0.0194 -0.0562  0.6040
  106OSM    H1S10737   5.548   5.503   7.102 -1.3834  1.7052  0.8827
  106OSM    H1T10738   5.367   5.488   7.090  0.6695  0.8071 -0.5405
  106OSM     NF10739   5.493   5.426   6.855  0.3660  0.3087  0.1424
  106OSM    HNF10740   5.425   5.418   6.783 -0.2711  0.7355  0.6898
  106OSM    C2S10741   5.478   5.345   6.977  0.1345  0.2275 -0.0633
  106OSM    H2S10742   5.565   5.277   6.992  1.0518  0.8217 -2.2286
  106OSM    C3S10743   5.362   5.241   6.975  0.5144 -0.0921 -0.8243
  106OSM    H3S10744   5.274   5.308   6.959  0.8998 -0.2021 -4.3473
  106OSM     O310745   5.337   5.167   7.098  0.0387 -0.4686  0.4499
  106OSM    HO310746   5.393   5.209   7.163  0.6873 -0.6893  0.0465
  106OSM    C4S10747   5.363   5.151   6.860  0.2626  0.3291  0.1688
  106OSM    H4S10748   5.294   5.191   6.785 -0.0511  0.8906  0.7466
  106OSM    C5S10749   5.420   5.031   6.852  0.0314 -0.0843 -0.0898
  106OSM    H5S10750   5.492   4.992   6.925  1.5189 -0.6979 -1.7981
  106OSM    C6S10751   5.403   4.937   6.730 -0.2945 -0.6524 -0.4660
  106OSM    H6S10752   5.424   4.837   6.775  1.4997  0.6175  1.6999
  106OSM    H6T10753   5.494   4.960   6.670 -0.2833  1.1207  0.1907
  106OSM    C7S10754   5.279   4.946   6.636 -0.2517  0.3435  0.1167
  106OSM    H7S10755   5.254   5.049   6.601  0.6857  0.4700 -0.1953
  106OSM    H7T10756   5.194   4.925   6.704 -0.3707  2.1267  0.5649
  106OSM    C8S10757   5.269   4.857   6.518 -0.1418  0.4612  0.4103
  106OSM    H8S10758   5.177   4.890   6.464  2.2889  2.0593 -3.2328
  106OSM    H8T10759   5.272   4.749   6.540 -0.7993  0.7759  2.1676
  106OSM    C9S10760   5.379   4.891   6.420  0.1373  0.3341  0.4046
  106OSM    H9S10761   5.476   4.861   6.466  0.9318 -1.0803 -1.9819
  106OSM    H9T10762   5.382   5.001   6.403  1.0306  0.6346  2.2650
  106OSM   C10S10763   5.366   4.827   6.284 -0.4594 -0.2347 -0.5228
  106OSM   H10S10764   5.272   4.861   6.236 -0.0649  0.1490 -1.0303
  106OSM   H10T10765   5.352   4.717   6.291 -1.5823  0.0226  3.1685
  106OSM   C11S10766   5.481   4.863   6.188  0.3726  0.8269 -0.1426
  106OSM   H11S10767   5.576   4.824   6.231  0.4449  0.3241 -0.7425
  106OSM   H11T10768   5.488   4.973   6.174  0.6308  0.7319 -0.7941
  106OSM   C12S10769   5.461   4.801   6.046  0.3202  0.2756  0.4152
  106OSM   H12S10770   5.356   4.817   6.015  0.3918 -0.8545 -0.4808
  106OSM   H12T10771   5.483   4.692   6.056  1.6938  0.5530  0.6058
  106OSM   C13S10772   5.557   4.854   5.939 -0.5884  0.3783 -0.2453
  106OSM   H13S10773   5.663   4.828   5.960 -0.4195 -0.6586 -2.2061
  106OSM   H13T10774   5.546   4.965   5.934  0.3276  0.4642 -0.4880
  106OSM   C14S10775   5.518   4.787   5.810  0.2193 -0.5686  0.0839
  106OSM   H14S10776   5.415   4.818   5.784  0.2677 -0.3628  0.1408
  106OSM   H14T10777   5.514   4.676   5.820 -0.9591 -0.6276 -0.8721
  106OSM   C15S10778   5.613   4.825   5.698  0.2830 -0.4010  0.8574
  106OSM   H15S10779   5.713   4.778   5.701  1.7037  2.1966 -1.3998
  106OSM   H15T10780   5.638   4.933   5.687 -0.8300 -0.2202 -0.1665
  106OSM   C16S10781   5.560   4.772   5.564  0.5399 -0.2050  0.3207
  106OSM   H16S10782   5.454   4.795   5.541  0.7699 -0.2432 -0.8575
  106OSM   H16T10783   5.553   4.662   5.566 -0.4051 -0.1430  1.4913
  106OSM   C17S10784   5.640   4.820   5.437 -0.5455  0.1844  0.0162
  106OSM   H17S10785   5.732   4.760   5.428 -0.2954  0.6507 -0.5546
  106OSM   H17T10786   5.680   4.923   5.451  0.8962 -0.3161 -0.3544
  106OSM   C18S10787   5.564   4.823   5.303  0.3164  0.0053  0.6433
  106OSM   H18S10788   5.531   4.717   5.292  0.1434 -0.0090  1.2283
  106OSM   H18T10789   5.630   4.851   5.219 -0.9347 -1.2576 -0.8138
  106OSM   H18U10790   5.474   4.889   5.312  0.9081  0.8977  0.1107
  106OSM    C1F10791   5.599   5.503   6.826  0.8105 -0.2600  0.0585
  106OSM     OF10792   5.680   5.543   6.909 -0.4826  0.8801  0.0420
  106OSM    C2F10793   5.617   5.550   6.680  0.0778  0.5065 -0.0240
  106OSM    H2F10794   5.602   5.465   6.610 -0.6733 -0.3793  1.1901
  106OSM    H2G10795   5.727   5.566   6.677  0.6756 -2.8027  0.8023
  106OSM    C3F10796   5.541   5.674   6.642  0.5826 -0.0437  0.0193
  106OSM    H3F10797   5.569   5.757   6.711  0.4507  0.4553 -0.5251
  106OSM    H3G10798   5.432   5.656   6.653  0.5826 -0.1512 -0.1690
  106OSM    C4F10799   5.570   5.724   6.503 -0.0017 -0.6234  0.4963
  106OSM    H4F10800   5.680   5.732   6.493  0.0890  0.3666  1.9355
  106OSM    H4G10801   5.530   5.827   6.491 -2.2845 -1.2526  2.0058
  106OSM    C5F10802   5.512   5.634   6.396  0.3006  0.3830 -0.0033
  106OSM    H5F10803   5.401   5.635   6.400  0.2799 -1.1754  0.5528
  106OSM    H5G10804   5.542   5.530   6.420  1.6173  0.6434 -0.4266
  106OSM    C6F10805   5.565   5.668   6.257  0.0161  0.2636  0.1934
  106OSM    H6F10806   5.674   5.677   6.272 -0.3280 -0.2727  3.9741
  106OSM    H6G10807   5.522   5.762   6.216 -0.7128 -0.0522  0.2147
  106OSM    C7F10808   5.550   5.562   6.148 -0.1255 -0.0704  0.2190
  106OSM    H7F10809   5.452   5.574   6.097  1.1858 -0.3281 -2.5824
  106OSM    H7G10810   5.541   5.463   6.197 -1.3011 -0.0214  0.1371
  106OSM    C8F10811   5.664   5.568   6.045  0.2169 -0.6325 -0.9450
  106OSM    H8F10812   5.755   5.538   6.102 -1.6991 -0.2417  2.6391
  106OSM    H8G10813   5.679   5.677   6.028 -3.3143  0.3826  1.1566
  106OSM    C9F10814   5.635   5.497   5.908 -0.7544  0.5137 -0.8623
  106OSM    H9F10815   5.541   5.523   5.858 -0.9967  0.9251 -0.2067
  106OSM   C10F10816   5.706   5.410   5.840 -0.7241  0.0591 -0.0481
  106OSM   H10F10817   5.676   5.371   5.742  1.6238 -2.8128  0.2331
  106OSM   C11F10818   5.841   5.364   5.885 -0.6233 -0.2676  0.1340
  106OSM   H11F10819   5.887   5.427   5.964 -2.1949  1.5420 -0.3294
  106OSM   H11G10820   5.913   5.353   5.801  0.3657  2.1778  0.6022
  106OSM   C12F10821   5.825   5.225   5.950  0.8142 -0.1242  0.0697
  106OSM   H12F10822   5.930   5.189   5.955  0.3865 -1.4474 -0.2455
  106OSM   H12G10823   5.770   5.156   5.883  0.8408  1.2366 -1.4026
  106OSM   C13F10824   5.756   5.224   6.092 -0.2351  0.0720 -0.2527
  106OSM   H13F10825   5.647   5.247   6.083 -0.4813 -0.5470  0.9596
  106OSM   H13G10826   5.802   5.305   6.151 -2.5370  1.4042 -0.1449
  106OSM   C14F10827   5.783   5.087   6.173 -0.9551 -0.9441  0.4412
  106OSM   H14F10828   5.893   5.070   6.179 -0.1962  2.5332 -1.0912
  106OSM   H14G10829   5.726   5.004   6.129 -3.1342  0.4451  0.5075
  106OSM   C15F10830   5.737   5.104   6.318  0.8508 -0.1864  0.6011
  106OSM   H15F10831   5.726   5.008   6.372  1.8378 -0.1396  0.8945
  106OSM   H15G10832   5.632   5.143   6.316  0.0714 -2.2011 -0.5156
  106OSM   C16F10833   5.840   5.183   6.401  0.1274  0.5535  0.1185
  106OSM   H16F10834   5.869   5.272   6.341 -1.0884  1.1247  0.3484
  106OSM   H16G10835   5.936   5.127   6.406 -1.1353 -1.8515 -1.0674
  106OSM   C17F10836   5.789   5.228   6.542 -0.1849  0.8790  0.1162
  106OSM   H17F10837   5.681   5.254   6.531  0.0880  1.3353 -1.8604
  106OSM   H17G10838   5.839   5.322   6.571  2.8326 -1.3811  3.0266
  106OSM   C18F10839   5.827   5.122   6.649 -0.6008 -0.1995  0.3204
  106OSM   H18F10840   5.808   5.017   6.619 -1.9389 -0.2032  1.1131
  106OSM   H18G10841   5.784   5.130   6.751  3.4371  0.0996  2.1877
  106OSM   H18H10842   5.936   5.102   6.660 -0.1953  0.8109 -1.5430
  107OSM      N10843   5.957   4.101   7.017 -0.5538 -0.2505  0.1214
  107OSM    C1510844   5.986   4.176   6.890 -0.2341 -0.0039 -0.4303
  107OSM   H15A10845   5.999   4.282   6.905 -0.5376  0.1188 -0.9876
  107OSM   H15B10846   5.918   4.149   6.810 -0.7842  1.7019 -0.5785
  107OSM   H15C10847   6.081   4.155   6.844  1.4604  1.6842  2.0549
  107OSM    C1410848   6.075   4.080   7.097 -0.0737  1.0401  0.3328
  107OSM   H14A10849   6.153   4.033   7.040 -0.7846 -0.6812  0.7126
  107OSM   H14B10850   6.051   4.014   7.179 -0.4093 -0.2716 -0.7888
  107OSM   H14C10851   6.117   4.168   7.145 -0.5267  0.6310  1.5115
  107OSM    C1310852   5.850   4.165   7.098  0.2097  0.3566  0.6370
  107OSM   H13A10853   5.875   4.262   7.138 -0.9519  0.3299  1.4643
  107OSM   H13B10854   5.825   4.101   7.181 -0.7800  1.5343  1.2556
  107OSM   H13C10855   5.759   4.174   7.040 -0.9292  0.2638  2.3489
  107OSM    C1210856   5.897   3.965   6.981  0.8242  0.3156 -0.1441
  107OSM   H12A10857   5.968   3.914   6.918  1.2605  0.4134  0.2654
  107OSM   H12B10858   5.801   3.974   6.933 -2.6437 -0.7147  5.6461
  107OSM    C1110859   5.859   3.871   7.101  0.2786  0.3007  0.4676
  107OSM   H11A10860   5.952   3.851   7.158  0.6214  0.5070 -0.0105
  107OSM   H11B10861   5.845   3.772   7.053  0.3190  1.9828 -3.3513
  107OSM      P10862   5.633   3.841   7.229  0.1502  0.1588 -0.6120
  107OSM    O1310863   5.652   3.695   7.218 -0.0950 -0.0377 -0.0955
  107OSM    O1410864   5.593   3.885   7.364 -0.4665 -0.5709  0.4831
  107OSM    O1110865   5.529   3.885   7.127  0.9220  0.6435 -0.2246
  107OSM    O1210866   5.756   3.919   7.187  0.1532  0.0143 -0.0469
  107OSM    C1S10867   5.520   3.974   7.023 -0.0417  0.0940 -0.2720
  107OSM    H1S10868   5.619   4.019   7.001  0.3266 -1.4943 -2.1604
  107OSM    H1T10869   5.441   4.048   7.045  0.3709  1.3041 -2.5934
  107OSM     NF10870   5.474   4.021   6.780  0.2986  0.6757 -0.0056
  107OSM    HNF10871   5.391   4.074   6.766 -0.2598  0.2343  1.4951
  107OSM    C2S10872   5.462   3.922   6.886 -0.3468  0.1172  0.3781
  107OSM    H2S10873   5.516   3.829   6.858 -2.1802 -0.7922 -0.2888
  107OSM    C3S10874   5.310   3.871   6.901 -0.7567  0.6689 -0.2791
  107OSM    H3S10875   5.258   3.949   6.960 -0.3013  0.2719  0.6773
  107OSM     O310876   5.287   3.751   6.979  0.3068 -0.1255 -0.3115
  107OSM    HO310877   5.370   3.725   7.020  0.3016  0.9218  0.4056
  107OSM    C4S10878   5.246   3.866   6.762  0.2666  0.9158 -0.0853
  107OSM    H4S10879   5.169   3.941   6.741  0.0922  0.8574  0.3217
  107OSM    C5S10880   5.270   3.776   6.665 -0.0398  0.3241  1.0042
  107OSM    H5S10881   5.341   3.696   6.689 -1.1779 -0.9869  0.1559
  107OSM    C6S10882   5.211   3.768   6.524 -0.6351 -0.3628  0.0385
  107OSM    H6S10883   5.123   3.836   6.517 -1.8584 -2.0935 -3.0454
  107OSM    H6T10884   5.170   3.666   6.506  1.1936 -1.3426  1.0646
  107OSM    C7S10885   5.298   3.813   6.407 -0.2830 -0.0337  0.7318
  107OSM    H7S10886   5.396   3.761   6.410  1.0162  2.2307  0.3134
  107OSM    H7T10887   5.330   3.915   6.440  0.5665 -0.5991  1.7373
  107OSM    C8S10888   5.232   3.803   6.273  0.4323  0.3734  0.6777
  107OSM    H8S10889   5.285   3.880   6.213  1.2010  1.7553  2.9945
  107OSM    H8T10890   5.122   3.819   6.271  0.3340  0.0637  2.2733
  107OSM    C9S10891   5.263   3.666   6.211 -0.0991 -0.3873  0.0432
  107OSM    H9S10892   5.219   3.590   6.279  1.4152  2.5059  4.6562
  107OSM    H9T10893   5.372   3.650   6.198  0.6657  4.1056 -0.6092
  107OSM   C10S10894   5.200   3.661   6.067 -0.1538 -0.6333  0.9432
  107OSM   H10S10895   5.092   3.689   6.076 -0.5675 -1.2106 -1.4377
  107OSM   H10T10896   5.205   3.556   6.032  2.1266 -0.1273 -0.4183
  107OSM   C11S10897   5.265   3.752   5.963  0.9855  0.2492  1.4835
  107OSM   H11S10898   5.371   3.725   5.943  0.5494 -0.9938  0.7377
  107OSM   H11T10899   5.260   3.856   6.002  3.3434  0.0866  2.3360
  107OSM   C12S10900   5.193   3.730   5.832  0.4449  0.3582 -0.0834
  107OSM   H12S10901   5.082   3.730   5.843  0.5123 -1.7356  1.0189
  107OSM   H12T10902   5.217   3.628   5.796  0.2272  0.5112 -0.6815
  107OSM   C13S10903   5.235   3.835   5.727 -0.1873  0.5893 -0.4340
  107OSM   H13S10904   5.337   3.871   5.755 -0.9518  1.4019  1.4707
  107OSM   H13T10905   5.168   3.923   5.736 -2.5158 -1.2850  1.9498
  107OSM   C14S10906   5.230   3.789   5.579 -0.1439  0.5116 -0.9672
  107OSM   H14S10907   5.276   3.689   5.562 -0.8911 -0.2195  0.9668
  107OSM   H14T10908   5.286   3.868   5.526 -1.6826  2.1604 -0.2676
  107OSM   C15S10909   5.083   3.788   5.536  0.7701  0.1195  0.2505
  107OSM   H15S10910   5.035   3.881   5.574 -0.2327  0.5431 -1.8990
  107OSM   H15T10911   5.039   3.698   5.583  1.9987  1.0139  3.3755
  107OSM   C16S10912   5.078   3.805   5.381  0.2293 -0.0426  0.1731
  107OSM   H16S10913   5.106   3.711   5.329 -0.4692  0.0030 -0.2996
  107OSM   H16T10914   5.139   3.890   5.342 -2.8810  1.4523 -1.7734
  107OSM   C17S10915   4.937   3.832   5.333  0.3106 -0.7069  1.0393
  107OSM   H17S10916   4.902   3.919   5.392  0.5605 -0.9840  1.6011
  107OSM   H17T10917   4.874   3.749   5.369 -0.7011  0.1354  1.2443
  107OSM   C18S10918   4.923   3.837   5.182  0.1129  0.3241  0.6205
  107OSM   H18S10919   4.994   3.910   5.137  2.0669 -1.8358  0.0271
  107OSM   H18T10920   4.822   3.882   5.174 -0.9719 -1.9137  0.9860
  107OSM   H18U10921   4.924   3.736   5.136  0.6425  0.4401  0.3690
  107OSM    C1F10922   5.589   4.050   6.732 -0.2418 -0.4853  0.4659
  107OSM     OF10923   5.695   3.999   6.767  0.2709 -0.7607  0.0222
  107OSM    C2F10924   5.585   4.164   6.630  0.0002 -1.1580  0.2874
  107OSM    H2F10925   5.593   4.257   6.690 -0.6927 -0.6974 -0.3171
  107OSM    H2G10926   5.488   4.164   6.577  1.1268  0.4372 -1.9835
  107OSM    C3F10927   5.699   4.148   6.520 -0.7582  0.3100  0.5859
  107OSM    H3F10928   5.796   4.150   6.574 -0.4366  0.0881  0.0259
  107OSM    H3G10929   5.702   4.228   6.444 -0.9223 -0.0465  0.1967
  107OSM    C4F10930   5.678   4.017   6.445  0.1094  0.0692  0.5249
  107OSM    H4F10931   5.570   4.025   6.421 -0.0710  1.3930  1.6141
  107OSM    H4G10932   5.696   3.934   6.516 -0.0733 -0.1498  0.3149
  107OSM    C5F10933   5.768   4.011   6.320  0.3242  0.7912 -0.2426
  107OSM    H5F10934   5.875   4.017   6.351 -0.5496  1.1465  3.1594
  107OSM    H5G10935   5.744   4.095   6.252  0.5559  0.0182 -1.2901
  107OSM    C6F10936   5.744   3.885   6.233  0.0237  0.4631 -0.1857
  107OSM    H6F10937   5.744   3.800   6.305  2.1581  1.6553  1.3180
  107OSM    H6G10938   5.822   3.860   6.159 -1.0866 -2.2884 -0.5668
  107OSM    C7F10939   5.608   3.881   6.159  0.5044 -0.0061  0.1724
  107OSM    H7F10940   5.535   3.939   6.220  0.0552  1.6976 -1.8449
  107OSM    H7G10941   5.564   3.780   6.148 -0.7093  0.6915 -1.9979
  107OSM    C8F10942   5.615   3.926   6.013  0.0057  0.5726  0.2029
  107OSM    H8F10943   5.665   4.025   6.008  3.7654 -1.1906 -1.6334
  107OSM    H8G10944   5.513   3.928   5.969 -0.0402  3.0077  0.3149
  107OSM    C9F10945   5.707   3.833   5.931 -0.3203  0.4267 -0.2386
  107OSM    H9F10946   5.769   3.758   5.983  1.6485  0.9535 -1.7047
  107OSM   C10F10947   5.725   3.846   5.799  0.0517 -0.1138  0.2409
  107OSM   H10F10948   5.802   3.788   5.746 -0.7034 -1.0214  0.0869
  107OSM   C11F10949   5.670   3.961   5.723 -0.0291 -0.0854  0.9251
  107OSM   H11F10950   5.755   4.015   5.678 -1.0171  0.1256 -0.7596
  107OSM   H11G10951   5.621   4.040   5.784  0.0629  0.5185  0.2225
  107OSM   C12F10952   5.577   3.929   5.609  0.1665 -0.1356 -0.2587
  107OSM   H12F10953   5.516   4.015   5.577  1.9116  1.4416  0.4667
  107OSM   H12G10954   5.505   3.848   5.634 -1.8911  1.3408 -1.2295
  107OSM   C13F10955   5.666   3.883   5.492  0.3584 -0.2235  0.3017
  107OSM   H13F10956   5.712   3.787   5.524 -0.1012  0.3159  2.7936
  107OSM   H13G10957   5.753   3.947   5.466  0.0643  0.5297  1.1033
  107OSM   C14F10958   5.581   3.852   5.367 -0.1615  0.9978  0.3600
  107OSM   H14F10959   5.553   3.945   5.312  0.0575  1.2663  0.7015
  107OSM   H14G10960   5.496   3.794   5.407  0.4452 -0.8386 -0.9076
  107OSM   C15F10961   5.668   3.771   5.268  0.0782  0.2094  0.5630
  107OSM   H15F10962   5.689   3.670   5.307 -1.7168 -0.0048  1.0470
  107OSM   H15G10963   5.761   3.831   5.255 -0.4908  1.0761  0.3796
  107OSM   C16F10964   5.593   3.751   5.130  0.0188  0.5554 -0.1907
  107OSM   H16F10965   5.601   3.848   5.076  4.5802  0.3810 -0.2636
  107OSM   H16G10966   5.489   3.727   5.159 -0.3227  1.3325 -0.7468
  107OSM   C17F10967   5.661   3.643   5.039 -0.2312 -0.3323 -0.2158
  107OSM   H17F10968   5.605   3.626   4.944 -1.1147 -0.5387  0.3295
  107OSM   H17G10969   5.665   3.546   5.093 -0.6071  0.6568  1.6686
  107OSM   C18F10970   5.804   3.686   5.007  0.1689 -1.0151  0.2337
  107OSM   H18F10971   5.867   3.700   5.098 -0.1653  0.5115  0.2674
  107OSM   H18G10972   5.811   3.785   4.956  0.8047  0.3544  2.7760
  107OSM   H18H10973   5.846   3.607   4.942  1.6897 -1.8277  2.1151
  108OSM      N10974   1.527   5.945   7.684 -0.2751  0.2201 -0.2911
  108OSM    C1510975   1.649   6.015   7.725  0.8642  0.8672  0.2300
  108OSM   H15A10976   1.679   6.004   7.828  0.0706 -3.4578  0.1710
  108OSM   H15B10977   1.647   6.119   7.696  0.5051  1.1026  1.0657
  108OSM   H15C10978   1.735   5.964   7.684 -0.0492 -1.6556  1.2701
  108OSM    C1410979   1.549   5.805   7.729  0.4289 -0.3698 -0.1133
  108OSM   H14A10980   1.468   5.743   7.694 -1.1810  1.0195  0.9849
  108OSM   H14B10981   1.547   5.802   7.837  1.2597  2.6993  0.0793
  108OSM   H14C10982   1.647   5.773   7.697  0.5057 -0.9731  0.6820
  108OSM    C1310983   1.401   5.989   7.751 -0.2019 -0.2632  0.0470
  108OSM   H13A10984   1.306   5.952   7.716  0.5379 -3.2984  0.9842
  108OSM   H13B10985   1.385   6.096   7.742 -2.6135 -0.4609  1.1169
  108OSM   H13C10986   1.384   5.965   7.855 -4.7181  0.3171 -0.3767
  108OSM    C1210987   1.515   5.939   7.530  0.1069 -0.8038  0.5706
  108OSM   H12A10988   1.419   5.894   7.509  1.1993 -2.2573 -1.6608
  108OSM   H12B10989   1.590   5.873   7.490 -1.2616 -0.2906 -3.3185
  108OSM    C1110990   1.508   6.070   7.442 -0.1446  0.4065 -0.2435
  108OSM   H11A10991   1.528   6.030   7.340  0.4687 -1.3042  0.4971
  108OSM   H11B10992   1.591   6.135   7.477  1.1392  0.2117 -2.7395
  108OSM      P10993   1.250   6.076   7.403  0.2638 -0.3631 -0.1208
  108OSM    O1310994   1.205   5.956   7.478  0.2994 -0.2294 -0.6880
  108OSM    O1410995   1.153   6.190   7.396 -0.0224  0.1075 -0.0428
  108OSM    O1110996   1.302   6.037   7.259 -0.1880  0.8576 -0.9456
  108OSM    O1210997   1.384   6.133   7.470  0.0290 -0.2473  0.2657
  108OSM    C1S10998   1.210   5.970   7.176 -0.4037  0.3146 -0.1149
  108OSM    H1S10999   1.111   6.019   7.185 -1.2116 -1.3631  0.7019
  108OSM    H1T11000   1.211   5.864   7.209  3.2132  0.7263  1.5378
  108OSM     NF11001   1.127   5.956   6.954 -0.8078  0.4960  0.7066
  108OSM    HNF11002   1.112   5.858   6.947  1.9792  0.0715 -0.2012
  108OSM    C2S11003   1.246   5.979   7.030  0.0462  0.8647 -0.1441
  108OSM    H2S11004   1.287   6.082   7.017  1.2382  0.7687  2.3311
  108OSM    C3S11005   1.367   5.888   6.998  0.2723  0.4654  0.5466
  108OSM    H3S11006   1.326   5.785   7.002 -0.3226  0.7327  3.1444
  108OSM     O311007   1.478   5.893   7.085 -0.2168 -0.1554  0.2289
  108OSM    HO311008   1.444   5.964   7.140  0.4057  0.6419 -0.3760
  108OSM    C4S11009   1.409   5.924   6.860  0.1159  0.0647  0.1069
  108OSM    H4S11010   1.338   5.888   6.784  1.3022  3.7410 -3.0831
  108OSM    C5S11011   1.497   6.011   6.820 -0.1797  0.4850  0.5905
  108OSM    H5S11012   1.554   6.052   6.904  0.6874 -0.8251  0.6585
  108OSM    C6S11013   1.537   6.039   6.676 -0.2862  0.1564  0.4660
  108OSM    H6S11014   1.621   5.974   6.646  0.0352  0.2813  1.0852
  108OSM    H6T11015   1.580   6.142   6.674  0.6904 -0.0841  3.6248
  108OSM    C7S11016   1.417   6.026   6.572 -0.8436  0.7165 -0.3116
  108OSM    H7S11017   1.330   6.091   6.597 -0.6973  0.6399  0.4092
  108OSM    H7T11018   1.398   5.917   6.579  2.7569  0.0444  1.2428
  108OSM    C8S11019   1.462   6.066   6.429 -0.1053 -0.3758  0.5889
  108OSM    H8S11020   1.549   6.134   6.440 -1.2383  1.2208  0.1125
  108OSM    H8T11021   1.382   6.123   6.377  1.4425  0.6064 -0.8396
  108OSM    C9S11022   1.500   5.946   6.355 -0.2495  0.8703 -0.2581
  108OSM    H9S11023   1.399   5.907   6.332  0.1700 -0.0546 -0.5844
  108OSM    H9T11024   1.557   5.871   6.414 -0.1858 -0.7885 -2.3441
  108OSM   C10S11025   1.555   5.969   6.214  0.1479 -0.1522 -0.0089
  108OSM   H10S11026   1.642   6.037   6.228 -0.2571  0.1046  1.4934
  108OSM   H10T11027   1.477   6.024   6.157  0.1678  0.4690  0.5551
  108OSM   C11S11028   1.592   5.850   6.120 -0.1196 -0.1843 -0.5439
  108OSM   H11S11029   1.502   5.784   6.116 -0.1166 -0.1800 -0.6670
  108OSM   H11T11030   1.670   5.784   6.165  1.3698  1.4502 -0.6359
  108OSM   C12S11031   1.639   5.890   5.977  0.0767  0.0700 -0.1181
  108OSM   H12S11032   1.719   5.816   5.955  0.8572  0.5636  0.9793
  108OSM   H12T11033   1.678   5.992   5.957 -0.6503  0.1895 -0.9886
  108OSM   C13S11034   1.527   5.873   5.871 -0.6156 -0.6566  0.5628
  108OSM   H13S11035   1.440   5.936   5.899  0.9083  2.7867 -1.7214
  108OSM   H13T11036   1.494   5.767   5.869 -0.1876 -0.8387  1.9000
  108OSM   C14S11037   1.565   5.922   5.727  0.4078  0.5323 -0.0505
  108OSM   H14S11038   1.651   5.860   5.697  3.0104  3.5374  0.6795
  108OSM   H14T11039   1.609   6.024   5.726 -2.3472  1.8473 -1.6290
  108OSM   C15S11040   1.451   5.937   5.621  0.1785  0.5566  0.2542
  108OSM   H15S11041   1.372   6.001   5.666  0.6239  1.1242  0.2447
  108OSM   H15T11042   1.413   5.836   5.597  1.2233  0.4508 -1.1084
  108OSM   C16S11043   1.502   6.003   5.496 -0.2065 -0.0762 -0.5294
  108OSM   H16S11044   1.563   5.922   5.451  0.3579 -0.7459  1.3525
  108OSM   H16T11045   1.557   6.091   5.537  1.5622 -1.6387  0.6251
  108OSM   C17S11046   1.380   6.045   5.409 -0.7199  0.6049 -0.0931
  108OSM   H17S11047   1.327   6.135   5.446 -1.3348  0.9039 -1.6136
  108OSM   H17T11048   1.315   5.955   5.406  2.4478 -1.8446 -0.9988
  108OSM   C18S11049   1.430   6.078   5.268  0.7328 -0.1192 -0.0025
  108OSM   H18S11050   1.488   5.995   5.222  2.3843  1.0793 -0.2018
  108OSM   H18T11051   1.494   6.168   5.279  0.6314 -0.0700  0.1976
  108OSM   H18U11052   1.346   6.098   5.199  0.8176 -0.5667 -0.2387
  108OSM    C1F11053   1.029   6.047   6.935 -0.2685 -0.1653 -0.6256
  108OSM     OF11054   1.045   6.168   6.977  0.0953  0.0098 -0.1498
  108OSM    C2F11055   0.902   5.998   6.884 -0.0599  0.3381  0.5539
  108OSM    H2F11056   0.824   6.078   6.883 -1.2977 -0.8263 -1.2721
  108OSM    H2G11057   0.867   5.920   6.954  2.0492 -1.4778 -0.3048
  108OSM    C3F11058   0.922   5.921   6.750 -0.0561  0.3756 -0.1609
  108OSM    H3F11059   0.835   5.856   6.726  1.5356 -0.7639 -3.3385
  108OSM    H3G11060   1.010   5.855   6.768  1.1980  2.2485  0.9392
  108OSM    C4F11061   0.960   6.011   6.626  0.5735 -0.4127  0.2790
  108OSM    H4F11062   1.055   6.063   6.652  0.7468 -0.8641  0.5489
  108OSM    H4G11063   0.874   6.081   6.613  0.8684 -0.2732 -1.0252
  108OSM    C5F11064   0.986   5.929   6.496  0.4621 -1.0201  0.2210
  108OSM    H5F11065   0.896   5.868   6.474 -2.0497  1.9730  1.4328
  108OSM    H5G11066   1.066   5.857   6.523  1.2936  0.2315  1.2594
  108OSM    C6F11067   1.026   6.023   6.385  0.1249 -0.0407  0.0993
  108OSM    H6F11068   1.126   6.064   6.408  0.4384 -0.4870 -0.4440
  108OSM    H6G11069   0.953   6.106   6.373  4.2482  3.5926 -3.0087
  108OSM    C7F11070   1.043   5.950   6.247 -0.2827  0.2884 -0.5859
  108OSM    H7F11071   0.941   5.916   6.219  0.6670 -2.3558 -1.1067
  108OSM    H7G11072   1.105   5.858   6.254  0.0319  0.6193  1.8768
  108OSM    C8F11073   1.094   6.043   6.138  0.0218 -0.1722  0.3609
  108OSM    H8F11074   1.198   6.081   6.141  0.0005  0.1583 -1.6222
  108OSM    H8G11075   1.023   6.127   6.127  0.3382 -0.0183 -0.5806
  108OSM    C9F11076   1.091   5.946   6.016  0.4909 -0.3327 -0.2977
  108OSM    H9F11077   1.146   5.851   6.028 -1.7469 -1.7348 -0.6334
  108OSM   C10F11078   1.037   5.960   5.890  0.9456 -0.4411 -0.0766
  108OSM   H10F11079   1.041   5.880   5.815  0.4609  1.5782 -2.3968
  108OSM   C11F11080   0.955   6.072   5.838  0.5983 -0.1032  0.6791
  108OSM   H11F11081   0.955   6.157   5.909 -0.2717  0.7846 -0.3414
  108OSM   H11G11082   0.854   6.030   5.818  0.3500  0.7074  0.2111
  108OSM   C12F11083   1.018   6.126   5.705 -0.2014 -0.4104 -0.5854
  108OSM   H12F11084   0.993   6.045   5.633  0.9783 -1.4890  0.1683
  108OSM   H12G11085   1.129   6.115   5.712 -0.2124  0.4041  2.9887
  108OSM   C13F11086   0.973   6.271   5.664  0.1573  0.0917  0.0738
  108OSM   H13F11087   0.992   6.331   5.756 -1.0445 -0.6078  0.7962
  108OSM   H13G11088   0.863   6.268   5.647  0.0258 -0.2757  0.9387
  108OSM   C14F11089   1.065   6.317   5.546  0.6933  0.5812 -0.4722
  108OSM   H14F11090   1.173   6.318   5.575  0.5132 -1.0368  0.3586
  108OSM   H14G11091   1.034   6.424   5.536  1.3485  0.7666 -0.6181
  108OSM   C15F11092   1.048   6.234   5.414 -0.2372  0.0756 -0.1010
  108OSM   H15F11093   0.939   6.233   5.395 -1.0286 -0.9571  3.7057
  108OSM   H15G11094   1.086   6.130   5.421 -0.1650  0.1690  1.2048
  108OSM   C16F11095   1.118   6.299   5.290  0.0662  0.0940  0.7207
  108OSM   H16F11096   1.227   6.287   5.308 -0.1327 -1.5615  0.9664
  108OSM   H16G11097   1.084   6.405   5.285  1.1720  0.4196 -0.4495
  108OSM   C17F11098   1.075   6.220   5.170 -0.6164 -0.6953  0.6900
  108OSM   H17F11099   1.069   6.110   5.179  2.5077 -1.3016 -2.3206
  108OSM   H17G11100   1.147   6.230   5.086  1.7037 -3.5801  2.1401
  108OSM   C18F11101   0.948   6.285   5.111  0.1295  0.4306  0.3836
  108OSM   H18F11102   0.970   6.386   5.069  1.1437 -0.6869 -1.9869
  108OSM   H18G11103   0.869   6.290   5.188  0.2127 -1.1806  0.6123
  108OSM   H18H11104   0.905   6.232   5.024  0.9202  0.0379  0.2251
  109OSM      N11105   5.070   0.330   7.778 -0.0184  0.0933  0.2019
  109OSM    C1511106   5.191   0.390   7.831 -0.2758 -0.7880 -0.0690
  109OSM   H15A11107   5.205   0.367   7.936  2.3094 -0.3122 -0.2202
  109OSM   H15B11108   5.193   0.496   7.811  0.9677 -1.1908 -2.4217
  109OSM   H15C11109   5.275   0.328   7.804 -0.8675 -2.1332  1.0666
  109OSM    C1411110   5.078   0.186   7.781 -0.0837  0.3738  0.4774
  109OSM   H14A11111   5.087   0.138   7.877  2.2348 -0.6674 -0.1834
  109OSM   H14B11112   5.170   0.158   7.731 -0.2700  3.1550 -1.6876
  109OSM   H14C11113   4.999   0.143   7.720  1.9985 -0.9747 -1.4516
  109OSM    C1311114   4.945   0.375   7.853  0.8013  0.0182 -0.3520
  109OSM   H13A11115   4.966   0.354   7.957  0.8043 -1.3828 -0.6211
  109OSM   H13B11116   4.854   0.328   7.818  0.8352  1.2255 -2.1867
  109OSM   H13C11117   4.927   0.481   7.848  1.7067  0.1524 -1.0366
  109OSM    C1211118   5.049   0.371   7.634  0.2357  0.1901 -0.1426
  109OSM   H12A11119   5.033   0.477   7.630 -1.2060 -0.0408 -1.0253
  109OSM   H12B11120   4.950   0.340   7.606 -0.0306  0.4887  0.4443
  109OSM    C1111121   5.143   0.307   7.526 -0.0958  1.2709 -1.0663
  109OSM   H11A11122   5.110   0.366   7.438  0.7476  2.1741 -0.8029
  109OSM   H11B11123   5.115   0.200   7.520 -1.1171  1.1594  2.9083
  109OSM      P11124   5.392   0.231   7.524 -0.0959  0.2984  0.4758
  109OSM    O1311125   5.528   0.302   7.521  0.7046  0.5132  0.0996
  109OSM    O1411126   5.378   0.117   7.622  0.3876 -0.0376 -0.1480
  109OSM    O1111127   5.369   0.170   7.379 -0.3077  0.4910 -0.3377
  109OSM    O1211128   5.283   0.339   7.557 -0.0003 -0.4596  0.4380
  109OSM    C1S11129   5.330   0.246   7.265  0.1052 -0.5124 -1.0220
  109OSM    H1S11130   5.410   0.313   7.228  0.4447 -1.2511 -1.6457
  109OSM    H1T11131   5.249   0.320   7.282  1.9977  1.7425 -1.3828
  109OSM     NF11132   5.297   0.219   7.023  0.2493  0.1309 -0.1228
  109OSM    HNF11133   5.204   0.239   6.992 -0.7788  0.3086  2.8087
  109OSM    C2S11134   5.293   0.147   7.146  0.2925 -0.0208  0.1043
  109OSM    H2S11135   5.374   0.071   7.143 -0.9669 -1.3905 -0.6381
  109OSM    C3S11136   5.161   0.075   7.182 -0.7949 -0.6153 -0.0675
  109OSM    H3S11137   5.078   0.148   7.181 -0.6253 -0.3832  1.0356
  109OSM     O311138   5.133   0.023   7.312  0.6103  0.1735 -0.3365
  109OSM    HO311139   5.203   0.068   7.360 -0.4924  1.4458  0.1478
  109OSM    C4S11140   5.126  -0.031   7.073 -0.1421  0.1532 -0.3209
  109OSM    H4S11141   5.164  -0.132   7.093 -1.1780 -0.0498  0.7066
  109OSM    C5S11142   5.042  -0.026   6.971  0.7481 -0.3994 -0.2894
  109OSM    H5S11143   4.978   0.064   6.964  0.0334 -1.0664 -3.9842
  109OSM    C6S11144   4.994  -0.128   6.877 -0.8179  0.3086 -0.8999
  109OSM    H6S11145   4.908  -0.090   6.818 -0.5945 -0.7321 -1.9151
  109OSM    H6T11146   4.982  -0.225   6.930  1.1470  1.4096  1.7699
  109OSM    C7S11147   5.094  -0.166   6.767 -0.0065 -0.3342  0.2499
  109OSM    H7S11148   5.184  -0.206   6.818  1.4299  0.7140 -1.3254
  109OSM    H7T11149   5.118  -0.073   6.710  0.6396 -0.2979  0.5778
  109OSM    C8S11150   5.041  -0.268   6.662  0.0333 -0.2402 -0.0059
  109OSM    H8S11151   4.983  -0.208   6.589 -0.3105  1.9537  1.9471
  109OSM    H8T11152   4.994  -0.359   6.706  1.0036  0.7052  3.2842
  109OSM    C9S11153   5.163  -0.318   6.582 -0.7053  0.5634 -0.3271
  109OSM    H9S11154   5.230  -0.378   6.646 -1.9825 -0.2529  0.2942
  109OSM    H9T11155   5.236  -0.243   6.547 -0.3922  1.3957  2.0023
  109OSM   C10S11156   5.128  -0.411   6.460  0.1829 -0.0438 -0.5246
  109OSM   H10S11157   5.063  -0.348   6.396 -0.5091 -0.3059 -0.0885
  109OSM   H10T11158   5.064  -0.494   6.498 -0.2948  0.2326 -0.7171
  109OSM   C11S11159   5.245  -0.473   6.376  0.1800  0.4063  0.5428
  109OSM   H11S11160   5.284  -0.560   6.433  0.5466 -1.3563 -2.2182
  109OSM   H11T11161   5.324  -0.395   6.367  0.7239 -0.3296 -1.9651
  109OSM   C12S11162   5.198  -0.524   6.233  0.8282 -0.4237 -0.1434
  109OSM   H12S11163   5.105  -0.584   6.237  0.9892 -0.6370  0.4996
  109OSM   H12T11164   5.280  -0.589   6.194  1.5360  0.1378  0.3779
  109OSM   C13S11165   5.169  -0.415   6.132 -0.0251 -0.1792  0.4485
  109OSM   H13S11166   5.241  -0.330   6.142 -0.1551 -0.1549  1.2017
  109OSM   H13T11167   5.069  -0.379   6.162  0.6206  1.5611  0.6565
  109OSM   C14S11168   5.164  -0.462   5.983  0.4591 -0.0042 -0.9008
  109OSM   H14S11169   5.101  -0.389   5.928 -3.1025 -1.6928  0.6426
  109OSM   H14T11170   5.097  -0.550   5.981  3.2056 -2.2512 -1.1529
  109OSM   C15S11171   5.294  -0.513   5.912 -0.8744  0.3343  0.0757
  109OSM   H15S11172   5.341  -0.601   5.961 -1.5585  0.1213  0.3540
  109OSM   H15T11173   5.366  -0.429   5.904 -1.0379  0.6687  1.7355
  109OSM   C16S11174   5.270  -0.553   5.771 -0.4710 -0.7232  0.2844
  109OSM   H16S11175   5.217  -0.471   5.716  3.4719  1.2292 -1.0214
  109OSM   H16T11176   5.208  -0.644   5.764 -2.4304  0.5926 -0.2440
  109OSM   C17S11177   5.413  -0.570   5.691  0.1643  0.8306 -0.1485
  109OSM   H17S11178   5.485  -0.639   5.741  0.1615  0.4874 -0.6142
  109OSM   H17T11179   5.471  -0.476   5.687  1.1691  0.1895 -1.1712
  109OSM   C18S11180   5.404  -0.619   5.546 -0.5269 -0.0291  0.5358
  109OSM   H18S11181   5.508  -0.637   5.511  0.0786  0.3474  2.0759
  109OSM   H18T11182   5.366  -0.530   5.491 -0.0785  0.3632  0.8526
  109OSM   H18U11183   5.351  -0.716   5.539  0.6410 -0.7152  0.9470
  109OSM    C1F11184   5.405   0.268   6.959  0.1818 -0.0877 -0.3378
  109OSM     OF11185   5.511   0.211   6.977 -0.0277 -0.5833  0.4932
  109OSM    C2F11186   5.396   0.390   6.877  0.0907 -0.0592  0.2991
  109OSM    H2F11187   5.454   0.475   6.920 -0.7707  1.2696 -1.0561
  109OSM    H2G11188   5.288   0.418   6.880 -0.7549 -3.0188  0.5611
  109OSM    C3F11189   5.456   0.373   6.735 -0.3302 -0.8877  0.8466
  109OSM    H3F11190   5.566   0.368   6.743 -0.4307 -0.3684  3.3672
  109OSM    H3G11191   5.422   0.464   6.679  1.5806 -0.7974 -0.2401
  109OSM    C4F11192   5.391   0.265   6.647  0.4218  0.0775  0.3065
  109OSM    H4F11193   5.281   0.277   6.646  0.2603 -1.2611 -1.3263
  109OSM    H4G11194   5.406   0.167   6.696 -1.5082 -0.1134  0.6002
  109OSM    C5F11195   5.454   0.249   6.506  0.2636 -0.3524 -0.3321
  109OSM    H5F11196   5.562   0.272   6.517  0.8903 -3.1664 -0.0548
  109OSM    H5G11197   5.402   0.320   6.437  0.0195 -1.5317 -1.4092
  109OSM    C6F11198   5.436   0.106   6.458  0.0314  0.4862 -0.3532
  109OSM    H6F11199   5.328   0.077   6.458  0.4224 -1.1257 -1.8315
  109OSM    H6G11200   5.483   0.035   6.529 -0.2367  2.0456  1.4565
  109OSM    C7F11201   5.476   0.081   6.310 -0.0194  0.0787  0.3608
  109OSM    H7F11202   5.581   0.115   6.303 -0.0411 -0.1620 -1.8860
  109OSM    H7G11203   5.414   0.153   6.253  3.7871  3.9901  0.7329
  109OSM    C8F11204   5.464  -0.069   6.274  0.1877 -0.1636  0.0896
  109OSM    H8F11205   5.360  -0.096   6.248  0.4602 -0.7199 -0.4389
  109OSM    H8G11206   5.483  -0.129   6.366 -2.4369 -0.4707  0.4948
  109OSM    C9F11207   5.566  -0.126   6.175  0.7151  0.8172 -0.6348
  109OSM    H9F11208   5.625  -0.202   6.227  0.2601  2.1073  1.9325
  109OSM   C10F11209   5.591  -0.089   6.046  0.6944 -0.1216 -0.7187
  109OSM   H10F11210   5.669  -0.145   5.992  1.0325 -0.1041 -0.2585
  109OSM   C11F11211   5.523   0.022   5.969  0.7198  0.3839  0.2031
  109OSM   H11F11212   5.604   0.089   5.934  0.5739 -0.5542 -2.0787
  109OSM   H11G11213   5.454   0.089   6.025 -1.3046 -2.2996  1.1285
  109OSM   C12F11214   5.441  -0.022   5.852 -0.1583 -0.3436  0.5947
  109OSM   H12F11215   5.413   0.068   5.793 -2.5107 -1.3914 -0.0226
  109OSM   H12G11216   5.356  -0.078   5.896  1.0261 -0.9174  2.2142
  109OSM   C13F11217   5.523  -0.119   5.754 -0.7763 -0.1002  0.7489
  109OSM   H13F11218   5.560  -0.210   5.807  2.3812  0.6414  0.0502
  109OSM   H13G11219   5.618  -0.065   5.734 -0.5582 -0.2060  1.4837
  109OSM   C14F11220   5.459  -0.157   5.615 -0.1728 -0.3356 -0.4098
  109OSM   H14F11221   5.356  -0.195   5.632  0.2395 -0.8385  1.0972
  109OSM   H14G11222   5.501  -0.249   5.568 -0.1848  1.0856 -3.4483
  109OSM   C15F11223   5.458  -0.048   5.505 -0.2624  0.7344 -0.9949
  109OSM   H15F11224   5.560  -0.025   5.466  0.4821  2.0851  1.5734
  109OSM   H15G11225   5.422   0.048   5.547 -2.7154 -0.9929  1.1724
  109OSM   C16F11226   5.368  -0.090   5.391  0.2600 -0.2386  0.0894
  109OSM   H16F11227   5.363  -0.011   5.313 -0.9605  0.3706  0.7459
  109OSM   H16G11228   5.262  -0.097   5.426  0.1811  0.4086 -0.0218
  109OSM   C17F11229   5.422  -0.220   5.322  0.0618 -0.8600  0.0738
  109OSM   H17F11230   5.421  -0.304   5.394 -1.5083 -1.7822 -0.9445
  109OSM   H17G11231   5.528  -0.197   5.297  0.3280 -0.3087  1.6441
  109OSM   C18F11232   5.355  -0.261   5.199 -0.0651 -0.3865  0.6366
  109OSM   H18F11233   5.421  -0.330   5.142  0.3881 -0.4089  1.1876
  109OSM   H18G11234   5.340  -0.177   5.128 -1.5177 -0.4125  0.8777
  109OSM   H18H11235   5.260  -0.314   5.227  1.0022 -1.5927  2.1741
  110OSM      N11236   1.357   2.369   7.306  0.4540  0.1466 -0.0732
  110OSM    C1511237   1.423   2.314   7.180 -0.0623 -0.4010  0.0671
  110OSM   H15A11238   1.450   2.211   7.198  1.5779 -0.0212 -0.0423
  110OSM   H15B11239   1.516   2.368   7.171 -0.8467  1.3659  1.8408
  110OSM   H15C11240   1.368   2.323   7.088  0.4809 -0.2284 -0.2433
  110OSM    C1411241   1.212   2.323   7.301 -0.5012  0.1309  0.0601
  110OSM   H14A11242   1.168   2.376   7.217 -1.7051 -1.8101 -0.6149
  110OSM   H14B11243   1.156   2.349   7.390 -2.9398  3.1017 -2.0795
  110OSM   H14C11244   1.204   2.217   7.284 -0.3267  0.2408 -0.7761
  110OSM    C1311245   1.430   2.314   7.427  0.1908  0.5214  0.4178
  110OSM   H13A11246   1.395   2.360   7.518  0.1068 -1.5431  1.4848
  110OSM   H13B11247   1.531   2.349   7.409 -0.8154  2.6616 -1.7628
  110OSM   H13C11248   1.422   2.207   7.436  0.2273  0.6961  3.0312
  110OSM    C1211249   1.370   2.522   7.309  0.1746  0.3283  0.5341
  110OSM   H12A11250   1.473   2.545   7.331  0.7317 -0.2715 -1.2228
  110OSM   H12B11251   1.318   2.577   7.386  3.7962  2.0084  2.0588
  110OSM    C1111252   1.327   2.595   7.174  0.7202  0.8054 -0.1216
  110OSM   H11A11253   1.387   2.555   7.089 -1.0281 -0.2986 -0.8935
  110OSM   H11B11254   1.346   2.705   7.183 -1.7359  1.2549  0.1744
  110OSM      P11255   1.064   2.651   7.188  0.0868 -0.0159 -0.1917
  110OSM    O1311256   0.995   2.584   7.303  0.1374  0.0387  0.1059
  110OSM    O1411257   1.099   2.796   7.208  0.2774 -0.0433  0.1061
  110OSM    O1111258   0.976   2.636   7.060  0.1801  0.3268  0.4883
  110OSM    O1211259   1.192   2.568   7.147 -0.2724  0.1029  0.1322
  110OSM    C1S11260   1.024   2.683   6.935  0.1488  0.0528  0.5701
  110OSM    H1S11261   1.133   2.669   6.918 -0.0688 -1.5462  0.3767
  110OSM    H1T11262   1.003   2.792   6.925 -0.1868  0.0229  0.9598
  110OSM     NF11263   1.015   2.649   6.683  0.3019 -0.1164 -0.3768
  110OSM    HNF11264   0.971   2.728   6.642 -2.6138 -1.1210  0.5061
  110OSM    C2S11265   0.950   2.617   6.810 -0.6211 -0.1533 -1.0852
  110OSM    H2S11266   0.964   2.508   6.825 -0.2507 -0.0212 -0.4297
  110OSM    C3S11267   0.796   2.648   6.817  0.1476  0.1793  0.2298
  110OSM    H3S11268   0.776   2.757   6.816 -2.0644 -0.1829 -0.4175
  110OSM     O311269   0.734   2.601   6.939  0.4192 -0.1715  0.2446
  110OSM    HO311270   0.801   2.549   6.984 -0.6741 -1.7800  0.0760
  110OSM    C4S11271   0.734   2.593   6.689  1.0634  1.0352  0.1567
  110OSM    H4S11272   0.759   2.656   6.602  0.6920  0.4152 -0.4047
  110OSM    C5S11273   0.671   2.471   6.673 -0.6848  0.0059 -0.4964
  110OSM    H5S11274   0.658   2.388   6.744 -0.7869 -0.4816 -1.0768
  110OSM    C6S11275   0.611   2.425   6.544 -0.4546  0.5959  0.0882
  110OSM    H6S11276   0.502   2.411   6.558 -0.5728  1.0239 -0.3853
  110OSM    H6T11277   0.658   2.326   6.524 -0.9398  0.1566  1.0626
  110OSM    C7S11278   0.625   2.511   6.413  0.3535  0.9339 -0.6174
  110OSM    H7S11279   0.726   2.557   6.408  0.4729  0.6913 -0.4924
  110OSM    H7T11280   0.569   2.606   6.422  0.4100  0.8631  0.6775
  110OSM    C8S11281   0.587   2.428   6.286 -0.2501 -0.5002 -0.0255
  110OSM    H8S11282   0.476   2.419   6.284 -0.4708  1.1461  1.6668
  110OSM    H8T11283   0.643   2.333   6.293  1.1435  0.2282 -0.6894
  110OSM    C9S11284   0.632   2.496   6.159  0.5373  0.0760 -0.7488
  110OSM    H9S11285   0.741   2.513   6.173  0.1077  2.1867  0.4284
  110OSM    H9T11286   0.588   2.597   6.140 -3.0158 -0.9660  1.0435
  110OSM   C10S11287   0.590   2.407   6.041  0.4894 -0.0086  0.1535
  110OSM   H10S11288   0.519   2.327   6.069 -0.0047 -0.0448 -1.1541
  110OSM   H10T11289   0.681   2.348   6.014  0.0201 -0.3923 -0.6136
  110OSM   C11S11290   0.540   2.481   5.917 -0.0921  0.4221 -0.7705
  110OSM   H11S11291   0.448   2.538   5.941  0.2907  0.8566 -0.2962
  110OSM   H11T11292   0.499   2.422   5.832  1.1534  1.1732 -1.9378
  110OSM   C12S11293   0.638   2.580   5.848 -1.1092  0.2788 -0.7801
  110OSM   H12S11294   0.739   2.558   5.888 -1.5140 -1.4782 -0.6000
  110OSM   H12T11295   0.612   2.680   5.888  0.8713 -0.7550  3.6324
  110OSM   C13S11296   0.619   2.576   5.693 -0.2444 -0.4275  0.2227
  110OSM   H13S11297   0.659   2.676   5.664  1.1863 -0.6067  1.4477
  110OSM   H13T11298   0.510   2.561   5.680 -0.4717  1.5080 -0.5097
  110OSM   C14S11299   0.698   2.461   5.633  0.1641 -0.0424 -0.0642
  110OSM   H14S11300   0.655   2.366   5.673 -1.9074  2.0442  3.1873
  110OSM   H14T11301   0.800   2.476   5.674  0.4897  0.8445 -1.1552
  110OSM   C15S11302   0.711   2.460   5.480 -0.1292 -0.1305 -0.7894
  110OSM   H15S11303   0.749   2.557   5.440 -0.7594  0.4245 -0.0639
  110OSM   H15T11304   0.610   2.445   5.436  0.6161 -1.1929 -2.2420
  110OSM   C16S11305   0.810   2.351   5.428 -0.7952 -0.2370  0.0846
  110OSM   H16S11306   0.777   2.249   5.459 -2.4217 -0.3190 -1.7539
  110OSM   H16T11307   0.915   2.366   5.463 -0.1199  0.1317 -1.9711
  110OSM   C17S11308   0.801   2.352   5.277 -0.2265 -0.0828 -0.0186
  110OSM   H17S11309   0.828   2.452   5.237  0.9380 -0.0780  0.7332
  110OSM   H17T11310   0.697   2.340   5.240  0.1564  0.5839 -1.3562
  110OSM   C18S11311   0.886   2.240   5.217  0.1176  0.0784 -0.0174
  110OSM   H18S11312   0.993   2.261   5.242  0.1407  0.0225 -0.0689
  110OSM   H18T11313   0.873   2.236   5.107 -1.4142 -1.7566  0.1681
  110OSM   H18U11314   0.861   2.141   5.263  0.8994 -0.6620 -1.1273
  110OSM    C1F11315   1.138   2.616   6.649 -0.2442  0.8072  0.1308
  110OSM     OF11316   1.190   2.509   6.691  0.4078 -0.5117  0.4913
  110OSM    C2F11317   1.209   2.731   6.582  0.6244  0.1359  0.4951
  110OSM    H2F11318   1.302   2.731   6.643  0.7263 -0.4105  0.3522
  110OSM    H2G11319   1.153   2.826   6.587 -2.7204 -1.7291  2.0301
  110OSM    C3F11320   1.252   2.697   6.438 -0.0650  0.2034  0.8362
  110OSM    H3F11321   1.313   2.605   6.425  0.6194  0.9500 -2.0827
  110OSM    H3G11322   1.307   2.784   6.396 -2.1130  1.7064  1.1331
  110OSM    C4F11323   1.133   2.677   6.348 -0.5312  0.1789 -0.1271
  110OSM    H4F11324   1.078   2.774   6.341 -0.9400 -0.0590 -0.2335
  110OSM    H4G11325   1.065   2.594   6.376 -0.6411  0.1187 -0.5578
  110OSM    C5F11326   1.185   2.632   6.211  0.3169 -0.0748  0.1626
  110OSM    H5F11327   1.250   2.544   6.234  1.9143  1.2494  0.9767
  110OSM    H5G11328   1.253   2.711   6.174 -1.2509  0.6679 -1.2342
  110OSM    C6F11329   1.077   2.588   6.112  0.0818 -0.2014 -0.6791
  110OSM    H6F11330   1.007   2.673   6.098 -1.1493 -0.6301  2.3085
  110OSM    H6G11331   1.007   2.509   6.144  1.3994 -1.4857 -0.8343
  110OSM    C7F11332   1.148   2.538   5.985  0.2192 -0.5679 -0.4694
  110OSM    H7F11333   1.194   2.438   5.996 -1.9865 -1.5999 -0.0969
  110OSM    H7G11334   1.226   2.614   5.962  1.5219 -2.0936 -1.3403
  110OSM    C8F11335   1.062   2.519   5.853 -0.3731 -0.1396 -0.1534
  110OSM    H8F11336   0.969   2.467   5.886 -0.0099 -0.6495  0.0672
  110OSM    H8G11337   1.117   2.443   5.795 -0.8591 -0.2073 -0.5360
  110OSM    C9F11338   1.029   2.657   5.794 -0.0240  0.4563  0.3032
  110OSM    H9F11339   0.976   2.722   5.865 -2.2755 -0.6600 -0.2580
  110OSM   C10F11340   1.062   2.687   5.668  0.6994  0.2824  0.2126
  110OSM   H10F11341   1.041   2.789   5.633  1.4663  1.0981  2.0182
  110OSM   C11F11342   1.125   2.595   5.565 -0.1943  0.2947 -0.5273
  110OSM   H11F11343   1.065   2.622   5.475 -1.5222  0.1256  0.2872
  110OSM   H11G11344   1.097   2.489   5.579 -0.0735  0.2717 -0.4611
  110OSM   C12F11345   1.285   2.595   5.565  0.9355 -0.4145  0.4689
  110OSM   H12F11346   1.319   2.568   5.667  0.4201  0.6431  0.9363
  110OSM   H12G11347   1.323   2.697   5.543  1.8718 -0.3837  2.1037
  110OSM   C13F11348   1.339   2.495   5.467  0.8303 -1.2658 -0.0646
  110OSM   H13F11349   1.293   2.394   5.471  0.9804 -1.3023  2.2159
  110OSM   H13G11350   1.448   2.493   5.488  1.0296  2.4771 -0.1136
  110OSM   C14F11351   1.320   2.542   5.327 -0.1881  0.5373  0.6787
  110OSM   H14F11352   1.364   2.644   5.324 -0.1011  0.4815 -0.4237
  110OSM   H14G11353   1.214   2.568   5.309 -0.1385 -0.3714 -1.1486
  110OSM   C15F11354   1.383   2.451   5.219  0.2184  0.3791 -0.1359
  110OSM   H15F11355   1.486   2.418   5.244  0.0247 -1.3463 -1.4415
  110OSM   H15G11356   1.385   2.519   5.131 -1.2235 -0.1951 -0.6456
  110OSM   C16F11357   1.302   2.329   5.187  0.3690  0.1804  0.9336
  110OSM   H16F11358   1.210   2.363   5.134  0.0996 -1.2973  0.4035
  110OSM   H16G11359   1.286   2.262   5.274  2.1537 -0.9910  0.4266
  110OSM   C17F11360   1.382   2.241   5.090  0.1974  0.7976  0.2186
  110OSM   H17F11361   1.304   2.169   5.056  1.1804 -0.4172  0.5033
  110OSM   H17G11362   1.452   2.174   5.143  0.1300 -1.0898 -1.9073
  110OSM   C18F11363   1.451   2.310   4.978 -0.4936 -0.4920  0.8347
  110OSM   H18F11364   1.379   2.343   4.899  2.4786  0.3043 -1.7356
  110OSM   H18G11365   1.515   2.241   4.919 -2.8454  0.0553 -2.7366
  110OSM   H18H11366   1.515   2.392   5.017  1.3962  0.0270 -2.9128
  111OSM      N11367   3.386   1.876   6.965  0.8801 -0.1306  0.0590
  111OSM    C1511368   3.477   1.768   6.931  0.0128 -0.3009  0.7999
  111OSM   H15A11369   3.536   1.713   7.003  0.8186 -0.2723  0.1777
  111OSM   H15B11370   3.551   1.800   6.858  1.6820 -1.8794  1.7082
  111OSM   H15C11371   3.423   1.687   6.885 -0.3643  1.3495 -1.8435
  111OSM    C1411372   3.316   1.823   7.091  0.4890 -0.6181 -0.4147
  111OSM   H14A11373   3.239   1.889   7.126  0.8188 -0.7628  0.6084
  111OSM   H14B11374   3.388   1.811   7.170  0.3163  0.0799 -0.1461
  111OSM   H14C11375   3.257   1.733   7.080  0.5206 -0.9424  1.7067
  111OSM    C1311376   3.467   2.002   7.005 -0.7228  0.0659 -0.1157
  111OSM   H13A11377   3.402   2.074   7.053  1.3844  2.2186 -0.3291
  111OSM   H13B11378   3.508   2.056   6.921 -1.1260  2.6021  1.1995
  111OSM   H13C11379   3.545   1.977   7.074 -0.7520  0.6107  0.1222
  111OSM    C1211380   3.283   1.921   6.868 -0.3235 -0.2797 -0.7366
  111OSM   H12A11381   3.338   1.965   6.786 -0.3764 -0.5890 -0.9416
  111OSM   H12B11382   3.222   1.995   6.919  0.9073 -1.3859  2.5883
  111OSM    C1111383   3.193   1.810   6.815 -0.1508 -0.1335 -0.4142
  111OSM   H11A11384   3.240   1.716   6.778 -2.1062 -1.0671 -0.7013
  111OSM   H11B11385   3.134   1.852   6.731 -0.5279  0.0504 -0.0597
  111OSM      P11386   2.978   1.852   6.948  0.0664  0.4245  0.1888
  111OSM    O1311387   2.895   1.795   7.056  0.2331 -0.3891 -0.2261
  111OSM    O1411388   3.031   1.990   6.969 -0.2223 -0.2532  0.7133
  111OSM    O1111389   2.899   1.859   6.810  0.0545 -0.0124  0.4492
  111OSM    O1211390   3.097   1.755   6.913  0.7641  0.2599 -0.4218
  111OSM    C1S11391   2.863   1.991   6.764  0.6632  0.1557 -1.0283
  111OSM    H1S11392   2.952   2.054   6.746  0.8386  0.4546  0.6977
  111OSM    H1T11393   2.806   2.046   6.842 -0.2394 -1.7028 -0.2943
  111OSM     NF11394   2.797   2.103   6.550  0.7714  0.6188  0.2727
  111OSM    HNF11395   2.735   2.177   6.574  1.7992  1.4957  0.3186
  111OSM    C2S11396   2.787   1.980   6.629 -0.3002  1.0057 -0.4307
  111OSM    H2S11397   2.832   1.903   6.562  0.4003  1.2629 -0.2634
  111OSM    C3S11398   2.647   1.922   6.656 -0.8758  0.8306  0.1291
  111OSM    H3S11399   2.587   1.999   6.708 -0.2536  3.0836 -2.2677
  111OSM     O311400   2.640   1.822   6.752  0.5367  0.1133  0.3828
  111OSM    HO311401   2.733   1.804   6.768  0.5802 -1.1648 -1.1212
  111OSM    C4S11402   2.574   1.883   6.536 -0.3073  0.8620 -0.5928
  111OSM    H4S11403   2.492   1.954   6.519 -1.6764 -0.1320  1.3935
  111OSM    C5S11404   2.587   1.778   6.446 -0.4228 -0.4183 -0.3263
  111OSM    H5S11405   2.670   1.705   6.450  0.1171 -0.0089 -2.6237
  111OSM    C6S11406   2.489   1.764   6.336 -0.2872  0.0532  0.6892
  111OSM    H6S11407   2.406   1.838   6.338 -0.5240 -0.1547 -0.5612
  111OSM    H6T11408   2.437   1.667   6.343  2.5780 -1.6076  0.6236
  111OSM    C7S11409   2.541   1.778   6.193  0.2822  0.0655 -0.2800
  111OSM    H7S11410   2.619   1.699   6.181  0.0433 -0.1513 -0.4097
  111OSM    H7T11411   2.595   1.874   6.182  1.1776 -0.6534 -3.1757
  111OSM    C8S11412   2.436   1.759   6.075 -1.0997  0.0670 -0.3919
  111OSM    H8S11413   2.383   1.856   6.071 -0.3609  0.4855 -0.2499
  111OSM    H8T11414   2.372   1.674   6.105 -0.2099 -1.6684 -3.0399
  111OSM    C9S11415   2.516   1.743   5.941  0.2788 -0.4648 -0.5250
  111OSM    H9S11416   2.593   1.664   5.954  1.2565  0.6490  0.9185
  111OSM    H9T11417   2.576   1.837   5.937  1.4288 -1.2283 -1.9614
  111OSM   C10S11418   2.435   1.738   5.813 -0.0074  0.2785  0.5349
  111OSM   H10S11419   2.359   1.817   5.830  1.9382  2.0390  1.5540
  111OSM   H10T11420   2.388   1.638   5.801 -0.1314  0.4126 -0.0997
  111OSM   C11S11421   2.531   1.777   5.700  0.1197 -0.4997  0.5402
  111OSM   H11S11422   2.622   1.713   5.696 -1.1514 -2.4520  1.3864
  111OSM   H11T11423   2.570   1.875   5.735  0.5853 -0.4477 -0.0970
  111OSM   C12S11424   2.466   1.795   5.564 -0.6446 -0.3981  0.3125
  111OSM   H12S11425   2.518   1.875   5.507  3.8966 -2.1295  1.5426
  111OSM   H12T11426   2.362   1.832   5.577 -0.2823  0.5634  0.5429
  111OSM   C13S11427   2.472   1.655   5.495  0.3146 -0.1454  0.1463
  111OSM   H13S11428   2.425   1.589   5.571  1.2306 -1.1703 -0.1572
  111OSM   H13T11429   2.571   1.613   5.469  1.1337  1.9135 -0.2659
  111OSM   C14S11430   2.387   1.643   5.362 -0.2222 -0.0655 -1.1109
  111OSM   H14S11431   2.283   1.677   5.377 -0.9286 -1.4520 -2.4857
  111OSM   H14T11432   2.373   1.535   5.338  1.4415 -0.3933 -0.7585
  111OSM   C15S11433   2.454   1.715   5.243 -0.6526 -0.1209 -0.1335
  111OSM   H15S11434   2.556   1.672   5.249 -0.4892  0.1754 -0.6990
  111OSM   H15T11435   2.467   1.823   5.263 -0.6093 -0.4248  1.6266
  111OSM   C16S11436   2.399   1.699   5.104  0.1203 -0.3278 -0.0426
  111OSM   H16S11437   2.317   1.773   5.097  1.3656  1.0551 -0.4784
  111OSM   H16T11438   2.370   1.592   5.098  0.9571 -0.7519  2.3194
  111OSM   C17S11439   2.485   1.733   4.982  0.6164  0.4726 -0.5308
  111OSM   H17S11440   2.554   1.646   4.986  0.0409 -0.0085 -0.8290
  111OSM   H17T11441   2.535   1.829   5.007  0.4846  0.9621 -2.0331
  111OSM   C18S11442   2.402   1.726   4.859  0.3317  0.3679 -0.0854
  111OSM   H18S11443   2.326   1.807   4.859  0.3741  0.4497  1.8917
  111OSM   H18T11444   2.348   1.629   4.856  0.6837  0.1490  0.4536
  111OSM   H18U11445   2.461   1.734   4.765 -0.1537 -0.4098 -0.4677
  111OSM    C1F11446   2.909   2.125   6.479  0.0479 -0.1726  0.1712
  111OSM     OF11447   3.002   2.043   6.492  0.9744  0.5176  0.7522
  111OSM    C2F11448   2.928   2.256   6.399  0.2040  0.1670  0.1518
  111OSM    H2F11449   2.993   2.324   6.458 -1.9619  1.5280  1.0899
  111OSM    H2G11450   2.833   2.313   6.397 -1.1966 -2.0442 -0.6880
  111OSM    C3F11451   2.973   2.230   6.251 -0.0048  0.0032 -0.2738
  111OSM    H3F11452   2.913   2.156   6.194 -2.7199  3.9978 -3.1456
  111OSM    H3G11453   3.080   2.203   6.259 -0.0594 -0.5000 -1.0784
  111OSM    C4F11454   2.955   2.352   6.163 -0.8241  0.4531 -0.2857
  111OSM    H4F11455   2.968   2.453   6.207 -0.4816  1.0100 -1.6024
  111OSM    H4G11456   2.850   2.354   6.127 -1.0451  2.3060  0.3765
  111OSM    C5F11457   3.045   2.339   6.044  0.2241  0.2633  0.1463
  111OSM    H5F11458   3.047   2.233   6.010 -1.6857  1.1647 -3.2564
  111OSM    H5G11459   3.144   2.356   6.092 -1.2220  0.5905  3.1912
  111OSM    C6F11460   3.020   2.441   5.936 -0.5102  0.6865 -0.1708
  111OSM    H6F11461   3.046   2.541   5.977  0.0895 -0.2519  1.8515
  111OSM    H6G11462   2.911   2.439   5.918 -0.6228 -1.8104  0.4454
  111OSM    C7F11463   3.102   2.412   5.813 -0.0448 -0.1940  0.0237
  111OSM    H7F11464   3.085   2.310   5.771 -1.9356 -0.2207  0.7302
  111OSM    H7G11465   3.210   2.416   5.836  0.8347 -0.1757 -3.5817
  111OSM    C8F11466   3.068   2.518   5.702 -0.3265 -0.6049  0.4300
  111OSM    H8F11467   3.161   2.514   5.641  1.2751  0.0014  2.6875
  111OSM    H8G11468   3.067   2.622   5.742  0.3783 -1.3343  2.4855
  111OSM    C9F11469   2.946   2.485   5.626  0.0752 -1.1006 -0.1214
  111OSM    H9F11470   2.852   2.479   5.683 -2.2410  0.5198 -3.4641
  111OSM   C10F11471   2.954   2.446   5.498  0.0486 -0.2209  0.2254
  111OSM   H10F11472   2.857   2.421   5.452 -0.0411  0.7074 -0.1044
  111OSM   C11F11473   3.072   2.424   5.417  0.7319 -0.1569  0.4745
  111OSM   H11F11474   3.137   2.514   5.413 -0.1769  0.4715 -0.5945
  111OSM   H11G11475   3.038   2.392   5.316  0.8578 -0.7866  0.6271
  111OSM   C12F11476   3.156   2.297   5.440  0.1865 -0.0878  0.4294
  111OSM   H12F11477   3.235   2.302   5.519 -0.0317 -3.0611  0.9616
  111OSM   H12G11478   3.206   2.271   5.345 -1.2410 -0.9675 -0.0956
  111OSM   C13F11479   3.069   2.171   5.471 -0.2491 -0.3317  1.0722
  111OSM   H13F11480   3.014   2.193   5.565  0.9889  0.0223  1.7390
  111OSM   H13G11481   3.141   2.087   5.488  0.4774 -0.0138 -0.2680
  111OSM   C14F11482   2.980   2.123   5.356  0.2078 -0.3105  0.2791
  111OSM   H14F11483   2.908   2.205   5.335 -0.7127 -1.4049 -0.9905
  111OSM   H14G11484   2.921   2.035   5.388 -0.6109 -0.0948 -0.6019
  111OSM   C15F11485   3.048   2.094   5.226 -0.0325  0.1678  0.2464
  111OSM   H15F11486   3.147   2.045   5.243 -0.1858 -0.4546 -0.6096
  111OSM   H15G11487   3.078   2.186   5.172 -2.2661  0.1243 -1.1758
  111OSM   C16F11488   2.977   1.991   5.139 -0.3231 -0.1150 -0.3108
  111OSM   H16F11489   2.884   2.041   5.105 -0.7588  0.2331  1.3261
  111OSM   H16G11490   2.943   1.898   5.190  0.0753 -0.3614 -0.4899
  111OSM   C17F11491   3.056   1.953   5.016  1.3558 -0.0337 -0.2786
  111OSM   H17F11492   3.162   1.959   5.049  0.4931  1.8594  2.4790
  111OSM   H17G11493   3.050   2.039   4.945 -0.7051  0.2433  0.1652
  111OSM   C18F11494   3.008   1.823   4.956 -0.4005  0.2494  0.4707
  111OSM   H18F11495   3.067   1.796   4.865 -1.2305 -0.7257  0.2100
  111OSM   H18G11496   2.900   1.825   4.930 -0.2315 -1.0085 -0.4319
  111OSM   H18H11497   3.028   1.739   5.027 -0.9653  0.6132  1.0704
  112OSM      N11498   5.085   3.910   7.405 -0.3318  0.4407  0.6167
  112OSM    C1511499   5.153   3.784   7.420 -0.3552  0.5658  0.1550
  112OSM   H15A11500   5.109   3.722   7.497  0.5560 -0.6990 -0.3048
  112OSM   H15B11501   5.259   3.792   7.434 -0.5896  1.1164  1.7273
  112OSM   H15C11502   5.141   3.719   7.334  0.1431 -0.2014  0.6533
  112OSM    C1411503   4.939   3.896   7.393 -0.3654 -0.2431  0.1201
  112OSM   H14A11504   4.920   3.835   7.306 -1.3873  1.4262 -0.8951
  112OSM   H14B11505   4.892   3.993   7.389  0.0330 -0.0716 -0.8962
  112OSM   H14C11506   4.899   3.837   7.474  0.7337 -1.1374  0.0350
  112OSM    C1311507   5.112   3.990   7.531 -0.0776  0.5783  0.1732
  112OSM   H13A11508   5.041   3.955   7.604 -0.3908 -1.2004 -0.9249
  112OSM   H13B11509   5.079   4.092   7.522  0.6999  0.8203 -0.0131
  112OSM   H13C11510   5.214   3.987   7.568  0.9729  3.1973 -2.1205
  112OSM    C1211511   5.139   3.975   7.276 -0.1003  0.3990 -0.0618
  112OSM   H12A11512   5.112   3.908   7.196 -3.3868 -1.3523  2.2246
  112OSM   H12B11513   5.247   3.977   7.280 -0.0410 -1.8956  0.8971
  112OSM    C1111514   5.088   4.119   7.259  0.0946 -0.2682 -0.0907
  112OSM   H11A11515   4.978   4.123   7.242  0.2430  0.0956 -1.0105
  112OSM   H11B11516   5.135   4.156   7.165 -0.1269 -1.0086 -0.5032
  112OSM      P11517   5.256   4.283   7.368  0.1621  0.3378 -0.4286
  112OSM    O1311518   5.248   4.387   7.472 -0.1696 -0.1185  0.1796
  112OSM    O1411519   5.367   4.188   7.376  0.0335  0.3278 -0.2402
  112OSM    O1111520   5.267   4.362   7.228  0.2747  0.8832  0.3724
  112OSM    O1211521   5.113   4.212   7.366 -0.1642 -0.4390  0.0696
  112OSM    C1S11522   5.148   4.424   7.174  0.2320 -0.1153  0.2687
  112OSM    H1S11523   5.121   4.515   7.232  0.7275  1.3752 -1.7412
  112OSM    H1T11524   5.056   4.362   7.172 -0.1878  0.4432  1.4284
  112OSM     NF11525   5.064   4.529   6.971  0.8085 -0.3952  0.6779
  112OSM    HNF11526   5.000   4.470   6.923 -0.2548  0.5994  0.8522
  112OSM    C2S11527   5.177   4.464   7.026  0.5515  0.0539  0.9648
  112OSM    H2S11528   5.261   4.536   7.034 -0.0025  0.6692  1.3550
  112OSM    C3S11529   5.209   4.339   6.938 -0.0932 -0.3151 -0.8821
  112OSM    H3S11530   5.126   4.268   6.954  1.5676 -1.9052  1.2243
  112OSM     O311531   5.324   4.272   6.986  0.3588 -0.3950  0.1149
  112OSM    HO311532   5.318   4.286   7.081  0.7240 -0.2390  0.1172
  112OSM    C4S11533   5.214   4.374   6.786  0.1759 -0.1993  0.5146
  112OSM    H4S11534   5.280   4.460   6.768 -0.6872  0.7101  1.5667
  112OSM    C5S11535   5.149   4.320   6.685  0.0388  0.3313 -0.1942
  112OSM    H5S11536   5.071   4.250   6.720  1.6974 -0.1305  2.9824
  112OSM    C6S11537   5.157   4.364   6.540  0.1071  0.6851 -0.4083
  112OSM    H6S11538   5.194   4.469   6.535  4.0638 -0.5178 -0.0722
  112OSM    H6T11539   5.055   4.368   6.495  0.2468 -1.3211 -0.9993
  112OSM    C7S11540   5.240   4.277   6.438  0.0912 -0.1446 -0.6673
  112OSM    H7S11541   5.222   4.167   6.448 -0.5728  0.1715  4.3454
  112OSM    H7T11542   5.346   4.286   6.470  0.3950 -0.7056 -1.4876
  112OSM    C8S11543   5.231   4.343   6.301  0.8091  0.3613  0.6308
  112OSM    H8S11544   5.241   4.453   6.312  0.0923  0.5713 -0.5654
  112OSM    H8T11545   5.133   4.341   6.248  1.8124  1.6426 -1.4217
  112OSM    C9S11546   5.347   4.291   6.219  0.5125 -0.5189 -0.5536
  112OSM    H9S11547   5.333   4.183   6.198  2.1802 -0.4921 -1.9806
  112OSM    H9T11548   5.447   4.303   6.268  1.6533  1.2667 -3.1217
  112OSM   C10S11549   5.354   4.363   6.083 -0.2960  0.2580  0.2831
  112OSM   H10S11550   5.350   4.474   6.089 -2.6800  0.2236  0.4248
  112OSM   H10T11551   5.257   4.336   6.035  0.4485 -2.1945  0.0313
  112OSM   C11S11552   5.476   4.305   6.002  0.1855 -0.0507  0.0563
  112OSM   H11S11553   5.492   4.198   6.031 -1.1869  0.3747  2.7510
  112OSM   H11T11554   5.568   4.362   6.026 -0.0770  0.5760 -0.4142
  112OSM   C12S11555   5.455   4.324   5.850 -0.6665  0.3072 -0.7544
  112OSM   H12S11556   5.554   4.327   5.800 -1.1654 -1.0321 -1.8854
  112OSM   H12T11557   5.418   4.426   5.825 -1.4377 -0.6350 -3.8675
  112OSM   C13S11558   5.361   4.224   5.786  0.0510  0.0267  0.3106
  112OSM   H13S11559   5.261   4.247   5.830  0.4576  0.6124  0.9594
  112OSM   H13T11560   5.384   4.117   5.800  0.6800  0.1156 -0.0434
  112OSM   C14S11561   5.356   4.255   5.641 -0.1917  0.1681  0.9878
  112OSM   H14S11562   5.452   4.233   5.588 -1.4854  0.5384 -1.6866
  112OSM   H14T11563   5.338   4.364   5.629 -0.6042 -0.1095 -1.4030
  112OSM   C15S11564   5.220   4.196   5.577 -0.2529 -0.0990 -0.6392
  112OSM   H15S11565   5.137   4.238   5.639  1.2602  0.9894  0.7222
  112OSM   H15T11566   5.213   4.085   5.579 -0.5570 -0.0799  1.2443
  112OSM   C16S11567   5.202   4.227   5.432  0.3319  0.7523 -0.4991
  112OSM   H16S11568   5.206   4.336   5.411 -0.7357  0.8778 -0.1332
  112OSM   H16T11569   5.104   4.189   5.396  1.2283 -3.4831  1.0175
  112OSM   C17S11570   5.314   4.168   5.340 -0.5319  0.6589  0.5189
  112OSM   H17S11571   5.319   4.058   5.359  1.1613  0.1558 -2.1631
  112OSM   H17T11572   5.413   4.210   5.370 -0.0966  0.1699 -0.1924
  112OSM   C18S11573   5.265   4.185   5.189 -0.2029  0.2542 -0.4824
  112OSM   H18S11574   5.246   4.292   5.165 -3.6728 -0.3570 -0.9343
  112OSM   H18T11575   5.166   4.136   5.182  0.2261 -0.8196  0.6419
  112OSM   H18U11576   5.325   4.138   5.109  1.2365 -1.6550  1.5688
  112OSM    C1F11577   5.043   4.660   6.984 -0.1554 -0.5280  0.3541
  112OSM     OF11578   5.123   4.724   7.053  0.6437  0.2325  0.8004
  112OSM    C2F11579   4.924   4.716   6.898  0.2669  0.3483 -0.3499
  112OSM    H2F11580   4.954   4.806   6.841  1.1077 -0.9516 -2.0423
  112OSM    H2G11581   4.847   4.758   6.967  2.9028  2.3664  1.5735
  112OSM    C3F11582   4.852   4.612   6.807 -0.3345  0.1006 -0.8070
  112OSM    H3F11583   4.810   4.535   6.876  0.9413  1.4219  1.5667
  112OSM    H3G11584   4.913   4.554   6.734 -2.4137 -1.6996 -1.2157
  112OSM    C4F11585   4.745   4.672   6.712 -1.0409  0.0117  0.1392
  112OSM    H4F11586   4.661   4.689   6.782 -0.5004  0.6942  0.6375
  112OSM    H4G11587   4.716   4.585   6.649  3.0629 -0.4016 -1.4905
  112OSM    C5F11588   4.788   4.796   6.634 -0.0192 -0.2957 -0.0819
  112OSM    H5F11589   4.815   4.872   6.710 -1.5190  0.2600 -0.0770
  112OSM    H5G11590   4.701   4.837   6.579 -0.4196 -1.3252 -0.2279
  112OSM    C6F11591   4.910   4.773   6.541 -0.1064 -0.5100 -0.0777
  112OSM    H6F11592   4.991   4.736   6.609 -0.8696 -0.3510  0.9431
  112OSM    H6G11593   4.938   4.871   6.496 -0.9774  0.7356  1.9582
  112OSM    C7F11594   4.894   4.673   6.433  0.8137 -0.0532  0.6537
  112OSM    H7F11595   4.810   4.699   6.364  1.8690 -0.8138 -0.9716
  112OSM    H7G11596   4.867   4.571   6.467 -1.6777  0.4473  0.3925
  112OSM    C8F11597   5.013   4.640   6.335 -0.2985 -0.5444 -1.2750
  112OSM    H8F11598   4.992   4.540   6.291 -1.8481  0.1174 -2.1150
  112OSM    H8G11599   5.104   4.629   6.397 -0.0572 -3.5402 -2.0150
  112OSM    C9F11600   5.033   4.749   6.231  0.0972  0.6876  0.3194
  112OSM    H9F11601   5.036   4.852   6.268  0.3285  2.1826 -3.5057
  112OSM   C10F11602   5.025   4.726   6.100  0.1691 -0.3442 -0.1835
  112OSM   H10F11603   5.021   4.812   6.031  1.0353 -0.0265  0.1472
  112OSM   C11F11604   5.006   4.594   6.046  0.4384  0.4582 -0.1810
  112OSM   H11F11605   4.911   4.551   6.085 -0.2641  1.6249 -0.5417
  112OSM   H11G11606   5.083   4.526   6.090 -0.6959 -0.4577  0.4504
  112OSM   C12F11607   5.008   4.582   5.894  0.0932  0.2079  0.2389
  112OSM   H12F11608   4.922   4.628   5.841 -0.5729 -1.0072  0.2282
  112OSM   H12G11609   4.998   4.472   5.882 -1.0532  0.4546 -1.3158
  112OSM   C13F11610   5.137   4.628   5.829 -0.6997  0.4368  0.6382
  112OSM   H13F11611   5.215   4.570   5.882 -0.9143  1.5942  2.2877
  112OSM   H13G11612   5.157   4.737   5.840  0.7195  0.3067 -0.4105
  112OSM   C14F11613   5.152   4.601   5.678 -0.1957  0.1349 -0.1989
  112OSM   H14F11614   5.133   4.496   5.649 -0.5846  0.0982  0.1880
  112OSM   H14G11615   5.258   4.618   5.649 -0.1687 -1.0352 -0.8521
  112OSM   C15F11616   5.078   4.697   5.577  0.3153  0.0692  0.0072
  112OSM   H15F11617   5.103   4.804   5.595  2.9641 -0.4594 -0.0628
  112OSM   H15G11618   4.970   4.684   5.596  0.2783  2.5367  2.1662
  112OSM   C16F11619   5.098   4.662   5.431 -0.1314 -0.1129 -0.4681
  112OSM   H16F11620   5.042   4.727   5.360  1.8327  1.7362 -0.4392
  112OSM   H16G11621   5.057   4.559   5.422  0.9066 -0.8653  2.3567
  112OSM   C17F11622   5.243   4.662   5.381 -0.0189 -0.3207 -0.6077
  112OSM   H17F11623   5.305   4.612   5.459 -1.8613 -1.0184  0.4816
  112OSM   H17G11624   5.278   4.768   5.384 -2.1736  0.4333  0.4153
  112OSM   C18F11625   5.259   4.607   5.244  0.0434  0.5553 -0.1025
  112OSM   H18F11626   5.227   4.678   5.164 -0.6236 -0.8089 -1.0933
  112OSM   H18G11627   5.218   4.510   5.208  1.5008  0.5106 -1.7703
  112OSM   H18H11628   5.368   4.606   5.223  0.3294  1.7040  1.2078
  113OSM      N11629   2.207   0.963   7.701  0.1526 -0.2254 -0.0397
  113OSM    C1511630   2.130   0.851   7.751  0.1026  0.3696 -0.1734
  113OSM   H15A11631   2.161   0.758   7.705  1.1250 -0.1650  1.4938
  113OSM   H15B11632   2.027   0.853   7.718 -0.8365 -1.7307  2.2947
  113OSM   H15C11633   2.132   0.835   7.858  0.9419 -2.1565 -0.4877
  113OSM    C1411634   2.198   1.082   7.803 -0.0790  0.5418 -0.0551
  113OSM   H14A11635   2.261   1.162   7.767  0.8731 -0.5763 -0.9639
  113OSM   H14B11636   2.239   1.051   7.898 -0.2039 -1.2548 -0.5638
  113OSM   H14C11637   2.092   1.103   7.813 -0.2813 -0.3843 -0.2033
  113OSM    C1311638   2.353   0.917   7.693 -0.5544 -0.4175  0.1781
  113OSM   H13A11639   2.400   0.889   7.786 -0.4417  0.6687  0.4675
  113OSM   H13B11640   2.416   0.995   7.652 -0.5235 -0.9476 -0.8060
  113OSM   H13C11641   2.343   0.840   7.618  1.1491 -0.7521  0.2459
  113OSM    C1211642   2.168   1.000   7.564  0.3685  0.2005  0.1327
  113OSM   H12A11643   2.252   1.051   7.518  0.4767 -0.9084 -0.9404
  113OSM   H12B11644   2.089   1.074   7.563  0.0527 -0.1200  0.8937
  113OSM    C1111645   2.118   0.891   7.459 -0.7313  0.0885 -0.0371
  113OSM   H11A11646   2.076   0.942   7.370 -1.1642  0.9174  0.6345
  113OSM   H11B11647   2.034   0.834   7.504 -2.8152  1.8657 -1.4981
  113OSM      P11648   2.337   0.830   7.331  0.2379 -0.1398 -0.3266
  113OSM    O1311649   2.331   0.969   7.287  0.4453  0.3070 -0.5030
  113OSM    O1411650   2.460   0.800   7.410 -0.5975  0.1511  0.0427
  113OSM    O1111651   2.316   0.735   7.207 -0.3484 -0.1511 -0.1457
  113OSM    O1211652   2.218   0.793   7.426 -0.0627 -0.3864  0.5256
  113OSM    C1S11653   2.213   0.771   7.116 -0.3816  0.2056  0.2939
  113OSM    H1S11654   2.189   0.878   7.102 -0.0297  0.1530 -0.8280
  113OSM    H1T11655   2.116   0.722   7.139 -1.7072  2.2333 -0.6823
  113OSM     NF11656   2.134   0.735   6.874  0.3779 -0.1164 -0.0585
  113OSM    HNF11657   2.089   0.648   6.856  0.7537 -0.1477 -0.9303
  113OSM    C2S11658   2.247   0.720   6.971  0.1091  0.3634  0.4328
  113OSM    H2S11659   2.332   0.782   6.934  0.7915  0.9466  2.7929
  113OSM    C3S11660   2.300   0.574   6.976 -0.2606 -0.0943  0.3680
  113OSM    H3S11661   2.214   0.513   7.010 -0.2418 -1.2879 -1.5301
  113OSM     O311662   2.416   0.560   7.062  1.0595  0.1760  0.2204
  113OSM    HO311663   2.410   0.642   7.112  1.9276  1.6116 -1.8454
  113OSM    C4S11664   2.343   0.534   6.837 -0.0384 -0.3243  0.6058
  113OSM    H4S11665   2.397   0.609   6.778 -0.0788 -1.1905 -0.5545
  113OSM    C5S11666   2.301   0.416   6.779 -0.2778  0.1376 -0.2766
  113OSM    H5S11667   2.234   0.347   6.833  0.5368  0.4323  1.1582
  113OSM    C6S11668   2.337   0.387   6.635 -0.1499 -1.0912 -0.1982
  113OSM    H6S11669   2.405   0.301   6.618 -0.2209 -1.3933  0.9697
  113OSM    H6T11670   2.385   0.478   6.594 -1.1884  0.0632  1.0378
  113OSM    C7S11671   2.212   0.351   6.561  0.5059  0.5540  0.2937
  113OSM    H7S11672   2.130   0.425   6.574  0.4248  0.6535 -0.6776
  113OSM    H7T11673   2.169   0.258   6.603  1.5956 -0.0836  0.0389
  113OSM    C8S11674   2.239   0.327   6.411 -0.4537  0.3639 -0.2578
  113OSM    H8S11675   2.300   0.234   6.405  0.5921  1.0487 -0.4435
  113OSM    H8T11676   2.295   0.409   6.361  2.1667 -0.8493  0.4878
  113OSM    C9S11677   2.097   0.305   6.347 -0.9401 -0.1062  0.7294
  113OSM    H9S11678   2.012   0.369   6.378 -0.4990 -0.1730  2.1562
  113OSM    H9T11679   2.073   0.201   6.380  1.0296 -0.4787  1.1408
  113OSM   C10S11680   2.099   0.303   6.192 -0.4619  0.4296 -0.8684
  113OSM   H10S11681   2.170   0.225   6.154 -1.7044 -0.4206 -1.5016
  113OSM   H10T11682   2.125   0.409   6.172 -2.0777  0.7111 -1.5538
  113OSM   C11S11683   1.968   0.278   6.130 -0.4736  0.0933  0.6420
  113OSM   H11S11684   1.897   0.363   6.136  0.2255  0.8344 -1.0579
  113OSM   H11T11685   1.916   0.194   6.181  0.2991 -0.7942  0.0150
  113OSM   C12S11686   1.979   0.235   5.986 -0.5252  0.1119 -0.0314
  113OSM   H12S11687   1.880   0.190   5.962 -0.9668  1.1996 -0.2706
  113OSM   H12T11688   2.056   0.155   5.975 -1.2466 -0.6899  0.5652
  113OSM   C13S11689   2.004   0.355   5.890 -0.3073  0.1452  0.5551
  113OSM   H13S11690   2.111   0.380   5.902  0.1551 -1.9790  1.2793
  113OSM   H13T11691   1.940   0.445   5.902  0.2888  0.7336 -0.5227
  113OSM   C14S11692   2.004   0.316   5.732  0.0600  0.4742 -0.0618
  113OSM   H14S11693   2.097   0.257   5.721 -0.6838 -1.1539  1.8360
  113OSM   H14T11694   2.021   0.409   5.673 -0.9513  0.3282 -0.6126
  113OSM   C15S11695   1.887   0.245   5.675  0.3229  0.9386 -0.2999
  113OSM   H15S11696   1.809   0.316   5.640 -1.7409 -1.1945 -0.2681
  113OSM   H15T11697   1.839   0.171   5.742  2.3308  1.1203  1.4539
  113OSM   C16S11698   1.922   0.172   5.537  0.2100  0.9112  0.0073
  113OSM   H16S11699   1.984   0.079   5.545  0.1705  0.8384 -0.4913
  113OSM   H16T11700   1.980   0.248   5.480 -0.8729  1.0370 -0.9756
  113OSM   C17S11701   1.806   0.126   5.450 -0.1069 -0.0312 -0.2167
  113OSM   H17S11702   1.723   0.200   5.447 -0.4589 -0.4206 -0.1886
  113OSM   H17T11703   1.766   0.035   5.499 -1.6988  0.5569 -0.3419
  113OSM   C18S11704   1.839   0.101   5.300  0.4490 -0.0556 -0.3299
  113OSM   H18S11705   1.744   0.103   5.243 -1.1004 -1.5218  2.0067
  113OSM   H18T11706   1.892   0.005   5.285  0.5575  0.2230 -1.8433
  113OSM   H18U11707   1.906   0.184   5.271  1.0403  0.0096  1.1423
  113OSM    C1F11708   2.097   0.853   6.840 -0.9453  0.0483  0.5800
  113OSM     OF11709   2.178   0.944   6.855 -0.4321 -0.1456  0.8261
  113OSM    C2F11710   1.956   0.875   6.792  0.0187  0.2701  0.8205
  113OSM    H2F11711   1.897   0.926   6.871 -1.8858  0.0217 -0.3873
  113OSM    H2G11712   1.912   0.773   6.795 -0.1415  0.3485  1.1539
  113OSM    C3F11713   1.931   0.934   6.650  0.8274  1.0364  0.4155
  113OSM    H3F11714   1.826   0.915   6.621  1.4835 -1.3109 -0.6103
  113OSM    H3G11715   1.996   0.880   6.577 -0.9111  1.8831 -1.8710
  113OSM    C4F11716   1.973   1.090   6.643 -0.2360 -0.4195  0.0492
  113OSM    H4F11717   2.084   1.085   6.635 -0.3198  0.1375 -2.0788
  113OSM    H4G11718   1.952   1.144   6.737 -1.4797 -1.6872  0.5383
  113OSM    C5F11719   1.917   1.162   6.522  0.2440 -0.5158 -0.3991
  113OSM    H5F11720   1.952   1.267   6.526 -0.6493 -0.2607  1.2960
  113OSM    H5G11721   1.809   1.157   6.544 -0.1425  3.2290 -0.8733
  113OSM    C6F11722   1.944   1.093   6.388  0.8864  0.3032 -0.2583
  113OSM    H6F11723   1.908   0.989   6.384 -0.0438  0.5253  1.4734
  113OSM    H6G11724   2.052   1.100   6.363  1.4768 -3.4971  0.6006
  113OSM    C7F11725   1.847   1.148   6.281 -0.3637  1.0005  0.5933
  113OSM    H7F11726   1.863   1.258   6.274 -0.5066  0.9986  0.1581
  113OSM    H7G11727   1.747   1.105   6.303 -1.1234  1.0632 -2.2475
  113OSM    C8F11728   1.879   1.096   6.141  0.8392  0.3787  0.6094
  113OSM    H8F11729   1.896   0.986   6.142 -1.6202 -0.0723 -0.5615
  113OSM    H8G11730   1.976   1.137   6.106  1.5922 -0.5203  1.5755
  113OSM    C9F11731   1.761   1.132   6.053  0.5595  0.7351 -0.6580
  113OSM    H9F11732   1.667   1.099   6.099  0.7193  0.2768 -0.6560
  113OSM   C10F11733   1.749   1.184   5.927 -0.6248 -0.2202 -0.2543
  113OSM   H10F11734   1.647   1.205   5.890 -0.8137 -0.4168  0.1495
  113OSM   C11F11735   1.855   1.225   5.830 -0.7877  0.2600 -1.0692
  113OSM   H11F11736   1.953   1.208   5.878 -1.7083 -2.6884 -0.0561
  113OSM   H11G11737   1.841   1.333   5.806  0.9406  0.8675  0.4972
  113OSM   C12F11738   1.838   1.143   5.699 -0.5729  0.3209  0.1638
  113OSM   H12F11739   1.849   1.034   5.716 -3.0699 -0.0068 -0.0820
  113OSM   H12G11740   1.928   1.168   5.638 -0.6830  1.4735  0.4522
  113OSM   C13F11741   1.713   1.170   5.613  0.3262  0.2306  0.4377
  113OSM   H13F11742   1.724   1.276   5.583 -1.2208  0.5269  0.7908
  113OSM   H13G11743   1.622   1.153   5.675 -0.0414 -2.0234 -0.5937
  113OSM   C14F11744   1.709   1.077   5.487 -0.2914 -0.1315 -0.7079
  113OSM   H14F11745   1.750   0.977   5.515 -2.8992 -0.7442  1.3959
  113OSM   H14G11746   1.784   1.127   5.423  2.1725  1.0715  2.8415
  113OSM   C15F11747   1.571   1.083   5.432 -0.2968  0.2551  0.3471
  113OSM   H15F11748   1.490   1.057   5.503 -0.9092 -1.4449 -0.9253
  113OSM   H15G11749   1.577   0.989   5.374  2.1312  0.4416  0.2108
  113OSM   C16F11750   1.545   1.216   5.361  0.1315  0.0985 -0.2331
  113OSM   H16F11751   1.629   1.227   5.290 -0.5758  0.0524 -1.1021
  113OSM   H16G11752   1.541   1.304   5.428  0.1264  0.6849 -0.9818
  113OSM   C17F11753   1.412   1.199   5.291 -0.2315  0.3039  0.2854
  113OSM   H17F11754   1.320   1.187   5.351 -0.8207  0.7193 -0.5094
  113OSM   H17G11755   1.415   1.110   5.224 -0.3305  1.2515 -1.0260
  113OSM   C18F11756   1.386   1.314   5.190  0.9200  0.8265 -0.2332
  113OSM   H18F11757   1.292   1.285   5.140 -0.0430 -0.4747  2.1870
  113OSM   H18G11758   1.463   1.316   5.110 -1.5513 -0.4477 -2.8317
  113OSM   H18H11759   1.359   1.409   5.241  2.9533  1.3308 -0.0014
  114OSM      N11760   3.882   6.583   7.380 -0.0808  0.8787  0.1102
  114OSM    C1511761   3.998   6.592   7.288 -0.3102 -0.2389 -0.2570
  114OSM   H15A11762   4.052   6.685   7.295 -1.5055  0.3707  1.4808
  114OSM   H15B11763   3.962   6.578   7.187  0.1352  0.2756 -0.4913
  114OSM   H15C11764   4.066   6.509   7.299 -0.9895 -1.3011 -3.0494
  114OSM    C1411765   3.801   6.463   7.348 -0.3132  0.2220  0.0195
  114OSM   H14A11766   3.735   6.427   7.426  0.3523 -2.4006 -0.5087
  114OSM   H14B11767   3.864   6.381   7.316  0.7244  1.1979 -0.5131
  114OSM   H14C11768   3.737   6.479   7.263 -0.3561  1.9417  0.3445
  114OSM    C1311769   3.935   6.559   7.521  0.2747 -0.4229 -0.1151
  114OSM   H13A11770   4.001   6.640   7.548 -0.9364  0.7481 -0.5690
  114OSM   H13B11771   3.997   6.471   7.528  0.4622 -0.1890  1.6594
  114OSM   H13C11772   3.858   6.564   7.597  1.5269  2.9090  1.1343
  114OSM    C1211773   3.794   6.699   7.374  0.3426 -0.0323 -0.5802
  114OSM   H12A11774   3.845   6.779   7.425 -0.0524  2.0255 -3.1917
  114OSM   H12B11775   3.704   6.681   7.431  1.3355 -0.4046  0.9374
  114OSM    C1111776   3.738   6.738   7.239 -0.4054 -0.1709  0.4081
  114OSM   H11A11777   3.818   6.761   7.165 -2.4403  2.3916 -1.1514
  114OSM   H11B11778   3.670   6.825   7.249  0.5290  0.5508  0.6675
  114OSM      P11779   3.517   6.624   7.206 -0.1853 -0.0021  0.2501
  114OSM    O1311780   3.464   6.504   7.140 -0.0724 -0.2509 -0.1353
  114OSM    O1411781   3.498   6.637   7.352 -0.2739  0.1853  0.2344
  114OSM    O1111782   3.455   6.747   7.133 -0.1520  0.0143  0.3566
  114OSM    O1211783   3.665   6.630   7.177 -0.5071  0.0261 -0.4462
  114OSM    C1S11784   3.475   6.761   6.993  0.8242 -0.4001  0.2112
  114OSM    H1S11785   3.573   6.729   6.953  1.5937  2.6582 -0.6472
  114OSM    H1T11786   3.475   6.870   6.972  1.4648 -0.6212 -1.0696
  114OSM     NF11787   3.400   6.706   6.764  0.0886 -0.4871 -0.1021
  114OSM    HNF11788   3.356   6.783   6.719 -0.1353  0.0162  0.9245
  114OSM    C2S11789   3.364   6.690   6.908 -0.4528  0.2575  0.0064
  114OSM    H2S11790   3.376   6.582   6.931  0.1312  0.1204 -0.8837
  114OSM    C3S11791   3.222   6.744   6.949  0.4495 -0.2053 -0.5602
  114OSM    H3S11792   3.229   6.854   6.935  2.2207  0.1248  2.1491
  114OSM     O311793   3.183   6.720   7.087 -0.1450  0.2696 -0.1116
  114OSM    HO311794   3.267   6.692   7.123 -0.5671  0.7676  1.3350
  114OSM    C4S11795   3.118   6.676   6.868 -0.0702  0.5874  0.7001
  114OSM    H4S11796   3.102   6.729   6.773 -2.1150  0.5616  0.9798
  114OSM    C5S11797   3.045   6.562   6.883  0.5420  0.1321  0.6904
  114OSM    H5S11798   3.055   6.503   6.975  1.4569 -0.0992  0.4493
  114OSM    C6S11799   2.931   6.512   6.795  0.3634  0.2447  0.2843
  114OSM    H6S11800   2.836   6.562   6.826 -0.2662 -0.1441 -0.9437
  114OSM    H6T11801   2.918   6.402   6.785 -0.3012  0.4195 -0.9196
  114OSM    C7S11802   2.939   6.559   6.651  0.4856  0.3635  0.6137
  114OSM    H7S11803   2.922   6.668   6.646 -0.5049  0.1799 -2.0381
  114OSM    H7T11804   2.854   6.518   6.593 -0.3106 -1.4501  2.9084
  114OSM    C8S11805   3.064   6.513   6.578 -0.5501  0.8399  0.4229
  114OSM    H8S11806   3.056   6.404   6.594  0.4546  0.7404  0.2800
  114OSM    H8T11807   3.158   6.548   6.625 -0.6794  0.9578  0.5927
  114OSM    C9S11808   3.047   6.542   6.434  0.4316 -0.0075 -0.0586
  114OSM    H9S11809   2.947   6.513   6.397 -0.5357  2.2023  0.6520
  114OSM    H9T11810   3.116   6.479   6.374  1.1375  0.1280  0.5864
  114OSM   C10S11811   3.079   6.689   6.402  0.5417 -0.5123 -0.0753
  114OSM   H10S11812   3.186   6.709   6.425 -0.0953  1.6117  1.2052
  114OSM   H10T11813   3.023   6.755   6.471  0.9889 -1.3000  1.0655
  114OSM   C11S11814   3.059   6.718   6.253  0.5275 -0.0590  0.2002
  114OSM   H11S11815   3.106   6.645   6.184 -0.0641  0.5912 -0.9342
  114OSM   H11T11816   3.110   6.814   6.229 -0.9675  0.5178 -0.8230
  114OSM   C12S11817   2.908   6.747   6.213  0.2449 -0.0815  0.6790
  114OSM   H12S11818   2.853   6.812   6.284 -0.3900 -0.5938  0.6679
  114OSM   H12T11819   2.847   6.655   6.225  0.4862 -0.3572 -0.1066
  114OSM   C13S11820   2.882   6.780   6.065 -0.7916  0.4289  0.7476
  114OSM   H13S11821   2.971   6.841   6.037 -0.5507  0.3738  1.3528
  114OSM   H13T11822   2.787   6.836   6.051  0.1030  1.7535 -0.2829
  114OSM   C14S11823   2.895   6.663   5.963 -1.0540  0.4658 -0.0212
  114OSM   H14S11824   2.844   6.571   6.000  0.0475 -1.2920 -2.5270
  114OSM   H14T11825   3.001   6.630   5.953 -0.9708  0.2329  1.4068
  114OSM   C15S11826   2.839   6.697   5.827  0.3785  0.0697  0.0620
  114OSM   H15S11827   2.863   6.804   5.810 -2.3278  0.8245  0.4748
  114OSM   H15T11828   2.729   6.689   5.836  0.5927 -2.8175  1.2145
  114OSM   C16S11829   2.886   6.615   5.708 -0.6135 -0.1504  0.0832
  114OSM   H16S11830   2.865   6.510   5.735 -0.7554  0.1403  1.1361
  114OSM   H16T11831   2.996   6.611   5.689 -0.8728 -0.1582 -1.5162
  114OSM   C17S11832   2.825   6.651   5.572 -0.2742  0.2508 -0.5288
  114OSM   H17S11833   2.872   6.747   5.543 -1.6848  0.9081 -0.7504
  114OSM   H17T11834   2.714   6.659   5.572 -0.3657 -0.4660  1.2967
  114OSM   C18S11835   2.868   6.556   5.462  0.5341 -0.0327  0.1006
  114OSM   H18S11836   2.846   6.601   5.363  0.4382  0.4271  0.3248
  114OSM   H18T11837   2.795   6.472   5.469  0.0842  0.1555 -1.8985
  114OSM   H18U11838   2.972   6.518   5.457  1.0454  1.3753 -0.4331
  114OSM    C1F11839   3.501   6.636   6.710 -0.2765  0.2432 -0.3891
  114OSM     OF11840   3.563   6.552   6.780 -0.6051  0.1326 -0.2421
  114OSM    C2F11841   3.549   6.681   6.574  0.0123  0.3035 -0.5571
  114OSM    H2F11842   3.660   6.684   6.582 -0.1129  0.1611  2.9350
  114OSM    H2G11843   3.525   6.787   6.551 -1.8621 -0.2469 -1.2893
  114OSM    C3F11844   3.508   6.592   6.455 -0.8622  0.3786 -0.3022
  114OSM    H3F11845   3.401   6.598   6.425 -0.5462  0.5349 -1.4426
  114OSM    H3G11846   3.532   6.484   6.473 -1.9725 -0.0023 -1.0386
  114OSM    C4F11847   3.565   6.637   6.314 -0.4518  0.2913 -0.6941
  114OSM    H4F11848   3.675   6.624   6.307 -0.4171 -0.2452  0.6023
  114OSM    H4G11849   3.547   6.747   6.304  1.1222  0.4907 -1.6215
  114OSM    C5F11850   3.484   6.565   6.201  0.2876 -0.8530  0.5151
  114OSM    H5F11851   3.378   6.557   6.234  0.3973 -1.9875  0.6334
  114OSM    H5G11852   3.514   6.458   6.204  0.6150 -0.8698 -1.9816
  114OSM    C6F11853   3.506   6.624   6.058 -0.4317  0.4356  0.7014
  114OSM    H6F11854   3.474   6.730   6.054  0.0952  0.5934  0.6199
  114OSM    H6G11855   3.434   6.569   5.993  0.8006  1.1282 -1.3218
  114OSM    C7F11856   3.644   6.593   6.014 -0.0226 -0.0969 -0.0008
  114OSM    H7F11857   3.669   6.503   6.074 -1.4474 -0.9207 -0.5996
  114OSM    H7G11858   3.710   6.680   6.036 -2.3965  2.1475 -1.2825
  114OSM    C8F11859   3.663   6.551   5.865 -1.0748  1.1192  0.0408
  114OSM    H8F11860   3.594   6.466   5.848  0.7531 -1.1988  3.1033
  114OSM    H8G11861   3.764   6.512   5.841 -1.2057  0.0874  1.0946
  114OSM    C9F11862   3.634   6.673   5.789 -0.3749  0.0368  0.0808
  114OSM    H9F11863   3.712   6.749   5.807 -0.5347  0.4558 -0.9555
  114OSM   C10F11864   3.539   6.695   5.695 -0.0290 -0.1093 -0.9274
  114OSM   H10F11865   3.534   6.787   5.634  1.1371 -0.2236 -1.2210
  114OSM   C11F11866   3.436   6.601   5.639  0.5723  0.4475  0.5324
  114OSM   H11F11867   3.336   6.647   5.622  0.1358  0.3369  2.5987
  114OSM   H11G11868   3.409   6.523   5.712 -0.9544  1.1420  0.7548
  114OSM   C12F11869   3.481   6.524   5.512  0.1094 -0.6496 -0.0902
  114OSM   H12F11870   3.561   6.453   5.540 -0.4430 -1.3008 -0.1219
  114OSM   H12G11871   3.511   6.598   5.435 -2.6484 -0.3289 -0.9841
  114OSM   C13F11872   3.371   6.434   5.439 -0.1294  0.6025  0.7210
  114OSM   H13F11873   3.405   6.405   5.337 -1.5581  1.3426  0.0047
  114OSM   H13G11874   3.282   6.497   5.419 -0.0618  0.1917 -1.1023
  114OSM   C14F11875   3.320   6.315   5.513  0.1832  0.0440 -0.7371
  114OSM   H14F11876   3.239   6.264   5.456 -2.1823  2.6864  0.0197
  114OSM   H14G11877   3.281   6.347   5.612  0.5994  0.1846 -0.6151
  114OSM   C15F11878   3.431   6.206   5.540  0.2027  0.0381  0.2560
  114OSM   H15F11879   3.516   6.256   5.590  0.6887 -1.5144  1.0578
  114OSM   H15G11880   3.471   6.167   5.444 -0.2231 -0.6523  0.3493
  114OSM   C16F11881   3.379   6.102   5.633 -0.4651  0.4677 -0.7911
  114OSM   H16F11882   3.320   6.025   5.579 -0.9553 -0.5522  1.1082
  114OSM   H16G11883   3.307   6.149   5.704  0.5748  0.6504  0.1643
  114OSM   C17F11884   3.489   6.020   5.705  0.2696 -0.1247 -0.8758
  114OSM   H17F11885   3.534   6.103   5.763  1.9217 -1.5939  0.0091
  114OSM   H17G11886   3.570   5.980   5.641  3.0410  1.1068  1.6504
  114OSM   C18F11887   3.429   5.912   5.793  0.4385  0.3724 -0.3677
  114OSM   H18F11888   3.495   5.880   5.876 -1.3677 -0.4666  0.7936
  114OSM   H18G11889   3.388   5.824   5.740 -1.9549  0.4276  1.2527
  114OSM   H18H11890   3.335   5.947   5.842 -1.4456  0.3904 -3.6754
  115OSM      N11891   5.992   1.899   7.484 -0.1027  0.0921 -0.2158
  115OSM    C1511892   5.859   1.923   7.544  1.3891 -0.7792 -0.8307
  115OSM   H15A11893   5.857   1.992   7.627  3.7781 -0.4087 -1.0041
  115OSM   H15B11894   5.808   1.833   7.574  0.0027  0.4918  0.8333
  115OSM   H15C11895   5.795   1.971   7.471  1.4892  0.4054 -0.1630
  115OSM    C1411896   6.059   2.035   7.466 -0.3068 -0.1965  0.2076
  115OSM   H14A11897   6.013   2.091   7.387 -0.0903  1.4753  1.2297
  115OSM   H14B11898   6.166   2.026   7.448 -0.2913 -0.7578  0.5611
  115OSM   H14C11899   6.042   2.089   7.558  1.3318 -0.3871  0.6659
  115OSM    C1311900   6.070   1.811   7.579 -0.5033 -0.7435 -0.1793
  115OSM   H13A11901   6.101   1.858   7.671 -0.1667  0.1965 -0.7635
  115OSM   H13B11902   6.158   1.774   7.527  0.2588  0.5891  0.1143
  115OSM   H13C11903   6.006   1.732   7.615 -1.6798 -0.0727 -0.7688
  115OSM    C1211904   5.982   1.817   7.360  0.5733 -0.3608  0.3939
  115OSM   H12A11905   5.943   1.721   7.388 -1.8186  0.5078  0.3142
  115OSM   H12B11906   6.079   1.796   7.317  0.6297  0.4744  0.0800
  115OSM    C1111907   5.889   1.866   7.248 -1.1495 -0.4578 -0.1430
  115OSM   H11A11908   5.899   1.796   7.163  1.9588 -1.1898  0.6910
  115OSM   H11B11909   5.921   1.967   7.216 -4.6648  0.8565  0.0504
  115OSM      P11910   5.650   1.755   7.270  0.3782 -0.0933  0.4698
  115OSM    O1311911   5.716   1.632   7.324 -0.2301 -0.1918  0.9122
  115OSM    O1411912   5.512   1.780   7.309  0.5135 -0.5658  0.0501
  115OSM    O1111913   5.653   1.750   7.114 -0.2406  0.0389  0.2171
  115OSM    O1211914   5.757   1.873   7.294  0.1364 -0.4900 -0.2057
  115OSM    C1S11915   5.657   1.875   7.036 -0.1456 -0.4577  0.8919
  115OSM    H1S11916   5.722   1.955   7.078  2.3615 -1.6902 -0.4305
  115OSM    H1T11917   5.556   1.912   7.011  0.2714 -0.2869 -0.5999
  115OSM     NF11918   5.735   1.979   6.815 -0.0405  0.3596 -0.8366
  115OSM    HNF11919   5.662   1.993   6.748 -1.0128  1.4118  0.3959
  115OSM    C2S11920   5.722   1.852   6.888 -0.2933  0.6796 -0.1841
  115OSM    H2S11921   5.824   1.811   6.898 -0.7337 -0.4054 -0.0838
  115OSM    C3S11922   5.630   1.747   6.825  0.3934 -0.1623 -0.5442
  115OSM    H3S11923   5.526   1.786   6.830 -0.5377 -2.5119 -0.0965
  115OSM     O311924   5.641   1.626   6.894  0.3678  0.2945  0.5241
  115OSM    HO311925   5.633   1.662   6.983 -1.6018  2.9298 -0.5787
  115OSM    C4S11926   5.658   1.722   6.678 -1.0302 -1.0935 -0.8170
  115OSM    H4S11927   5.763   1.704   6.653 -0.8205  0.6199 -1.3547
  115OSM    C5S11928   5.556   1.710   6.587 -0.0449 -0.3766 -0.4463
  115OSM    H5S11929   5.458   1.722   6.634  0.0383  0.3332 -0.4408
  115OSM    C6S11930   5.570   1.693   6.438  0.0891  0.0955  0.1319
  115OSM    H6S11931   5.498   1.760   6.387  1.4545  2.1754  0.8393
  115OSM    H6T11932   5.534   1.591   6.409  0.2334  0.6337 -2.1579
  115OSM    C7S11933   5.711   1.713   6.384 -0.5649  0.9675 -0.2575
  115OSM    H7S11934   5.773   1.636   6.434 -1.9568  0.9332  1.5506
  115OSM    H7T11935   5.757   1.809   6.417 -2.7805  1.8734  0.4131
  115OSM    C8S11936   5.723   1.696   6.236  0.2976 -0.2325 -0.0004
  115OSM    H8S11937   5.653   1.768   6.190  0.8373 -0.9548 -2.0557
  115OSM    H8T11938   5.685   1.596   6.207 -0.0917 -0.0766 -0.0341
  115OSM    C9S11939   5.866   1.713   6.180  0.3638 -0.2586  0.2091
  115OSM    H9S11940   5.949   1.673   6.242  0.4818  0.8601  0.7970
  115OSM    H9T11941   5.881   1.823   6.177 -1.8958  0.0770 -0.9285
  115OSM   C10S11942   5.879   1.644   6.047  0.1370  0.4916  0.5568
  115OSM   H10S11943   5.889   1.536   6.073 -1.9656  0.5770  1.9882
  115OSM   H10T11944   5.978   1.673   6.007  0.7831 -0.7897  1.1612
  115OSM   C11S11945   5.773   1.681   5.944  0.0920 -0.5908 -0.8708
  115OSM   H11S11946   5.785   1.790   5.933  2.2610 -0.6973 -0.0243
  115OSM   H11T11947   5.673   1.670   5.990  0.5275  0.6758  0.4361
  115OSM   C12S11948   5.782   1.625   5.804 -0.1704 -0.0382 -0.3620
  115OSM   H12S11949   5.707   1.670   5.736 -1.3303 -0.4127  0.6404
  115OSM   H12T11950   5.752   1.518   5.809 -0.2923 -0.0957 -1.8158
  115OSM   C13S11951   5.924   1.641   5.741  0.6383 -0.2423 -0.1394
  115OSM   H13S11952   5.992   1.605   5.821  0.2611 -1.8680 -0.5266
  115OSM   H13T11953   5.928   1.752   5.734  0.6032 -0.1281  1.4434
  115OSM   C14S11954   5.953   1.568   5.612  0.6169  0.2887 -0.5261
  115OSM   H14S11955   5.873   1.494   5.592  0.0510  0.9640 -0.7835
  115OSM   H14T11956   6.055   1.524   5.607  0.9225  1.0632 -1.4303
  115OSM   C15S11957   5.953   1.660   5.494  0.7018  0.2280  0.2328
  115OSM   H15S11958   6.031   1.735   5.519  2.4053 -2.0691  2.5056
  115OSM   H15T11959   5.847   1.692   5.498  0.6407  0.0256  0.2494
  115OSM   C16S11960   5.978   1.583   5.364 -0.3203 -0.1565 -0.3342
  115OSM   H16S11961   5.964   1.660   5.285  2.8360  1.2599  0.3273
  115OSM   H16T11962   5.897   1.507   5.356 -1.5765  0.8593  1.7510
  115OSM   C17S11963   6.108   1.508   5.346 -0.1903  0.3087 -0.1366
  115OSM   H17S11964   6.100   1.423   5.417 -0.2405 -0.1108 -0.6430
  115OSM   H17T11965   6.205   1.560   5.363  0.0295 -0.3375  0.6697
  115OSM   C18S11966   6.120   1.457   5.201  0.0483 -0.4491  0.1719
  115OSM   H18S11967   6.193   1.375   5.187  2.6919  1.7770  0.0096
  115OSM   H18T11968   6.151   1.544   5.139  0.2253 -0.6269  0.0099
  115OSM   H18U11969   6.016   1.425   5.176  0.3772 -2.3612  1.0817
  115OSM    C1F11970   5.836   2.059   6.833 -0.3795 -0.0318  0.0438
  115OSM     OF11971   5.938   2.026   6.887  0.2695 -0.3170  0.8813
  115OSM    C2F11972   5.823   2.205   6.771  0.1504  1.0638 -0.0281
  115OSM    H2F11973   5.865   2.276   6.845  1.1254  1.3879 -0.8532
  115OSM    H2G11974   5.716   2.230   6.754 -0.0054  1.6385  1.6051
  115OSM    C3F11975   5.924   2.214   6.660  0.6088 -0.3496  0.3641
  115OSM    H3F11976   5.902   2.138   6.582 -2.7310 -1.0950  1.8505
  115OSM    H3G11977   6.026   2.193   6.698  0.3689 -2.4047 -0.0366
  115OSM    C4F11978   5.934   2.358   6.609 -0.7264  0.4316 -0.0567
  115OSM    H4F11979   5.943   2.423   6.699  2.1499  0.3360 -0.1711
  115OSM    H4G11980   5.835   2.387   6.568 -1.4670 -2.6776 -0.7117
  115OSM    C5F11981   6.045   2.392   6.513  0.0639  0.2143  0.5245
  115OSM    H5F11982   6.138   2.349   6.556 -0.1435 -1.2000 -0.3827
  115OSM    H5G11983   6.052   2.502   6.504 -1.8527  0.1860 -4.0528
  115OSM    C6F11984   6.016   2.349   6.361 -0.5214  0.0936 -0.3685
  115OSM    H6F11985   6.086   2.397   6.290 -0.5804 -0.4151 -0.7752
  115OSM    H6G11986   5.916   2.390   6.337  0.4966  1.6606 -2.1898
  115OSM    C7F11987   6.029   2.198   6.338  0.4012 -0.2645  0.0258
  115OSM    H7F11988   5.939   2.142   6.369  1.7134 -3.4599 -1.4655
  115OSM    H7G11989   6.118   2.165   6.396  2.0896  2.0235 -1.0776
  115OSM    C8F11990   6.051   2.163   6.185 -0.4090 -0.4120 -0.1329
  115OSM    H8F11991   6.139   2.221   6.151  0.6543 -3.3239 -2.8556
  115OSM    H8G11992   5.964   2.188   6.119  0.3161  1.9025 -0.3158
  115OSM    C9F11993   6.086   2.017   6.165  0.0715 -0.4273 -0.0490
  115OSM    H9F11994   6.094   1.952   6.253 -1.6291 -1.3553 -0.5331
  115OSM   C10F11995   6.125   1.955   6.055 -0.7595 -0.1441  0.2232
  115OSM   H10F11996   6.164   1.853   6.069  2.3779  0.9195  0.0118
  115OSM   C11F11997   6.149   2.005   5.911  0.2229 -0.0879 -0.4360
  115OSM   H11F11998   6.063   2.000   5.841  1.1629 -1.1725 -1.5518
  115OSM   H11G11999   6.221   1.933   5.866 -0.0228  0.3062 -1.4752
  115OSM   C12F12000   6.206   2.148   5.901  0.1612 -0.4159 -0.0254
  115OSM   H12F12001   6.295   2.141   5.967  2.2506  0.7189 -2.5113
  115OSM   H12G12002   6.140   2.223   5.949 -0.6867 -0.7123 -0.7024
  115OSM   C13F12003   6.258   2.194   5.766 -0.0117 -0.4093 -0.3246
  115OSM   H13F12004   6.169   2.190   5.698 -1.2107  0.1895  1.1548
  115OSM   H13G12005   6.338   2.125   5.732  0.0076  0.3418 -1.9367
  115OSM   C14F12006   6.305   2.339   5.788  0.5735 -0.3704  0.2053
  115OSM   H14F12007   6.408   2.336   5.830  1.0923 -0.6193 -1.0182
  115OSM   H14G12008   6.238   2.396   5.855 -0.0492  1.6391 -1.9788
  115OSM   C15F12009   6.305   2.431   5.657 -0.2298 -0.0696  0.0074
  115OSM   H15F12010   6.201   2.427   5.618 -0.8563  0.0701  1.5652
  115OSM   H15G12011   6.371   2.383   5.582 -0.9143  0.9159 -1.2642
  115OSM   C16F12012   6.368   2.570   5.695  0.7712  0.2032 -0.1698
  115OSM   H16F12013   6.474   2.547   5.721  0.6135 -2.6170 -1.5704
  115OSM   H16G12014   6.310   2.613   5.779 -0.2226  0.6931 -1.0833
  115OSM   C17F12015   6.366   2.663   5.573  0.5895 -0.0267  0.0311
  115OSM   H17F12016   6.265   2.698   5.542  1.7551  2.4385 -1.2152
  115OSM   H17G12017   6.412   2.616   5.484  0.2648  1.1068 -0.7594
  115OSM   C18F12018   6.454   2.783   5.601  0.3802 -0.6921 -0.1123
  115OSM   H18F12019   6.431   2.868   5.532  1.5910  0.6937  1.1373
  115OSM   H18G12020   6.555   2.741   5.583 -0.0848 -1.6030 -0.6542
  115OSM   H18H12021   6.438   2.806   5.708 -2.9466  0.1486 -0.6571
  116OSM      N12022   3.361   5.928   7.236 -0.5065 -0.5051 -0.0051
  116OSM    C1512023   3.277   6.036   7.181 -0.3068 -0.0516 -0.2355
  116OSM   H15A12024   3.339   6.122   7.156 -0.1020  0.5961  2.2433
  116OSM   H15B12025   3.215   6.073   7.261  1.7504 -0.1786  1.5155
  116OSM   H15C12026   3.217   5.999   7.099  1.7402 -0.8602 -1.4573
  116OSM    C1412027   3.443   5.990   7.339 -0.8032 -0.4441 -0.9448
  116OSM   H14A12028   3.504   5.912   7.383  0.6011  0.8321 -0.5361
  116OSM   H14B12029   3.394   6.047   7.416  2.9939  0.2276  1.2531
  116OSM   H14C12030   3.521   6.054   7.300  0.0534  1.0645  2.8141
  116OSM    C1312031   3.262   5.821   7.284 -0.5403 -0.2511 -0.0991
  116OSM   H13A12032   3.184   5.872   7.339 -1.0179  0.5859 -1.4966
  116OSM   H13B12033   3.309   5.755   7.354 -0.9434 -1.2540 -0.7513
  116OSM   H13C12034   3.217   5.768   7.201 -1.0219  1.3442 -0.9032
  116OSM    C1212035   3.455   5.851   7.135  0.3640 -0.5514 -0.1341
  116OSM   H12A12036   3.521   5.917   7.082 -2.8588  1.3864 -2.0595
  116OSM   H12B12037   3.392   5.804   7.060 -0.1014 -0.7001  0.3478
  116OSM    C1112038   3.536   5.736   7.196  0.4178  0.1139  0.3986
  116OSM   H11A12039   3.567   5.664   7.117 -0.3008 -0.1599  0.3592
  116OSM   H11B12040   3.490   5.663   7.265 -0.5425  0.6697  0.3608
  116OSM      P12041   3.789   5.802   7.210 -0.3028 -0.0460  0.1358
  116OSM    O1312042   3.869   5.891   7.300 -0.4981  0.5728 -0.2494
  116OSM    O1412043   3.835   5.659   7.192  0.4669 -0.4024  0.2796
  116OSM    O1112044   3.775   5.885   7.076  0.3591  0.2702  0.2099
  116OSM    O1212045   3.647   5.798   7.265 -0.3808  0.4317 -0.7594
  116OSM    C1S12046   3.778   5.813   6.953 -0.5260  0.9128  0.1522
  116OSM    H1S12047   3.722   5.717   6.947 -0.1502  0.7434 -0.8760
  116OSM    H1T12048   3.885   5.791   6.931 -0.7861  1.7989 -2.2703
  116OSM     NF12049   3.724   5.816   6.709 -0.3025 -0.1612  0.4801
  116OSM    HNF12050   3.799   5.819   6.644  1.1223  0.8384  2.0828
  116OSM    C2S12051   3.734   5.899   6.831 -0.5025 -0.2496  0.3647
  116OSM    H2S12052   3.637   5.943   6.861  0.2618 -0.6048  3.9010
  116OSM    C3S12053   3.829   6.015   6.815  0.0377 -0.2084  0.0440
  116OSM    H3S12054   3.922   5.987   6.759  0.7835 -0.3917  1.3389
  116OSM     O312055   3.892   6.066   6.934 -0.2521 -0.3540 -0.1473
  116OSM    HO312056   3.848   6.014   7.002  1.9678 -2.5054 -0.2535
  116OSM    C4S12057   3.768   6.136   6.747 -0.1462 -0.1450 -0.5594
  116OSM    H4S12058   3.719   6.199   6.824  1.3633 -1.3785  1.5138
  116OSM    C5S12059   3.794   6.174   6.621  0.5085 -0.2359 -0.1729
  116OSM    H5S12060   3.853   6.108   6.555 -1.1927 -1.9159 -0.1156
  116OSM    C6S12061   3.750   6.303   6.555 -0.1690 -0.2249  0.2367
  116OSM    H6S12062   3.721   6.377   6.633  1.0223 -1.1159  1.5885
  116OSM    H6T12063   3.665   6.284   6.486 -1.8854 -1.3296  2.5259
  116OSM    C7S12064   3.859   6.357   6.465 -0.6932 -0.3541 -0.1395
  116OSM    H7S12065   3.949   6.379   6.527  0.9808 -1.6354 -2.0034
  116OSM    H7T12066   3.822   6.450   6.417 -2.0662 -1.8927 -2.2106
  116OSM    C8S12067   3.896   6.259   6.353  0.0838 -1.1226  0.3322
  116OSM    H8S12068   3.800   6.215   6.319 -1.6498  1.1760  1.9131
  116OSM    H8T12069   3.968   6.181   6.387  2.8840  1.7655  1.6193
  116OSM    C9S12070   3.967   6.327   6.236 -0.2997  0.1133 -0.3759
  116OSM    H9S12071   4.061   6.372   6.274 -1.0610  0.9905  0.5062
  116OSM    H9T12072   3.909   6.414   6.199  0.7517  0.1431 -2.0871
  116OSM   C10S12073   3.999   6.229   6.117  0.0304 -0.3293 -0.9628
  116OSM   H10S12074   3.905   6.173   6.094  0.0486 -1.1880  0.8640
  116OSM   H10T12075   4.073   6.157   6.160  0.3189  0.2580 -0.4666
  116OSM   C11S12076   4.059   6.283   5.984 -0.4500  0.1136 -0.1027
  116OSM   H11S12077   4.154   6.337   6.004  0.1954 -1.1505  0.3593
  116OSM   H11T12078   3.988   6.358   5.942  0.1288  1.1132  0.6448
  116OSM   C12S12079   4.087   6.168   5.891 -0.4342  0.5726  0.0747
  116OSM   H12S12080   3.991   6.117   5.867  0.3697 -0.3046 -1.4354
  116OSM   H12T12081   4.147   6.080   5.923  1.8213  1.7378 -0.7575
  116OSM   C13S12082   4.157   6.207   5.761  0.5123  0.2394 -0.4440
  116OSM   H13S12083   4.197   6.121   5.703  0.2567 -0.3897  0.3006
  116OSM   H13T12084   4.250   6.268   5.775 -0.4175  1.5025  0.4637
  116OSM   C14S12085   4.070   6.298   5.669  0.5810  0.2453 -0.5352
  116OSM   H14S12086   4.147   6.325   5.593  1.1658  0.9165  0.2841
  116OSM   H14T12087   4.032   6.389   5.719  1.2044 -0.7662  1.9505
  116OSM   C15S12088   3.963   6.217   5.590  0.0164  0.8870 -0.1844
  116OSM   H15S12089   3.883   6.178   5.655  1.1883 -1.1956  0.1000
  116OSM   H15T12090   4.015   6.130   5.544 -1.3968  0.5360 -1.1873
  116OSM   C16S12091   3.895   6.304   5.483  0.2927 -0.7063 -0.0272
  116OSM   H16S12092   3.958   6.342   5.400  0.4675 -0.4823  0.2068
  116OSM   H16T12093   3.859   6.392   5.540  1.6302 -0.8178  1.0731
  116OSM   C17S12094   3.783   6.224   5.418  0.5770  0.2087 -0.2016
  116OSM   H17S12095   3.703   6.286   5.372 -1.4030 -1.3910  0.9275
  116OSM   H17T12096   3.727   6.164   5.493 -1.9267  1.3500 -1.0603
  116OSM   C18S12097   3.837   6.131   5.306  0.3449 -0.3792 -0.6243
  116OSM   H18S12098   3.939   6.100   5.337  0.3758 -1.7769 -2.0257
  116OSM   H18T12099   3.840   6.179   5.205 -2.5726  1.5545  0.0887
  116OSM   H18U12100   3.780   6.036   5.299  1.3692 -1.0404 -0.1963
  116OSM    C1F12101   3.629   5.726   6.693 -0.0887  0.7308 -0.7513
  116OSM     OF12102   3.544   5.708   6.782 -0.3519 -0.4774 -0.0467
  116OSM    C2F12103   3.632   5.650   6.561  0.0768 -0.3943 -0.0873
  116OSM    H2F12104   3.686   5.554   6.574 -0.1174 -0.4932 -0.0085
  116OSM    H2G12105   3.697   5.706   6.490 -2.2574  1.2971 -1.0340
  116OSM    C3F12106   3.495   5.628   6.495 -0.0011 -0.1908  0.1374
  116OSM    H3F12107   3.460   5.727   6.458  2.2487  0.8162  0.5812
  116OSM    H3G12108   3.423   5.575   6.562  0.2206  0.7937  1.1776
  116OSM    C4F12109   3.505   5.521   6.376 -0.8349 -0.7010 -0.3400
  116OSM    H4F12110   3.559   5.427   6.401  3.1148  1.0461 -1.4248
  116OSM    H4G12111   3.574   5.563   6.300  0.6769  0.7123  1.7033
  116OSM    C5F12112   3.368   5.473   6.337 -0.1436 -0.4878 -0.2361
  116OSM    H5F12113   3.289   5.548   6.321 -2.0358 -2.5298 -1.0121
  116OSM    H5G12114   3.337   5.398   6.413  3.4179 -3.3060 -1.2289
  116OSM    C6F12115   3.373   5.391   6.207 -0.3837 -0.4486  0.4870
  116OSM    H6F12116   3.274   5.341   6.201  0.2328 -1.7298  0.8689
  116OSM    H6G12117   3.453   5.315   6.209  1.8444  1.7108 -0.9942
  116OSM    C7F12118   3.380   5.479   6.069  0.0490  0.4529 -0.8232
  116OSM    H7F12119   3.379   5.401   5.990 -1.0535 -0.5909  0.1806
  116OSM    H7G12120   3.480   5.524   6.051 -0.3370  1.6410 -0.1174
  116OSM    C8F12121   3.272   5.579   6.030  0.9180 -0.1182 -0.1914
  116OSM    H8F12122   3.181   5.515   6.036  1.1014 -0.2415  2.5820
  116OSM    H8G12123   3.277   5.611   5.924  0.3102 -1.5925 -0.6992
  116OSM    C9F12124   3.253   5.710   6.108 -0.5345 -0.1598  0.2446
  116OSM    H9F12125   3.348   5.732   6.160 -1.0301  0.8911  0.7216
  116OSM   C10F12126   3.144   5.792   6.130  0.9116  0.2839 -0.3052
  116OSM   H10F12127   3.156   5.873   6.204  1.5228 -0.7819  0.7918
  116OSM   C11F12128   3.001   5.763   6.079 -0.3368  0.1898  0.0370
  116OSM   H11F12129   2.932   5.843   6.111 -1.1442 -0.5004  0.0659
  116OSM   H11G12130   2.967   5.676   6.139  3.1775 -0.2419  1.6529
  116OSM   C12F12131   2.971   5.732   5.920 -0.5288  0.0926  0.0743
  116OSM   H12F12132   2.862   5.713   5.933 -0.1027 -2.1166  0.8670
  116OSM   H12G12133   3.017   5.637   5.884  0.6027 -0.9067  3.6997
  116OSM   C13F12134   3.007   5.847   5.833 -0.1955 -0.5963 -0.1438
  116OSM   H13F12135   3.118   5.851   5.840 -0.2327  0.3675  0.1219
  116OSM   H13G12136   2.973   5.948   5.865  0.8501 -0.8458  1.9619
  116OSM   C14F12137   2.963   5.840   5.685 -0.6684  0.5337 -0.0926
  116OSM   H14F12138   2.853   5.840   5.673 -0.4342  1.7412 -3.1182
  116OSM   H14G12139   2.994   5.737   5.658 -1.4743  0.4433 -0.7026
  116OSM   C15F12140   3.008   5.938   5.579  0.5486  0.2780 -0.1742
  116OSM   H15F12141   3.002   5.885   5.482 -0.3665 -0.3337  0.2039
  116OSM   H15G12142   3.116   5.962   5.589  1.4150 -2.5566 -1.6457
  116OSM   C16F12143   2.933   6.069   5.589 -0.2106 -0.3468 -0.3405
  116OSM   H16F12144   2.984   6.135   5.516  0.4717  0.6196  0.9701
  116OSM   H16G12145   2.939   6.128   5.682 -0.1880  0.3973 -0.8065
  116OSM   C17F12146   2.784   6.069   5.556  0.4915 -0.5099  0.1806
  116OSM   H17F12147   2.727   6.037   5.646  4.0251  1.8318  3.5537
  116OSM   H17G12148   2.778   5.997   5.472  0.9902  1.3473 -1.5115
  116OSM   C18F12149   2.721   6.203   5.514  0.4165  0.1092 -0.1717
  116OSM   H18F12150   2.631   6.171   5.457  0.2608 -0.1615  0.2183
  116OSM   H18G12151   2.785   6.265   5.447  2.0501 -0.2869  0.9549
  116OSM   H18H12152   2.687   6.258   5.604 -1.8416 -0.5661 -0.5381
  117OSM      N12153   2.470   1.940   7.039 -0.0951 -0.1025  0.1513
  117OSM    C1512154   2.618   1.926   7.028  0.1095 -0.4232  0.6344
  117OSM   H15A12155   2.638   1.846   6.958 -1.0776  0.5191 -0.8617
  117OSM   H15B12156   2.668   1.901   7.120  0.9289 -0.3091  0.2286
  117OSM   H15C12157   2.666   2.010   6.981 -1.4078 -0.0550 -0.3310
  117OSM    C1412158   2.426   1.792   7.044 -0.4851 -0.2665  0.4050
  117OSM   H14A12159   2.479   1.746   7.126 -0.5758  1.9061  1.7764
  117OSM   H14B12160   2.457   1.734   6.958  1.3676 -0.2457  1.0083
  117OSM   H14C12161   2.319   1.787   7.054 -0.5164  0.5306  0.5669
  117OSM    C1312162   2.417   2.006   7.160 -0.7008  0.0501 -0.4367
  117OSM   H13A12163   2.459   2.105   7.158 -1.8443  0.5902  0.7121
  117OSM   H13B12164   2.447   1.960   7.253 -3.5060  0.8832  0.9923
  117OSM   H13C12165   2.310   2.011   7.140 -0.5265  3.2500 -1.0892
  117OSM    C1212166   2.407   2.004   6.920 -0.1574 -0.4533 -0.2453
  117OSM   H12A12167   2.300   1.990   6.922 -0.1056 -0.8232  0.0290
  117OSM   H12B12168   2.445   1.941   6.841  0.0859 -0.5247 -0.0728
  117OSM    C1112169   2.437   2.152   6.883 -0.0058 -0.3072 -0.0455
  117OSM   H11A12170   2.388   2.167   6.785  0.4995 -0.5087 -0.3355
  117OSM   H11B12171   2.546   2.162   6.863 -0.4373  1.8941 -1.5662
  117OSM      P12172   2.240   2.275   6.986  0.0720 -0.0779 -0.2833
  117OSM    O1312173   2.178   2.144   7.005 -0.1124 -0.1557 -0.1922
  117OSM    O1412174   2.213   2.374   7.091  0.5272 -0.0965  0.4291
  117OSM    O1112175   2.206   2.337   6.850  0.8225  0.2482 -0.0728
  117OSM    O1212176   2.389   2.245   6.985 -0.1450 -0.0271  0.3408
  117OSM    C1S12177   2.267   2.443   6.783  0.4763 -0.1414 -0.0523
  117OSM    H1S12178   2.374   2.413   6.773  0.3972  0.3383 -3.2072
  117OSM    H1T12179   2.253   2.540   6.835 -0.3409 -0.5333  0.4724
  117OSM     NF12180   2.285   2.574   6.582 -0.1871 -0.1123  0.4436
  117OSM    HNF12181   2.240   2.663   6.588  0.6603  0.2371  2.3672
  117OSM    C2S12182   2.210   2.464   6.641 -0.7989 -0.0487  0.2866
  117OSM    H2S12183   2.239   2.374   6.583 -3.8676 -1.8913  1.4149
  117OSM    C3S12184   2.062   2.476   6.639  0.5832 -0.4194  0.1999
  117OSM    H3S12185   2.030   2.579   6.666  0.2107 -0.7724  1.1293
  117OSM     O312186   1.984   2.387   6.721  0.0917  0.5368 -0.2460
  117OSM    HO312187   2.052   2.370   6.786  0.6739  2.5102 -0.2672
  117OSM    C4S12188   2.016   2.458   6.499  0.2394  0.3973 -0.3505
  117OSM    H4S12189   2.020   2.357   6.455 -0.4925 -0.1297  0.7428
  117OSM    C5S12190   1.953   2.554   6.439  0.1292 -0.0427  0.5788
  117OSM    H5S12191   1.953   2.652   6.490  1.6812 -0.8898  2.3116
  117OSM    C6S12192   1.883   2.551   6.303 -0.6752  0.4214  0.0647
  117OSM    H6S12193   1.899   2.644   6.245 -0.8049  0.3445 -0.0939
  117OSM    H6T12194   1.775   2.528   6.315 -0.6558 -1.2882 -2.3646
  117OSM    C7S12195   1.937   2.445   6.213 -0.4481  0.4039  0.3012
  117OSM    H7S12196   1.894   2.354   6.259  1.1767 -0.6212 -0.1376
  117OSM    H7T12197   2.047   2.432   6.216 -0.6544 -1.9689 -0.3464
  117OSM    C8S12198   1.899   2.452   6.062  0.4378 -0.4291  0.1153
  117OSM    H8S12199   1.976   2.517   6.016  3.5748 -4.2799 -0.6688
  117OSM    H8T12200   1.802   2.496   6.030 -0.1260 -1.3906  0.4402
  117OSM    C9S12201   1.925   2.319   5.991  0.1325  0.2810 -0.5428
  117OSM    H9S12202   1.849   2.243   6.022  2.8473 -2.9775 -1.2834
  117OSM    H9T12203   2.013   2.271   6.039 -1.3203 -1.3685  0.6097
  117OSM   C10S12204   1.931   2.321   5.836  0.0226 -0.2760 -0.6429
  117OSM   H10S12205   2.023   2.375   5.806  0.0812 -2.0066 -4.2165
  117OSM   H10T12206   1.843   2.372   5.790  0.4955 -0.0035 -1.2652
  117OSM   C11S12207   1.935   2.185   5.753  0.6291 -0.8757 -0.7342
  117OSM   H11S12208   1.845   2.129   5.786  0.0606  0.8861  0.8510
  117OSM   H11T12209   2.023   2.128   5.788 -1.2650 -4.6483 -1.5835
  117OSM   C12S12210   1.953   2.205   5.605  0.9858  0.4700  0.1528
  117OSM   H12S12211   2.036   2.275   5.582  0.5163  1.0576  0.2095
  117OSM   H12T12212   1.867   2.260   5.561 -0.3740 -1.7138 -0.0712
  117OSM   C13S12213   1.941   2.072   5.528  0.5048 -0.0024 -0.4651
  117OSM   H13S12214   1.845   2.034   5.569 -1.2453  4.5095  0.2951
  117OSM   H13T12215   2.027   2.005   5.547  1.2764  0.5953 -1.6868
  117OSM   C14S12216   1.941   2.086   5.369  0.0615  0.1157  0.4382
  117OSM   H14S12217   2.022   2.161   5.355  0.5632 -0.2186  1.4130
  117OSM   H14T12218   1.846   2.138   5.343  0.3607  0.7029  0.4908
  117OSM   C15S12219   1.975   1.956   5.297 -0.0944  0.2751 -0.6025
  117OSM   H15S12220   1.897   1.887   5.336  1.0108 -0.5832  0.1724
  117OSM   H15T12221   2.074   1.909   5.318 -0.7168 -0.3437  1.1350
  117OSM   C16S12222   1.964   1.965   5.143 -0.5658 -0.1081 -0.2745
  117OSM   H16S12223   2.034   2.046   5.113  0.5991 -0.7067  0.7382
  117OSM   H16T12224   1.858   1.993   5.124 -0.7058 -0.4539 -0.0104
  117OSM   C17S12225   1.995   1.820   5.086  0.3064 -0.3034  0.4808
  117OSM   H17S12226   1.927   1.745   5.131 -0.5081  0.3928  0.4467
  117OSM   H17T12227   2.099   1.806   5.121  0.2397  1.5819  1.6166
  117OSM   C18S12228   1.980   1.815   4.934 -0.3900  0.2824  0.1635
  117OSM   H18S12229   1.933   1.721   4.898 -0.2359  0.2933 -0.0661
  117OSM   H18T12230   2.080   1.825   4.886 -0.6667 -1.2971 -0.8256
  117OSM   H18U12231   1.917   1.898   4.896  0.1310  0.2963 -0.6951
  117OSM    C1F12232   2.418   2.570   6.559  0.4490  0.1241 -0.6600
  117OSM     OF12233   2.471   2.461   6.560 -0.7678 -0.0048  0.3787
  117OSM    C2F12234   2.501   2.693   6.552  0.8569 -0.8708  0.1404
  117OSM    H2F12235   2.522   2.721   6.657  1.2691  1.3266 -0.4853
  117OSM    H2G12236   2.442   2.779   6.516  0.7506 -0.4203  1.3770
  117OSM    C3F12237   2.641   2.680   6.486 -0.7396  0.5155 -0.2535
  117OSM    H3F12238   2.692   2.591   6.527 -1.9250  0.0875  0.3330
  117OSM    H3G12239   2.691   2.776   6.513 -0.8419  1.3253 -2.6234
  117OSM    C4F12240   2.641   2.681   6.328 -0.4949 -0.9284  0.2454
  117OSM    H4F12241   2.585   2.774   6.307  1.5280 -0.1152 -1.9332
  117OSM    H4G12242   2.594   2.586   6.294  0.5844 -2.4512  2.7204
  117OSM    C5F12243   2.782   2.698   6.272 -0.4580  0.4830 -0.2751
  117OSM    H5F12244   2.841   2.614   6.315 -0.2699  1.8863  2.4310
  117OSM    H5G12245   2.824   2.794   6.308  2.7709 -0.6310 -0.7505
  117OSM    C6F12246   2.790   2.682   6.116 -0.6167  0.2398  0.4872
  117OSM    H6F12247   2.750   2.579   6.103 -0.7518  0.3521 -0.0070
  117OSM    H6G12248   2.893   2.677   6.075 -0.4311  0.2779  0.9468
  117OSM    C7F12249   2.697   2.779   6.036 -0.5534  0.5475 -0.6711
  117OSM    H7F12250   2.699   2.874   6.094 -1.3605 -1.3844  2.8385
  117OSM    H7G12251   2.597   2.736   6.057  1.2014 -2.3819  2.8933
  117OSM    C8F12252   2.732   2.783   5.887  0.4666 -0.1523 -0.1293
  117OSM    H8F12253   2.652   2.842   5.837 -0.3818 -0.0397  1.3161
  117OSM    H8G12254   2.736   2.683   5.839  1.6805 -0.3605  0.3656
  117OSM    C9F12255   2.859   2.849   5.844  0.3457 -0.6279  0.1140
  117OSM    H9F12256   2.938   2.856   5.921 -1.1649 -0.7991  1.7238
  117OSM   C10F12257   2.891   2.893   5.715 -0.1335  0.2310 -0.8735
  117OSM   H10F12258   2.989   2.941   5.700  0.0137 -0.1301 -1.0863
  117OSM   C11F12259   2.806   2.876   5.593  0.2560 -0.1550 -0.5678
  117OSM   H11F12260   2.704   2.849   5.628  0.5119 -1.4149 -0.7532
  117OSM   H11G12261   2.846   2.794   5.530 -1.5264 -1.3454 -0.2088
  117OSM   C12F12262   2.792   3.004   5.510  0.2360  0.4441 -0.7743
  117OSM   H12F12263   2.900   3.028   5.492  0.7704 -0.0245  1.5467
  117OSM   H12G12264   2.748   3.086   5.571 -1.5616  0.3054 -1.8106
  117OSM   C13F12265   2.723   2.982   5.374 -0.3094 -0.1497 -0.7709
  117OSM   H13F12266   2.629   2.926   5.389 -0.9955  0.5589 -2.1884
  117OSM   H13G12267   2.795   2.929   5.309  0.7044 -1.3220  1.2213
  117OSM   C14F12268   2.695   3.115   5.306  0.0615  0.1495 -0.3059
  117OSM   H14F12269   2.789   3.171   5.287 -0.0109  0.9536  1.5345
  117OSM   H14G12270   2.629   3.180   5.368 -0.5003  0.9460 -1.6968
  117OSM   C15F12271   2.637   3.106   5.169  0.0991 -0.2861 -0.2830
  117OSM   H15F12272   2.530   3.075   5.167 -0.0568  0.2575 -0.6834
  117OSM   H15G12273   2.688   3.021   5.121  1.4856 -0.7126  1.7878
  117OSM   C16F12274   2.631   3.245   5.096  0.1574 -0.4672  0.3695
  117OSM   H16F12275   2.736   3.280   5.082  0.3200 -0.3164  1.7534
  117OSM   H16G12276   2.584   3.328   5.153  1.0633  0.5009 -0.2463
  117OSM   C17F12277   2.576   3.246   4.955  0.9825  0.3426  0.1524
  117OSM   H17F12278   2.582   3.351   4.917  0.7979  0.2186 -0.2181
  117OSM   H17G12279   2.466   3.227   4.957  0.5163  2.5988 -0.6263
  117OSM   C18F12280   2.636   3.141   4.861  0.6814 -0.4257  0.3846
  117OSM   H18F12281   2.575   3.146   4.768 -0.3337  0.1453  1.0631
  117OSM   H18G12282   2.620   3.042   4.910 -0.4608 -0.0097  0.9005
  117OSM   H18H12283   2.742   3.167   4.841  1.1048 -0.1731  2.7317
  118OSM      N12284   3.082   0.773   7.137 -0.2769 -0.5619  0.4918
  118OSM    C1512285   3.085   0.628   7.137  0.3173 -0.0118 -0.0766
  118OSM   H15A12286   3.139   0.596   7.049  0.1688  1.2314 -0.6453
  118OSM   H15B12287   2.984   0.590   7.139  0.4948 -0.5665 -1.0450
  118OSM   H15C12288   3.139   0.596   7.225  1.5184  1.0698 -0.3977
  118OSM    C1412289   3.004   0.825   7.261 -0.3250 -0.1473 -0.5703
  118OSM   H14A12290   2.906   0.781   7.253 -0.3292 -0.3808  0.5976
  118OSM   H14B12291   2.996   0.933   7.261  1.5408  0.0289 -0.6094
  118OSM   H14C12292   3.056   0.798   7.352 -0.4734 -1.0388 -0.7445
  118OSM    C1312293   3.215   0.832   7.137  0.1362  0.2428 -0.3104
  118OSM   H13A12294   3.258   0.823   7.235  0.9753 -1.0918 -0.7806
  118OSM   H13B12295   3.223   0.939   7.119  1.4827 -0.2427 -3.1874
  118OSM   H13C12296   3.285   0.771   7.083 -0.5602 -1.7432  0.9437
  118OSM    C1212297   3.008   0.827   7.014 -1.1054  0.6457 -0.2793
  118OSM   H12A12298   2.912   0.778   7.016  0.2266 -2.1982 -1.1864
  118OSM   H12B12299   3.060   0.785   6.930 -2.0865 -0.8175 -0.1953
  118OSM    C1112300   2.991   0.978   6.991 -0.7005  0.2819  0.2599
  118OSM   H11A12301   2.928   0.984   6.899  1.0622  2.3904 -0.9084
  118OSM   H11B12302   3.091   1.015   6.959 -0.5423  0.6634  1.1805
  118OSM      P12303   2.768   1.043   7.107 -0.0696 -0.4124  0.2208
  118OSM    O1312304   2.728   0.900   7.107  0.5920 -0.4538 -0.3674
  118OSM    O1412305   2.727   1.129   7.221 -0.0432  0.2173 -0.1501
  118OSM    O1112306   2.713   1.112   6.974 -0.5228 -0.2874  0.1849
  118OSM    O1212307   2.926   1.052   7.097 -0.4367 -0.6575  0.8968
  118OSM    C1S12308   2.576   1.159   6.981 -0.3475  0.3173 -0.7754
  118OSM    H1S12309   2.573   1.266   7.011  3.2092  0.3593 -0.0981
  118OSM    H1T12310   2.518   1.096   7.051 -1.1423 -1.1375 -2.6480
  118OSM     NF12311   2.361   1.185   6.841  0.4522  0.2891 -0.8096
  118OSM    HNF12312   2.290   1.117   6.826  1.6510 -1.2111  0.0287
  118OSM    C2S12313   2.500   1.130   6.843 -0.4900  0.8382 -0.0310
  118OSM    H2S12314   2.558   1.190   6.769 -0.1762 -0.8668 -1.2377
  118OSM    C3S12315   2.514   0.985   6.795 -0.2780  0.0687  0.2168
  118OSM    H3S12316   2.470   0.924   6.877 -0.2641 -0.3857 -0.1124
  118OSM     O312317   2.649   0.951   6.782 -0.0319 -0.2372  0.6386
  118OSM    HO312318   2.693   1.025   6.825  0.5032  0.2881 -0.7542
  118OSM    C4S12319   2.464   0.970   6.657 -0.5556 -0.1900 -0.3472
  118OSM    H4S12320   2.491   1.058   6.597  0.6800  0.0018  0.4488
  118OSM    C5S12321   2.371   0.880   6.618  0.2642  0.4958 -0.4903
  118OSM    H5S12322   2.334   0.805   6.691 -1.1919  0.5107 -1.1715
  118OSM    C6S12323   2.302   0.865   6.485  0.1471  0.3869  0.5260
  118OSM    H6S12324   2.372   0.906   6.409  0.8818 -1.2718  0.2601
  118OSM    H6T12325   2.219   0.939   6.492  0.1637  0.3072  1.6439
  118OSM    C7S12326   2.242   0.728   6.448  0.3367 -0.4181 -0.4190
  118OSM    H7S12327   2.193   0.690   6.540  0.2535 -1.0167 -0.7065
  118OSM    H7T12328   2.329   0.660   6.435  0.8321 -0.0456  0.7559
  118OSM    C8S12329   2.155   0.738   6.322 -0.2600 -0.3089  0.0754
  118OSM    H8S12330   2.095   0.831   6.331 -2.3577 -1.5585 -0.2748
  118OSM    H8T12331   2.085   0.651   6.316 -1.1461  0.2655  1.6538
  118OSM    C9S12332   2.233   0.737   6.187  0.1586  0.3419 -0.1396
  118OSM    H9S12333   2.287   0.640   6.178  0.5517  0.4359  1.0442
  118OSM    H9T12334   2.311   0.815   6.185  0.3014  0.2390 -3.5183
  118OSM   C10S12335   2.142   0.744   6.066 -0.1693 -0.2478 -0.4912
  118OSM   H10S12336   2.083   0.837   6.054  0.1370 -0.0731 -0.6415
  118OSM   H10T12337   2.059   0.671   6.083 -1.1788  1.3170  2.0615
  118OSM   C11S12338   2.219   0.712   5.942  0.1449 -0.1384 -0.1758
  118OSM   H11S12339   2.273   0.615   5.944  2.7096  1.2135  0.4613
  118OSM   H11T12340   2.297   0.791   5.928 -0.3263  0.0570 -1.9837
  118OSM   C12S12341   2.136   0.736   5.820  0.1138 -0.2977  0.7907
  118OSM   H12S12342   2.102   0.842   5.812  1.4394  0.0488 -0.4985
  118OSM   H12T12343   2.040   0.680   5.827 -0.1228 -0.0786 -0.4459
  118OSM   C13S12344   2.211   0.689   5.691 -0.8018 -0.1658 -0.3521
  118OSM   H13S12345   2.246   0.583   5.696 -1.0327 -0.3623 -2.0169
  118OSM   H13T12346   2.308   0.742   5.694 -0.7987 -0.2179  0.4252
  118OSM   C14S12347   2.124   0.712   5.558 -0.5687  0.5197 -0.3114
  118OSM   H14S12348   2.079   0.813   5.560 -0.8399  0.4496  3.7805
  118OSM   H14T12349   2.047   0.632   5.551  0.9229 -1.0145  0.0866
  118OSM   C15S12350   2.210   0.702   5.432 -0.0789  0.5129 -0.6377
  118OSM   H15S12351   2.228   0.593   5.430 -2.7824 -0.0648  0.9715
  118OSM   H15T12352   2.302   0.764   5.441  1.9539 -2.4255  0.2427
  118OSM   C16S12353   2.142   0.732   5.301 -0.0322  0.0971  0.6637
  118OSM   H16S12354   2.048   0.676   5.286  0.8258 -0.8041 -1.9536
  118OSM   H16T12355   2.208   0.701   5.217 -0.8154 -0.4851  0.2500
  118OSM   C17S12356   2.120   0.890   5.280 -0.2144  0.2465 -0.5351
  118OSM   H17S12357   2.222   0.933   5.267  0.8946 -1.9059  0.4986
  118OSM   H17T12358   2.080   0.929   5.376  0.7297  1.4714 -0.6195
  118OSM   C18S12359   2.025   0.915   5.161  0.0269 -0.6212  0.6199
  118OSM   H18S12360   1.922   0.886   5.188  0.4586 -2.5170  0.3743
  118OSM   H18T12361   2.057   0.850   5.076 -0.4263  0.7072 -0.6235
  118OSM   H18U12362   2.037   1.023   5.137  0.2036  0.3117  4.3640
  118OSM    C1F12363   2.315   1.305   6.868 -0.3482 -0.0268 -1.3807
  118OSM     OF12364   2.389   1.397   6.905 -0.4515  0.3065  0.0294
  118OSM    C2F12365   2.167   1.330   6.852 -0.2984  0.1613 -0.0315
  118OSM    H2F12366   2.117   1.259   6.921  0.4227 -0.5695 -0.2516
  118OSM    H2G12367   2.131   1.296   6.753  2.5454 -2.4568 -0.3201
  118OSM    C3F12368   2.133   1.479   6.879 -0.2980 -0.3804 -0.0327
  118OSM    H3F12369   2.174   1.535   6.792 -0.9749 -1.1143 -0.8540
  118OSM    H3G12370   2.175   1.511   6.976 -1.8162  0.9298  0.2328
  118OSM    C4F12371   1.987   1.526   6.886 -0.3033 -0.3486  0.9321
  118OSM    H4F12372   1.979   1.635   6.908 -3.1082 -0.1651 -0.5848
  118OSM    H4G12373   1.940   1.490   6.979 -1.5877  1.2534  0.9616
  118OSM    C5F12374   1.914   1.494   6.755 -0.1909 -0.0421 -0.4472
  118OSM    H5F12375   1.908   1.383   6.769 -1.0485  0.0754  0.1916
  118OSM    H5G12376   1.984   1.518   6.672  1.2344 -0.9502  0.4410
  118OSM    C6F12377   1.774   1.564   6.751 -0.6432  0.2937  0.1941
  118OSM    H6F12378   1.792   1.674   6.741  1.8730 -0.0741  0.0014
  118OSM    H6G12379   1.727   1.551   6.850 -0.5335 -2.7092 -0.0613
  118OSM    C7F12380   1.689   1.510   6.638  0.2523 -0.3004 -0.5284
  118OSM    H7F12381   1.636   1.418   6.670 -5.0349  1.5695 -2.7286
  118OSM    H7G12382   1.749   1.468   6.554 -0.5032  1.1168 -1.8282
  118OSM    C8F12383   1.590   1.613   6.589  0.2604  0.5556 -0.3127
  118OSM    H8F12384   1.555   1.665   6.681  1.0715 -1.8983  1.4942
  118OSM    H8G12385   1.495   1.573   6.547  0.6365  1.1172 -1.7679
  118OSM    C9F12386   1.638   1.697   6.469  0.4699 -0.2759  0.7703
  118OSM    H9F12387   1.659   1.803   6.489 -0.3802  0.0740 -0.1635
  118OSM   C10F12388   1.642   1.670   6.337  0.1717  0.0789  0.0527
  118OSM   H10F12389   1.667   1.756   6.274  1.9819  1.5211  2.5842
  118OSM   C11F12390   1.590   1.538   6.269 -1.0937 -0.7568 -0.6486
  118OSM   H11F12391   1.525   1.482   6.339  0.1389  0.8535  1.9385
  118OSM   H11G12392   1.672   1.467   6.249  0.7475  0.5489  1.6858
  118OSM   C12F12393   1.512   1.570   6.140 -0.0541 -0.1517  0.0381
  118OSM   H12F12394   1.584   1.633   6.084  0.8222  1.6125  2.9331
  118OSM   H12G12395   1.423   1.632   6.166 -0.8963 -0.2854 -2.3144
  118OSM   C13F12396   1.477   1.448   6.050  0.2059  0.8862 -0.2913
  118OSM   H13F12397   1.442   1.361   6.111  0.9302  1.1766  0.5629
  118OSM   H13G12398   1.562   1.413   5.988  0.0363  1.5962 -0.9371
  118OSM   C14F12399   1.365   1.493   5.954 -0.2108  0.0494  1.0215
  118OSM   H14F12400   1.410   1.583   5.906 -3.3449  1.1209 -0.2016
  118OSM   H14G12401   1.278   1.522   6.017 -0.3017  0.4236  0.7280
  118OSM   C15F12402   1.319   1.397   5.843  0.1424 -0.1711  0.2742
  118OSM   H15F12403   1.296   1.295   5.881 -0.1500  0.5319  2.0991
  118OSM   H15G12404   1.399   1.370   5.771 -1.1050 -0.0813 -1.1971
  118OSM   C16F12405   1.208   1.463   5.750 -0.3540 -0.4270 -0.1754
  118OSM   H16F12406   1.257   1.560   5.725 -0.2344 -0.2373  0.7483
  118OSM   H16G12407   1.116   1.479   5.810 -1.0301  0.6278 -1.4470
  118OSM   C17F12408   1.196   1.378   5.617 -0.1296  0.7551  0.1446
  118OSM   H17F12409   1.147   1.281   5.642  0.3730 -0.3405 -2.7607
  118OSM   H17G12410   1.295   1.351   5.574 -0.7506 -1.5827  0.0168
  118OSM   C18F12411   1.117   1.439   5.504 -0.3170 -0.6088 -0.0498
  118OSM   H18F12412   1.079   1.542   5.523  0.2896 -0.3289 -0.3214
  118OSM   H18G12413   1.025   1.382   5.480 -1.3768  0.9850  0.1175
  118OSM   H18H12414   1.172   1.458   5.409 -3.5106  0.5177 -1.8125
  119OSM      N12415   3.499   4.052   7.407  0.1281 -0.1380 -0.0555
  119OSM    C1512416   3.506   3.946   7.516  0.5207 -0.0873 -0.1205
  119OSM   H15A12417   3.423   3.880   7.499 -0.4485  1.3374 -1.1593
  119OSM   H15B12418   3.505   3.983   7.617  0.4378 -0.6104  0.0727
  119OSM   H15C12419   3.596   3.888   7.501  1.1823  0.4305  1.5118
  119OSM    C1412420   3.629   4.130   7.425  0.0510 -0.5683 -0.3608
  119OSM   H14A12421   3.628   4.215   7.358  0.9828  0.8097  1.2826
  119OSM   H14B12422   3.722   4.076   7.411  2.3121  2.8485  0.2504
  119OSM   H14C12423   3.637   4.179   7.521 -0.4695 -1.5736  0.2118
  119OSM    C1312424   3.496   3.999   7.265  0.2376 -0.7321 -0.0504
  119OSM   H13A12425   3.508   4.076   7.190  1.4942  0.2882  1.1393
  119OSM   H13B12426   3.403   3.946   7.248 -0.6193  0.8622 -0.5779
  119OSM   H13C12427   3.576   3.929   7.249 -1.1333 -2.2638 -0.5078
  119OSM    C1212428   3.382   4.145   7.433  0.1758 -0.3232 -0.9503
  119OSM   H12A12429   3.386   4.182   7.534  0.3339 -1.9373 -0.3308
  119OSM   H12B12430   3.295   4.081   7.426  1.3199 -1.9733 -0.5508
  119OSM    C1112431   3.364   4.269   7.344 -0.1907 -0.3906 -0.2269
  119OSM   H11A12432   3.267   4.313   7.376  0.2953 -0.6680  1.7499
  119OSM   H11B12433   3.347   4.247   7.237  0.4691  1.9759 -0.8878
  119OSM      P12434   3.489   4.466   7.473  0.0526 -0.4886 -0.1293
  119OSM    O1312435   3.389   4.457   7.581  0.6866  0.3380 -0.2716
  119OSM    O1412436   3.629   4.452   7.515 -0.5290 -0.4608 -0.5616
  119OSM    O1112437   3.477   4.614   7.409 -0.0217  0.5546  0.7124
  119OSM    O1212438   3.464   4.362   7.354 -0.0755  0.0732  0.0594
  119OSM    C1S12439   3.561   4.662   7.302  0.5466 -0.3199  0.7021
  119OSM    H1S12440   3.657   4.607   7.290  0.6037 -0.2208  0.7002
  119OSM    H1T12441   3.586   4.768   7.327  2.8465 -0.9628  1.4093
  119OSM     NF12442   3.592   4.681   7.052  0.3392 -0.4200  0.2287
  119OSM    HNF12443   3.590   4.766   7.000  1.7510  0.8690  2.1592
  119OSM    C2S12444   3.494   4.656   7.154  0.0302 -0.0521 -0.3873
  119OSM    H2S12445   3.462   4.550   7.142  0.8157 -0.5399  1.4682
  119OSM    C3S12446   3.367   4.744   7.147  0.1100 -0.2512  0.2068
  119OSM    H3S12447   3.391   4.852   7.158 -1.7083  0.1885  0.1350
  119OSM     O312448   3.284   4.720   7.261  0.2504 -0.3334  0.7730
  119OSM    HO312449   3.346   4.694   7.330 -0.8621 -1.6409  1.3285
  119OSM    C4S12450   3.285   4.721   7.022  0.7475  0.0115  0.0372
  119OSM    H4S12451   3.269   4.616   6.995  0.2507 -0.6602  2.6859
  119OSM    C5S12452   3.242   4.815   6.939  0.4175 -0.5897 -0.4758
  119OSM    H5S12453   3.272   4.920   6.943  0.5370 -0.6459  0.2614
  119OSM    C6S12454   3.183   4.773   6.812  0.1854 -0.3157 -0.5554
  119OSM    H6S12455   3.148   4.864   6.758  2.2249  0.0909 -1.2891
  119OSM    H6T12456   3.088   4.717   6.821  0.8234 -1.4534 -0.6794
  119OSM    C7S12457   3.273   4.689   6.718  0.9557  0.0162  0.1916
  119OSM    H7S12458   3.217   4.676   6.623  1.6080 -3.1024  0.1233
  119OSM    H7T12459   3.292   4.587   6.757  0.0838  0.0016  0.6243
  119OSM    C8S12460   3.403   4.757   6.677  0.2512  0.1019 -1.0171
  119OSM    H8S12461   3.455   4.795   6.768  0.3723 -1.7579 -0.2661
  119OSM    H8T12462   3.390   4.848   6.614  0.4707  0.2788 -0.8072
  119OSM    C9S12463   3.515   4.660   6.615  0.4954  0.4855 -0.4473
  119OSM    H9S12464   3.514   4.572   6.683 -2.4571  1.8709  1.5043
  119OSM    H9T12465   3.615   4.707   6.618  1.5925 -1.5348 -2.5362
  119OSM   C10S12466   3.488   4.610   6.475  0.4787  1.2304 -0.4951
  119OSM   H10S12467   3.388   4.560   6.474  0.4023  1.3091  1.0043
  119OSM   H10T12468   3.555   4.523   6.459 -0.1826  0.1904  1.9511
  119OSM   C11S12469   3.495   4.726   6.377  0.5899  0.7747 -0.2520
  119OSM   H11S12470   3.449   4.815   6.426 -1.3538 -0.5426  0.4523
  119OSM   H11T12471   3.411   4.712   6.305 -0.5815  0.5671  1.0928
  119OSM   C12S12472   3.636   4.745   6.323  0.0166 -0.2144 -0.1216
  119OSM   H12S12473   3.713   4.736   6.402 -1.7430  0.4550  1.7628
  119OSM   H12T12474   3.637   4.850   6.287  2.5811 -0.5418 -1.2053
  119OSM   C13S12475   3.681   4.648   6.206 -0.3293 -0.1285  0.0394
  119OSM   H13S12476   3.609   4.632   6.123  2.3164 -1.6319 -2.1478
  119OSM   H13T12477   3.710   4.556   6.261  1.6923 -0.4310 -1.4122
  119OSM   C14S12478   3.802   4.708   6.132  0.2493 -0.1928 -0.6398
  119OSM   H14S12479   3.883   4.742   6.200  0.7674  2.9106 -2.6277
  119OSM   H14T12480   3.763   4.801   6.086 -4.6049 -2.1419 -0.9840
  119OSM   C15S12481   3.869   4.611   6.034  0.6645 -0.8502 -0.4450
  119OSM   H15S12482   3.792   4.568   5.966 -0.2932  0.1871 -0.0428
  119OSM   H15T12483   3.914   4.524   6.086  0.7978 -0.6943 -0.2962
  119OSM   C16S12484   3.972   4.681   5.946  0.7570  0.0444 -0.0156
  119OSM   H16S12485   3.910   4.746   5.880  1.1655 -0.3102 -0.7717
  119OSM   H16T12486   4.026   4.615   5.875  2.2674  0.6409  0.5312
  119OSM   C17S12487   4.083   4.757   6.015 -0.2245  0.1885  0.2746
  119OSM   H17S12488   4.051   4.827   6.095  1.9394 -0.6672  2.0167
  119OSM   H17T12489   4.130   4.828   5.944  0.0527  2.4767  2.6254
  119OSM   C18S12490   4.188   4.671   6.084  0.2473  0.3032  0.4333
  119OSM   H18S12491   4.231   4.611   6.001 -0.2256  2.6001 -1.6168
  119OSM   H18T12492   4.140   4.603   6.157  3.9273 -2.6234  0.4139
  119OSM   H18U12493   4.270   4.729   6.132 -1.3587  1.0460  2.3914
  119OSM    C1F12494   3.691   4.595   7.025 -0.0902 -0.3565 -0.1800
  119OSM     OF12495   3.712   4.493   7.087  0.7494  0.1398  0.0244
  119OSM    C2F12496   3.794   4.625   6.910 -0.4626  0.2287  0.3522
  119OSM    H2F12497   3.877   4.692   6.943  0.8925 -0.8020 -0.8275
  119OSM    H2G12498   3.746   4.680   6.826  0.7838  0.1223 -0.4602
  119OSM    C3F12499   3.872   4.505   6.852 -0.2403 -0.3593  0.1450
  119OSM    H3F12500   3.817   4.422   6.803  2.2136 -3.0959  1.7089
  119OSM    H3G12501   3.922   4.455   6.937 -1.8197 -0.2469  1.1607
  119OSM    C4F12502   3.960   4.551   6.734 -1.2455  0.5778 -0.6855
  119OSM    H4F12503   4.004   4.457   6.694 -2.1914  0.2753 -1.0503
  119OSM    H4G12504   4.045   4.616   6.765 -0.3809 -0.0715 -1.6159
  119OSM    C5F12505   3.894   4.617   6.612 -0.8062  0.5130 -0.1710
  119OSM    H5F12506   3.832   4.707   6.630 -0.5979  0.4206  1.1267
  119OSM    H5G12507   3.821   4.544   6.572 -1.8646  2.5363 -2.1411
  119OSM    C6F12508   3.988   4.652   6.495 -0.2524  0.0305 -0.4078
  119OSM    H6F12509   3.941   4.732   6.434 -1.1174 -1.3293 -1.5489
  119OSM    H6G12510   3.988   4.562   6.430 -0.3866  0.5745 -1.1756
  119OSM    C7F12511   4.139   4.677   6.535  0.5268  0.1502 -0.3687
  119OSM    H7F12512   4.177   4.574   6.555  1.5366  0.7186  0.7443
  119OSM    H7G12513   4.150   4.741   6.625 -0.6890  0.6416 -0.5539
  119OSM    C8F12514   4.220   4.740   6.418  0.1176  0.3442  0.1686
  119OSM    H8F12515   4.167   4.825   6.369  3.3417  1.6099 -1.3912
  119OSM    H8G12516   4.221   4.653   6.350 -0.9720  0.0074  0.5554
  119OSM    C9F12517   4.363   4.768   6.444 -0.4769 -0.0860 -0.0607
  119OSM    H9F12518   4.418   4.675   6.466 -0.7920 -0.7184 -1.7432
  119OSM   C10F12519   4.421   4.884   6.430  0.2897 -0.9314  0.2182
  119OSM   H10F12520   4.528   4.906   6.443  0.3424 -0.1124 -1.4438
  119OSM   C11F12521   4.345   5.013   6.401 -0.3349  0.2463 -0.2612
  119OSM   H11F12522   4.403   5.102   6.431 -1.5741  1.8583 -2.3855
  119OSM   H11G12523   4.257   5.018   6.468  2.1058  0.5310  3.1852
  119OSM   C12F12524   4.296   5.023   6.250 -0.0193  0.5320  0.2576
  119OSM   H12F12525   4.192   5.058   6.267 -0.5428 -1.4739  1.4962
  119OSM   H12G12526   4.295   4.919   6.209  1.3440  0.0168  1.4488
  119OSM   C13F12527   4.381   5.117   6.166  0.5581  0.5407  0.3169
  119OSM   H13F12528   4.489   5.092   6.157  0.3720  0.2253 -1.5806
  119OSM   H13G12529   4.371   5.219   6.208 -4.7230  0.7033 -0.5647
  119OSM   C14F12530   4.332   5.113   6.021 -0.1999 -0.5796 -0.2874
  119OSM   H14F12531   4.221   5.112   6.010 -0.5461 -2.0839  2.4210
  119OSM   H14G12532   4.385   5.031   5.969  1.3882  0.6550 -0.7067
  119OSM   C15F12533   4.396   5.241   5.961 -0.1114 -0.5067 -0.0291
  119OSM   H15F12534   4.506   5.228   5.974 -0.2814 -1.1766  0.8977
  119OSM   H15G12535   4.360   5.321   6.028 -2.0188 -1.5781  0.2934
  119OSM   C16F12536   4.358   5.255   5.821  0.2838  0.2163 -0.0151
  119OSM   H16F12537   4.249   5.278   5.816  0.0736 -0.9100 -2.5419
  119OSM   H16G12538   4.384   5.165   5.761  0.6246  0.2107  0.1379
  119OSM   C17F12539   4.435   5.373   5.755 -0.7828 -0.2165  0.3267
  119OSM   H17F12540   4.539   5.335   5.743 -0.9213 -0.4230 -0.2545
  119OSM   H17G12541   4.446   5.456   5.828  3.6129  0.5386 -0.8629
  119OSM   C18F12542   4.377   5.412   5.616 -0.3244  0.6478 -0.1706
  119OSM   H18F12543   4.459   5.476   5.577  0.7832 -0.6515 -0.0520
  119OSM   H18G12544   4.288   5.478   5.617 -1.7673 -1.1519 -2.3659
  119OSM   H18H12545   4.377   5.321   5.553 -1.6592  1.4642 -1.3825
  120OSM      N12546   0.347   3.074   6.977 -0.3565  0.0535 -0.0153
  120OSM    C1512547   0.289   3.195   7.043 -0.3595 -0.5526 -0.5076
  120OSM   H15A12548   0.260   3.172   7.145 -0.3511 -0.1254 -0.4038
  120OSM   H15B12549   0.198   3.216   6.990 -2.1978 -1.3959  2.0799
  120OSM   H15C12550   0.360   3.276   7.034  0.0667 -1.0652 -1.9929
  120OSM    C1412551   0.404   3.114   6.846 -0.4762  0.7432  0.7311
  120OSM   H14A12552   0.329   3.155   6.781 -0.7417 -1.5144 -0.4838
  120OSM   H14B12553   0.441   3.018   6.812  0.1294  0.3819  2.3075
  120OSM   H14C12554   0.488   3.182   6.856  0.3341 -0.0860 -0.1801
  120OSM    C1312555   0.459   3.037   7.073  0.0691 -0.2540 -0.0531
  120OSM   H13A12556   0.517   2.953   7.039 -2.3032 -1.0990 -2.3628
  120OSM   H13B12557   0.411   3.016   7.168 -3.3088 -0.7270 -1.6892
  120OSM   H13C12558   0.521   3.123   7.097 -2.6655  2.0340 -0.5660
  120OSM    C1212559   0.257   2.964   6.948  0.3687 -0.2733 -0.1168
  120OSM   H12A12560   0.306   2.888   6.888 -0.2333  1.3537 -2.8520
  120OSM   H12B12561   0.171   3.000   6.893 -0.1745 -0.5973  0.5008
  120OSM    C1112562   0.196   2.880   7.064 -0.3034  0.6371 -0.0359
  120OSM   H11A12563   0.131   2.940   7.131  0.6074 -0.7586  2.1955
  120OSM   H11B12564   0.276   2.833   7.124  0.3519  0.0101 -1.3591
  120OSM      P12565   0.070   2.639   7.040  0.5964  0.0979 -0.4064
  120OSM    O1312566   0.141   2.586   7.160 -0.2791  0.3475  0.1366
  120OSM    O1412567  -0.078   2.651   7.045 -0.7504 -0.8580  0.3184
  120OSM    O1112568   0.105   2.541   6.919  0.2377  0.6637 -0.3949
  120OSM    O1212569   0.128   2.775   6.995 -0.0058  0.2588 -0.1631
  120OSM    C1S12570   0.050   2.575   6.787  0.0288 -0.3585 -0.7205
  120OSM    H1S12571   0.101   2.662   6.740  2.1890 -1.6060 -0.8538
  120OSM    H1T12572  -0.060   2.583   6.787  0.1649  2.4242  0.3333
  120OSM     NF12573   0.112   2.508   6.537  0.0668  0.4450 -0.8835
  120OSM    HNF12574   0.036   2.486   6.476  0.0445 -2.0762 -0.0430
  120OSM    C2S12575   0.095   2.471   6.683 -0.2281  0.5227 -0.1261
  120OSM    H2S12576   0.198   2.445   6.713  0.3462  1.8642 -0.8370
  120OSM    C3S12577  -0.006   2.351   6.706  0.0062  0.3259 -0.5268
  120OSM    H3S12578  -0.113   2.377   6.689 -0.2973 -0.6937 -0.2372
  120OSM     O312579  -0.010   2.310   6.843  0.2151  0.3031  0.3116
  120OSM    HO312580   0.060   2.362   6.884  0.0302  1.0952 -0.3538
  120OSM    C4S12581   0.044   2.245   6.613  0.4085 -0.0887  0.2571
  120OSM    H4S12582  -0.016   2.234   6.521  1.2072 -2.0551 -0.0801
  120OSM    C5S12583   0.163   2.182   6.621  0.5184  0.2593  0.1784
  120OSM    H5S12584   0.234   2.200   6.703 -0.2110  1.0756  0.6624
  120OSM    C6S12585   0.204   2.083   6.514  1.2418  0.3630  0.5199
  120OSM    H6S12586   0.176   1.985   6.557 -0.9855  0.8675  0.3725
  120OSM    H6T12587   0.314   2.084   6.504  1.1508 -2.5927 -2.0588
  120OSM    C7S12588   0.141   2.100   6.378  0.3751  0.1595 -0.0399
  120OSM    H7S12589   0.030   2.099   6.372  0.3440 -1.1402  0.5528
  120OSM    H7T12590   0.167   2.006   6.324 -0.5041  0.1104 -0.3980
  120OSM    C8S12591   0.197   2.223   6.307 -0.2132  0.2759 -0.3736
  120OSM    H8S12592   0.307   2.226   6.295  0.2007 -1.9893  1.9382
  120OSM    H8T12593   0.178   2.305   6.379 -0.6611 -0.9208  0.9335
  120OSM    C9S12594   0.121   2.245   6.175 -0.1162 -0.3476 -0.4359
  120OSM    H9S12595   0.011   2.233   6.188 -0.0103 -0.1765  0.8015
  120OSM    H9T12596   0.162   2.169   6.105 -0.3785  1.1851 -2.3290
  120OSM   C10S12597   0.152   2.381   6.119  0.0718 -0.0548 -0.0585
  120OSM   H10S12598   0.261   2.400   6.133  0.5551  0.3381 -3.5424
  120OSM   H10T12599   0.101   2.465   6.170 -0.1750 -0.2326 -0.0071
  120OSM   C11S12600   0.109   2.379   5.974  0.2613  0.4440  0.0920
  120OSM   H11S12601  -0.000   2.358   5.970  0.7394 -2.0624 -2.3705
  120OSM   H11T12602   0.146   2.291   5.918 -4.5239 -1.2698 -0.9086
  120OSM   C12S12603   0.133   2.508   5.898  0.2395 -0.8182 -0.4568
  120OSM   H12S12604   0.241   2.534   5.908 -0.3366  1.2202  1.1603
  120OSM   H12T12605   0.078   2.597   5.935  3.0628  0.5260  0.8238
  120OSM   C13S12606   0.099   2.506   5.752 -0.3772 -0.2089  0.1932
  120OSM   H13S12607   0.002   2.452   5.747 -0.1366 -0.6336  0.0470
  120OSM   H13T12608   0.184   2.445   5.715 -0.1487  1.0209 -1.4166
  120OSM   C14S12609   0.115   2.647   5.689  0.3424 -0.6109  0.8609
  120OSM   H14S12610   0.216   2.689   5.705  1.4768 -2.2864 -1.4073
  120OSM   H14T12611   0.046   2.709   5.750 -1.4199 -0.6182 -1.0109
  120OSM   C15S12612   0.088   2.643   5.537 -0.4571  0.2213 -0.0537
  120OSM   H15S12613   0.126   2.737   5.492  0.8074 -1.0925 -1.8347
  120OSM   H15T12614  -0.021   2.624   5.528 -0.3539 -0.0994 -0.6656
  120OSM   C16S12615   0.168   2.537   5.455 -0.4045 -0.7129 -0.2097
  120OSM   H16S12616   0.168   2.441   5.511 -0.8768  0.7676  2.5148
  120OSM   H16T12617   0.269   2.584   5.448 -0.1710 -1.1396  0.1987
  120OSM   C17S12618   0.113   2.503   5.318  0.5138  0.3599  0.2978
  120OSM   H17S12619   0.102   2.590   5.250  0.8580 -0.2761 -0.5961
  120OSM   H17T12620   0.010   2.468   5.337  1.1220 -0.1242  3.2273
  120OSM   C18S12621   0.195   2.397   5.238  0.5050  0.6474  0.2357
  120OSM   H18S12622   0.139   2.370   5.146 -0.8979 -1.3660  1.5679
  120OSM   H18T12623   0.207   2.300   5.290  0.2921  1.0855  1.1274
  120OSM   H18U12624   0.295   2.434   5.210  0.3021  0.8730 -0.2067
  120OSM    C1F12625   0.215   2.581   6.504 -0.2958  0.1635  0.1410
  120OSM     OF12626   0.281   2.625   6.593 -0.3063 -0.0682 -0.0043
  120OSM    C2F12627   0.236   2.610   6.358 -0.3793  0.2630  0.5838
  120OSM    H2F12628   0.134   2.600   6.315  0.1471 -0.0887 -0.6075
  120OSM    H2G12629   0.301   2.536   6.308 -1.2334  1.6069 -2.8337
  120OSM    C3F12630   0.302   2.746   6.340 -0.0704 -0.1113  0.0213
  120OSM    H3F12631   0.406   2.741   6.380 -0.1762  0.1124  0.3287
  120OSM    H3G12632   0.233   2.820   6.385 -0.4161 -1.0717  1.1009
  120OSM    C4F12633   0.318   2.778   6.191  0.6029 -0.8613  0.3249
  120OSM    H4F12634   0.218   2.804   6.151  0.8813 -1.0594 -0.5111
  120OSM    H4G12635   0.364   2.697   6.130  0.6691 -0.0643 -0.7152
  120OSM    C5F12636   0.402   2.902   6.164 -0.4735 -0.1169  0.5748
  120OSM    H5F12637   0.497   2.908   6.221  1.0815 -1.4538 -1.7015
  120OSM    H5G12638   0.342   2.991   6.194  1.5569  1.1889  0.9351
  120OSM    C6F12639   0.458   2.908   6.020  0.2924  0.1311 -0.5996
  120OSM    H6F12640   0.533   2.828   6.008  1.4065  1.0601 -0.0361
  120OSM    H6G12641   0.500   3.010   6.006 -0.5649  0.8803  1.7654
  120OSM    C7F12642   0.344   2.899   5.911 -0.3445 -0.4660 -0.1756
  120OSM    H7F12643   0.276   2.985   5.932 -3.1865 -2.3377 -1.2268
  120OSM    H7G12644   0.294   2.803   5.935 -0.8759  0.0989  1.0673
  120OSM    C8F12645   0.415   2.914   5.774  0.7759  0.5699 -0.2508
  120OSM    H8F12646   0.441   2.809   5.746 -0.2441  0.6979 -1.7662
  120OSM    H8G12647   0.511   2.967   5.793  0.8224  0.2233  0.5256
  120OSM    C9F12648   0.317   2.971   5.668 -0.0648 -0.8543 -0.2262
  120OSM    H9F12649   0.214   2.933   5.666  0.4365 -2.3438  0.5829
  120OSM   C10F12650   0.356   3.047   5.567 -0.0684  0.1911  0.0540
  120OSM   H10F12651   0.280   3.089   5.499 -0.8615  1.7286  1.8049
  120OSM   C11F12652   0.493   3.099   5.546  0.1545  0.0156  0.5921
  120OSM   H11F12653   0.541   3.120   5.644 -0.8268 -0.0495  1.0984
  120OSM   H11G12654   0.494   3.196   5.492 -0.7948 -0.5251 -0.4337
  120OSM   C12F12655   0.577   3.008   5.456  0.2264 -0.5623 -0.4058
  120OSM   H12F12656   0.591   2.906   5.497  0.8670  0.4391  2.0147
  120OSM   H12G12657   0.678   3.049   5.473 -0.0712  0.0787 -0.1503
  120OSM   C13F12658   0.556   3.027   5.303 -0.2216  0.9368  0.1925
  120OSM   H13F12659   0.449   3.002   5.286  0.8418 -2.7559 -2.1400
  120OSM   H13G12660   0.616   2.949   5.252  0.3075 -0.2740  2.5503
  120OSM   C14F12661   0.602   3.166   5.244  0.4467  0.4651  0.2144
  120OSM   H14F12662   0.712   3.153   5.242  0.3946 -0.2075 -2.1558
  120OSM   H14G12663   0.566   3.245   5.313  0.6211 -1.1991  2.2986
  120OSM   C15F12664   0.560   3.187   5.100  0.2869 -0.2335 -0.0752
  120OSM   H15F12665   0.583   3.093   5.045  1.0286 -0.5114  0.6897
  120OSM   H15G12666   0.620   3.267   5.051 -1.9253  0.4573 -1.8435
  120OSM   C16F12667   0.417   3.227   5.080 -0.3886 -0.5946 -0.0509
  120OSM   H16F12668   0.404   3.317   5.144  0.7074  0.6987 -1.5625
  120OSM   H16G12669   0.358   3.150   5.134  1.9974 -1.4792  1.5143
  120OSM   C17F12670   0.362   3.262   4.941 -0.9741 -0.3715 -0.0986
  120OSM   H17F12671   0.368   3.169   4.881  1.3423 -1.5148  1.7826
  120OSM   H17G12672   0.442   3.333   4.910  0.0591 -1.2883  0.4064
  120OSM   C18F12673   0.226   3.324   4.952 -0.1412  0.6564  0.2517
  120OSM   H18F12674   0.216   3.420   5.007  0.4397  0.7473  0.2084
  120OSM   H18G12675   0.155   3.251   4.995  0.9050  0.1232  1.1383
  120OSM   H18H12676   0.181   3.338   4.852  1.3630  0.9835 -0.4098
  121OSM      N12677   6.775   6.695   7.745 -0.3110  0.2732  0.1402
  121OSM    C1512678   6.754   6.728   7.605 -0.2723 -0.6524  0.5606
  121OSM   H15A12679   6.843   6.704   7.549 -0.3328  0.6694 -0.1545
  121OSM   H15B12680   6.744   6.836   7.603 -0.1081 -0.6479 -0.0920
  121OSM   H15C12681   6.663   6.683   7.568 -0.7204  1.0661 -0.5188
  121OSM    C1412682   6.637   6.701   7.814 -0.4116  0.3273 -0.3066
  121OSM   H14A12683   6.561   6.652   7.756  0.6781 -2.0292  0.1398
  121OSM   H14B12684   6.608   6.802   7.840 -3.0981 -0.4770  0.1005
  121OSM   H14C12685   6.633   6.652   7.910 -0.1123 -0.9213 -0.9078
  121OSM    C1312686   6.829   6.557   7.750 -0.0792  0.7208  0.2841
  121OSM   H13A12687   6.758   6.502   7.690 -0.0234  1.3637 -0.3860
  121OSM   H13B12688   6.839   6.528   7.854  0.5699  2.2755  0.6735
  121OSM   H13C12689   6.931   6.553   7.717  0.1956  1.6676  0.9656
  121OSM    C1212690   6.874   6.778   7.818  0.0488  1.0577 -0.3013
  121OSM   H12A12691   6.867   6.750   7.922 -0.0875  1.9046 -0.0704
  121OSM   H12B12692   6.834   6.878   7.825  0.3619  1.0730  2.0536
  121OSM    C1112693   7.021   6.779   7.773  0.1973 -0.2518 -0.2560
  121OSM   H11A12694   7.065   6.677   7.777 -0.0704 -0.3659 -0.1930
  121OSM   H11B12695   7.074   6.840   7.849 -0.3198  0.2644 -0.3004
  121OSM      P12696   7.150   6.888   7.574  0.1840  0.3290  0.2375
  121OSM    O1312697   7.127   7.034   7.567 -0.1921 -0.2711 -0.2038
  121OSM    O1412698   7.264   6.839   7.653  0.0258  0.5283 -0.4029
  121OSM    O1112699   7.156   6.818   7.433 -0.0076 -0.3854 -0.7833
  121OSM    O1212700   7.023   6.828   7.636  0.0606  0.2864  0.0085
  121OSM    C1S12701   7.110   6.684   7.420 -0.4767  0.3915  0.3943
  121OSM    H1S12702   6.999   6.694   7.418 -0.4504  1.1676  1.4982
  121OSM    H1T12703   7.137   6.620   7.507 -3.6093 -0.1575  1.0891
  121OSM     NF12704   7.108   6.498   7.259 -0.0764  0.2551 -0.1459
  121OSM    HNF12705   7.167   6.418   7.249 -0.2260 -0.7572  4.6382
  121OSM    C2S12706   7.167   6.626   7.282  0.0483 -0.4751 -0.2385
  121OSM    H2S12707   7.127   6.696   7.206  3.2056  1.0241 -0.7065
  121OSM    C3S12708   7.322   6.627   7.272 -0.6518  0.3551  0.7464
  121OSM    H3S12709   7.363   6.546   7.335  0.6959  0.6578  0.2819
  121OSM     O312710   7.385   6.746   7.326  0.3581  0.3261  0.5202
  121OSM    HO312711   7.315   6.774   7.385 -0.1642  0.3608 -0.1137
  121OSM    C4S12712   7.364   6.590   7.130  0.1537 -0.0066 -0.6676
  121OSM    H4S12713   7.386   6.483   7.121 -1.5824 -0.3757 -0.7028
  121OSM    C5S12714   7.365   6.680   7.025 -0.3525 -0.2711 -0.0757
  121OSM    H5S12715   7.337   6.786   7.036 -0.6415 -0.0827 -2.1685
  121OSM    C6S12716   7.406   6.652   6.883 -0.2509  0.7352  0.2296
  121OSM    H6S12717   7.468   6.559   6.884  1.4968  1.8330  1.8556
  121OSM    H6T12718   7.474   6.735   6.854  1.9652 -1.4012 -1.0856
  121OSM    C7S12719   7.294   6.636   6.787  0.7414  0.0635  0.3624
  121OSM    H7S12720   7.249   6.737   6.791 -2.5901 -1.3256  1.0064
  121OSM    H7T12721   7.225   6.554   6.815  1.4386 -0.3940  0.7703
  121OSM    C8S12722   7.337   6.616   6.639 -0.4942 -0.3802 -0.4354
  121OSM    H8S12723   7.380   6.515   6.623  0.7539 -0.1830  1.3104
  121OSM    H8T12724   7.431   6.674   6.625 -1.9951  2.3948  0.3044
  121OSM    C9S12725   7.240   6.639   6.526  0.6407  0.2144 -0.2247
  121OSM    H9S12726   7.190   6.738   6.534  0.1400 -0.1926  2.6024
  121OSM    H9T12727   7.153   6.572   6.542  0.8979  0.1600  0.9862
  121OSM   C10S12728   7.300   6.601   6.388  0.0151  0.2209 -0.2349
  121OSM   H10S12729   7.313   6.491   6.381  0.7076  0.3109 -0.4194
  121OSM   H10T12730   7.400   6.649   6.381 -1.1797  3.0163  0.3384
  121OSM   C11S12731   7.221   6.659   6.276 -0.5250 -0.4432 -0.1236
  121OSM   H11S12732   7.245   6.768   6.279  0.0214 -0.5183 -1.2604
  121OSM   H11T12733   7.113   6.658   6.298 -0.8751  2.6849 -1.1290
  121OSM   C12S12734   7.266   6.609   6.144 -0.2228 -0.5390  0.0347
  121OSM   H12S12735   7.257   6.499   6.154  1.5020 -0.5314  2.4685
  121OSM   H12T12736   7.374   6.632   6.136 -0.5553  0.8817 -0.9758
  121OSM   C13S12737   7.196   6.663   6.018  0.1893 -0.2136 -0.3864
  121OSM   H13S12738   7.192   6.774   6.016 -1.3710 -0.1399  2.4082
  121OSM   H13T12739   7.087   6.647   6.033  0.6710 -3.2378  0.6221
  121OSM   C14S12740   7.256   6.609   5.897  0.1440  0.0724 -0.1373
  121OSM   H14S12741   7.293   6.507   5.923  0.3802 -0.1991 -1.4607
  121OSM   H14T12742   7.356   6.649   5.873  1.3495 -2.3960  0.4592
  121OSM   C15S12743   7.162   6.606   5.775 -0.6594 -0.2375  0.5377
  121OSM   H15S12744   7.116   6.706   5.755 -0.8250 -0.5880 -0.9714
  121OSM   H15T12745   7.075   6.539   5.790 -0.6962  0.2433  2.9873
  121OSM   C16S12746   7.240   6.595   5.636  0.9431 -0.6856 -0.4408
  121OSM   H16S12747   7.307   6.683   5.626  0.9916 -0.8712 -2.0010
  121OSM   H16T12748   7.157   6.595   5.561 -0.0189 -1.9260  0.5846
  121OSM   C17S12749   7.326   6.470   5.636  0.3693 -0.5497  0.9453
  121OSM   H17S12750   7.248   6.395   5.610 -1.4442  1.9232 -1.2100
  121OSM   H17T12751   7.373   6.452   5.735  0.9833  0.5210  0.8572
  121OSM   C18S12752   7.429   6.470   5.524  0.1307  0.5999  0.0089
  121OSM   H18S12753   7.389   6.515   5.431 -0.8117 -0.0712  0.0826
  121OSM   H18T12754   7.466   6.371   5.491 -0.5362  0.5719 -0.6650
  121OSM   H18U12755   7.515   6.529   5.564 -1.3405  1.8702  1.4140
  121OSM    C1F12756   6.976   6.482   7.243  0.2953 -0.2224  0.6793
  121OSM     OF12757   6.886   6.571   7.247 -0.1534  0.1213  0.5176
  121OSM    C2F12758   6.938   6.341   7.205 -0.8705 -0.0249 -0.7910
  121OSM    H2F12759   6.872   6.294   7.282  0.0270 -0.2878 -0.1619
  121OSM    H2G12760   7.028   6.276   7.197 -0.6273 -0.1212  1.7989
  121OSM    C3F12761   6.874   6.353   7.062 -0.7868 -0.1105  0.4483
  121OSM    H3F12762   6.789   6.424   7.063  1.0622  2.2657  2.7798
  121OSM    H3G12763   6.833   6.251   7.043 -2.0842  0.0815  2.0438
  121OSM    C4F12764   6.968   6.389   6.942 -0.0105  0.6740  0.4922
  121OSM    H4F12765   7.050   6.316   6.925 -2.1908 -1.6129 -0.9334
  121OSM    H4G12766   7.007   6.493   6.949 -0.3198  0.9225 -0.9980
  121OSM    C5F12767   6.884   6.392   6.815 -0.5070 -0.0251  0.6116
  121OSM    H5F12768   6.788   6.445   6.831 -0.6864 -1.1123  3.7439
  121OSM    H5G12769   6.861   6.288   6.784  0.1445 -0.5731  1.8780
  121OSM    C6F12770   6.951   6.470   6.697 -0.7498 -0.0069  0.1203
  121OSM    H6F12771   7.047   6.417   6.683  0.3870  1.1820  2.7098
  121OSM    H6G12772   6.978   6.573   6.729 -2.0737  0.5081 -0.3134
  121OSM    C7F12773   6.858   6.492   6.569  0.6017 -0.7073  0.7102
  121OSM    H7F12774   6.908   6.575   6.515 -1.7798 -0.4655 -1.2793
  121OSM    H7G12775   6.760   6.537   6.596 -0.2069 -2.1873  0.4005
  121OSM    C8F12776   6.828   6.368   6.481  0.3780  0.2722 -0.1351
  121OSM    H8F12777   6.743   6.372   6.410  1.1517 -0.4697 -1.1350
  121OSM    H8G12778   6.795   6.291   6.555  2.2519  0.4305  0.9215
  121OSM    C9F12779   6.949   6.333   6.401 -0.3937 -0.0005  0.1936
  121OSM    H9F12780   7.039   6.300   6.455 -0.1157 -0.1180 -0.3362
  121OSM   C10F12781   6.968   6.362   6.271 -0.4370 -0.2648  0.0097
  121OSM   H10F12782   7.072   6.353   6.236 -0.7250 -0.5688 -0.7854
  121OSM   C11F12783   6.873   6.403   6.165  0.0231 -0.7700  0.2188
  121OSM   H11F12784   6.914   6.498   6.123  1.3620 -1.8965 -1.1200
  121OSM   H11G12785   6.777   6.418   6.220 -0.3404 -2.5314  0.1138
  121OSM   C12F12786   6.842   6.304   6.053  0.4423  0.7279  0.3158
  121OSM   H12F12787   6.808   6.213   6.107 -0.6689  1.1297  0.3280
  121OSM   H12G12788   6.932   6.281   5.993 -1.1496  0.9201 -2.3273
  121OSM   C13F12789   6.734   6.356   5.955  0.6476  0.6489  0.2574
  121OSM   H13F12790   6.752   6.465   5.951  2.4178  0.3347 -2.1197
  121OSM   H13G12791   6.637   6.335   6.005  0.0949  1.7207 -0.3242
  121OSM   C14F12792   6.736   6.298   5.811  0.2009  0.1631 -0.1339
  121OSM   H14F12793   6.631   6.310   5.778  0.2509 -0.5746 -0.5836
  121OSM   H14G12794   6.750   6.188   5.817 -0.1110  0.2237  2.8376
  121OSM   C15F12795   6.843   6.354   5.720  0.0254  0.2460 -0.0315
  121OSM   H15F12796   6.947   6.330   5.752 -0.0318  1.5480  1.2684
  121OSM   H15G12797   6.843   6.465   5.719  0.8410  0.2498 -0.9199
  121OSM   C16F12798   6.818   6.324   5.571 -0.0759  0.1493  0.1693
  121OSM   H16F12799   6.712   6.342   5.542  0.0012 -0.1659 -0.3148
  121OSM   H16G12800   6.838   6.216   5.556 -2.0084 -0.6079  2.4320
  121OSM   C17F12801   6.897   6.400   5.460 -0.2681  0.2070 -1.2240
  121OSM   H17F12802   7.006   6.393   5.481 -0.6834  0.0976  1.1489
  121OSM   H17G12803   6.863   6.505   5.477 -2.0827 -0.4213 -0.7586
  121OSM   C18F12804   6.868   6.362   5.314  0.9310  0.2965  0.2785
  121OSM   H18F12805   6.762   6.389   5.294  1.4713  1.5654 -1.0698
  121OSM   H18G12806   6.888   6.254   5.297  2.5289  0.6176 -0.0305
  121OSM   H18H12807   6.923   6.432   5.247  1.2274  0.5061  0.7282
  122OSM      N12808   0.522   2.314   7.117  1.0687 -0.8410 -0.3173
  122OSM    C1512809   0.524   2.239   7.245 -0.2117 -0.0211 -0.2113
  122OSM   H15A12810   0.443   2.249   7.316  1.1794  0.5860  1.3558
  122OSM   H15B12811   0.615   2.259   7.299 -1.3344  0.1649  1.7103
  122OSM   H15C12812   0.533   2.135   7.218 -1.6975 -0.0741 -0.5843
  122OSM    C1412813   0.402   2.283   7.036  0.9433 -0.6826  0.6550
  122OSM   H14A12814   0.405   2.179   7.005  2.9008 -1.4142  2.9272
  122OSM   H14B12815   0.391   2.355   6.957 -1.8664  0.4994  1.9468
  122OSM   H14C12816   0.306   2.290   7.087  0.4776 -0.9344 -0.1705
  122OSM    C1312817   0.509   2.464   7.146  0.0385  0.2383  0.0985
  122OSM   H13A12818   0.451   2.485   7.235 -0.2478  3.0476 -0.6513
  122OSM   H13B12819   0.460   2.521   7.069 -0.5660  0.7824  0.8681
  122OSM   H13C12820   0.601   2.517   7.162 -0.4846  2.0910 -2.4558
  122OSM    C1212821   0.644   2.299   7.031 -0.2573  0.3616  0.5881
  122OSM   H12A12822   0.636   2.377   6.956 -0.0477 -1.4216 -1.3876
  122OSM   H12B12823   0.641   2.207   6.975  4.5599  0.0987  0.3507
  122OSM    C1112824   0.783   2.323   7.102 -0.1304  0.3369 -0.8278
  122OSM   H11A12825   0.776   2.426   7.143 -2.6758 -0.3950  0.7931
  122OSM   H11B12826   0.868   2.320   7.030  0.1694 -0.6074 -0.4527
  122OSM      P12827   0.842   2.079   7.196 -0.2523  0.6710  0.5808
  122OSM    O1312828   0.980   2.042   7.233  0.4273 -0.0222  0.2234
  122OSM    O1412829   0.729   2.005   7.257  0.0570 -0.5400  0.1978
  122OSM    O1112830   0.851   2.062   7.041  0.7404 -0.5922 -0.0105
  122OSM    O1212831   0.817   2.236   7.209 -0.2183 -0.4357 -0.4026
  122OSM    C1S12832   0.976   2.046   6.973  0.0336 -0.4513 -0.2780
  122OSM    H1S12833   1.021   1.955   7.017  0.4366  0.4969  1.3476
  122OSM    H1T12834   1.048   2.125   7.003  2.5123 -2.2170 -1.2342
  122OSM     NF12835   1.104   2.000   6.765 -0.0321  0.5717 -0.1131
  122OSM    HNF12836   1.147   2.067   6.705  0.4463  0.5531  0.2026
  122OSM    C2S12837   0.968   2.028   6.819 -0.2757 -0.1928  0.0475
  122OSM    H2S12838   0.913   1.935   6.790 -0.7135  0.7772 -2.4411
  122OSM    C3S12839   0.895   2.155   6.764 -0.4856 -0.3735 -0.9665
  122OSM    H3S12840   0.930   2.241   6.824 -1.3051 -1.0863  0.5851
  122OSM     O312841   0.755   2.149   6.789 -0.2170  0.1755 -0.7176
  122OSM    HO312842   0.749   2.096   6.868 -0.3652 -0.0269 -0.8652
  122OSM    C4S12843   0.915   2.173   6.619 -0.0896  0.8775  0.2344
  122OSM    H4S12844   0.866   2.096   6.557  1.5308  0.8808 -1.1167
  122OSM    C5S12845   0.962   2.285   6.555  0.2246  0.2272  0.4242
  122OSM    H5S12846   0.992   2.377   6.607  0.0146  1.5517 -1.6898
  122OSM    C6S12847   0.982   2.295   6.406 -0.7401 -0.1202  0.6234
  122OSM    H6S12848   1.085   2.333   6.395 -1.1725  1.0889  0.6551
  122OSM    H6T12849   0.917   2.376   6.367  2.5638  0.8004 -3.7001
  122OSM    C7S12850   0.961   2.178   6.311  0.5250 -0.2467  0.1920
  122OSM    H7S12851   0.866   2.126   6.333 -1.1187  2.5577  0.1929
  122OSM    H7T12852   1.049   2.110   6.319  1.2330  0.5718 -0.3717
  122OSM    C8S12853   0.968   2.216   6.166 -0.6938  0.2856 -0.3699
  122OSM    H8S12854   1.070   2.256   6.150 -0.8071  1.0155  0.6631
  122OSM    H8T12855   0.893   2.296   6.150  0.3559  1.7126  1.5110
  122OSM    C9S12856   0.966   2.103   6.061  0.6086 -0.0534  0.0634
  122OSM    H9S12857   0.868   2.050   6.062  1.9205 -2.6252  2.1875
  122OSM    H9T12858   1.044   2.026   6.079  0.4121 -0.5918 -1.2683
  122OSM   C10S12859   0.978   2.147   5.917 -0.1354 -0.2061  0.2235
  122OSM   H10S12860   1.071   2.203   5.896 -0.5302 -0.1911 -1.7385
  122OSM   H10T12861   0.886   2.209   5.906 -0.6205 -0.8929  0.2971
  122OSM   C11S12862   0.977   2.037   5.820 -0.4822 -0.1498  0.2407
  122OSM   H11S12863   0.888   1.971   5.831  1.1564 -2.2689  1.7084
  122OSM   H11T12864   1.067   1.977   5.847  2.4322  2.5726 -2.5177
  122OSM   C12S12865   0.965   2.064   5.672  0.0796  0.1875  0.1873
  122OSM   H12S12866   1.031   2.143   5.630 -1.1332  0.6383 -0.9392
  122OSM   H12T12867   0.860   2.094   5.652  0.5568  1.6387 -0.2791
  122OSM   C13S12868   0.990   1.928   5.594  0.1909  0.6710 -0.2120
  122OSM   H13S12869   0.912   1.850   5.610 -0.2705  1.0806 -0.4068
  122OSM   H13T12870   1.083   1.891   5.641  0.7516 -0.3191 -2.0186
  122OSM   C14S12871   1.019   1.942   5.444 -0.3843  0.1598  0.7378
  122OSM   H14S12872   1.095   2.022   5.434 -0.8652  0.5858  0.4510
  122OSM   H14T12873   0.923   1.984   5.406 -0.3584  0.9690  1.5442
  122OSM   C15S12874   1.073   1.809   5.382  0.8354 -0.4994 -0.1598
  122OSM   H15S12875   1.006   1.734   5.430  2.0083 -0.3512  1.8144
  122OSM   H15T12876   1.178   1.787   5.410 -0.1499 -2.4246  2.3840
  122OSM   C16S12877   1.078   1.822   5.232 -0.0846  0.0203  0.1779
  122OSM   H16S12878   1.151   1.903   5.214 -0.7599  0.6913  0.4378
  122OSM   H16T12879   0.985   1.853   5.179  0.6829 -0.4523 -1.4982
  122OSM   C17S12880   1.138   1.699   5.163  0.6447 -0.1360 -0.7932
  122OSM   H17S12881   1.217   1.665   5.232 -1.1218 -1.3023  0.7673
  122OSM   H17T12882   1.181   1.737   5.068  1.1561  0.1075 -0.4674
  122OSM   C18S12883   1.035   1.593   5.137  0.1904  0.5058  0.2205
  122OSM   H18S12884   1.092   1.515   5.084 -0.0170  0.2041  0.4363
  122OSM   H18T12885   0.951   1.634   5.076  0.2672  2.6906  1.4793
  122OSM   H18U12886   1.006   1.546   5.233  2.3198  2.1641  1.7749
  122OSM    C1F12887   1.169   1.890   6.793 -0.5636  0.7160 -0.1956
  122OSM     OF12888   1.132   1.805   6.878 -0.4237  0.3405  0.3746
  122OSM    C2F12889   1.308   1.869   6.729 -0.3137 -0.5296  0.5719
  122OSM    H2F12890   1.354   1.774   6.764  0.1175 -0.1136  1.1552
  122OSM    H2G12891   1.372   1.955   6.759  0.2700 -0.3827 -0.9773
  122OSM    C3F12892   1.309   1.854   6.579  0.4171  0.2202  0.3318
  122OSM    H3F12893   1.412   1.849   6.537  0.0428 -0.2444 -0.5550
  122OSM    H3G12894   1.260   1.941   6.529 -1.2175 -0.7491  0.1729
  122OSM    C4F12895   1.236   1.729   6.536  0.5026 -0.2940 -0.3061
  122OSM    H4F12896   1.135   1.738   6.580 -0.0021  0.3521 -1.5492
  122OSM    H4G12897   1.282   1.641   6.584  1.2479  0.9895  1.4390
  122OSM    C5F12898   1.217   1.711   6.388  0.1299  0.6536 -0.4915
  122OSM    H5F12899   1.242   1.604   6.372 -1.1211  0.2073  0.3918
  122OSM    H5G12900   1.288   1.778   6.335  0.1173  0.1065 -1.2089
  122OSM    C6F12901   1.073   1.729   6.336  0.3000  0.1736 -1.0339
  122OSM    H6F12902   1.039   1.828   6.373  0.4952  0.7734 -2.4016
  122OSM    H6G12903   0.999   1.654   6.370  0.8506 -0.6619 -1.6406
  122OSM    C7F12904   1.072   1.732   6.184 -0.0759 -0.9325  0.4596
  122OSM    H7F12905   1.115   1.638   6.143  0.3138  0.2342 -2.0352
  122OSM    H7G12906   1.140   1.815   6.153 -1.6341  1.2992  2.6274
  122OSM    C8F12907   0.933   1.742   6.115 -0.3534  0.2841 -0.0922
  122OSM    H8F12908   0.964   1.745   6.009  3.1859 -1.1890  0.7835
  122OSM    H8G12909   0.880   1.838   6.134 -0.3513  0.2278  0.2039
  122OSM    C9F12910   0.829   1.628   6.132 -0.3553  0.4894  0.8734
  122OSM    H9F12911   0.877   1.557   6.201  2.5345  3.7239  2.5219
  122OSM   C10F12912   0.708   1.615   6.074  0.2015  0.1434  0.1876
  122OSM   H10F12913   0.645   1.527   6.093 -2.7030  2.1126  0.2616
  122OSM   C11F12914   0.650   1.710   5.967 -0.0604 -0.1592  0.0182
  122OSM   H11F12915   0.710   1.803   5.952 -0.0417 -0.1555  0.1089
  122OSM   H11G12916   0.551   1.740   6.008  0.6795 -0.2212  1.9713
  122OSM   C12F12917   0.625   1.630   5.835 -0.5100  0.8557 -0.2939
  122OSM   H12F12918   0.562   1.699   5.774 -0.0331  3.6829  2.2275
  122OSM   H12G12919   0.570   1.537   5.861 -1.1910 -0.2561 -4.8043
  122OSM   C13F12920   0.759   1.590   5.763  0.8601  0.1156  0.0792
  122OSM   H13F12921   0.826   1.558   5.845 -0.9269  1.5620  2.2407
  122OSM   H13G12922   0.805   1.683   5.722  0.9782 -0.4591 -1.1253
  122OSM   C14F12923   0.737   1.493   5.640  0.3115 -0.6349  0.2325
  122OSM   H14F12924   0.659   1.417   5.661 -1.8827  1.1227 -1.0881
  122OSM   H14G12925   0.832   1.439   5.618 -0.0157 -1.3124  0.4524
  122OSM   C15F12926   0.694   1.564   5.513  0.5360  0.4661 -0.6010
  122OSM   H15F12927   0.744   1.663   5.511  3.6896 -0.9832 -0.9124
  122OSM   H15G12928   0.583   1.572   5.514  0.5207  0.4105 -1.3784
  122OSM   C16F12929   0.748   1.478   5.393  0.1564  0.2758 -0.1646
  122OSM   H16F12930   0.858   1.491   5.390  0.0047  1.5593 -1.2134
  122OSM   H16G12931   0.709   1.513   5.295 -0.7369 -1.9320 -0.6717
  122OSM   C17F12932   0.712   1.331   5.376 -0.5256  0.2163  0.4313
  122OSM   H17F12933   0.601   1.331   5.367 -0.5898 -0.4054  1.1205
  122OSM   H17G12934   0.753   1.275   5.463 -1.2283 -0.5028  0.3157
  122OSM   C18F12935   0.776   1.278   5.249  0.3184 -0.1129  0.3706
  122OSM   H18F12936   0.885   1.297   5.241  0.0926  1.6892  1.1219
  122OSM   H18G12937   0.720   1.324   5.164 -1.7873 -1.5094  0.9224
  122OSM   H18H12938   0.759   1.169   5.237  1.4581 -0.3639  0.9650
  123OSM      N12939   4.489   2.083   2.508  0.5368  0.1668  0.2986
  123OSM    C1512940   4.516   2.225   2.528  0.8655 -0.1754 -0.3712
  123OSM   H15A12941   4.423   2.279   2.517  0.7077 -0.0835  1.2184
  123OSM   H15B12942   4.590   2.267   2.462  1.7097  0.2816  0.8456
  123OSM   H15C12943   4.550   2.238   2.630 -1.1985  1.6014  0.1600
  123OSM    C1412944   4.442   2.084   2.363 -0.2330  0.3280  0.2273
  123OSM   H14A12945   4.517   2.138   2.307 -1.5476 -1.0896 -3.1348
  123OSM   H14B12946   4.339   2.116   2.368 -1.1210 -2.3009  5.3725
  123OSM   H14C12947   4.440   1.988   2.313 -0.6637  0.9316 -0.9778
  123OSM    C1312948   4.615   1.998   2.521 -0.4418 -0.1416 -0.1365
  123OSM   H13A12949   4.651   2.010   2.622  0.2642  0.8663 -0.4878
  123OSM   H13B12950   4.699   2.043   2.470  1.1996 -0.3588  2.2170
  123OSM   H13C12951   4.603   1.892   2.505 -2.5106  0.2072 -1.2586
  123OSM    C1212952   4.386   2.026   2.606  0.5167 -0.8172  0.0726
  123OSM   H12A12953   4.417   2.050   2.707  2.1162 -0.0201 -0.5735
  123OSM   H12B12954   4.382   1.918   2.602 -1.6192 -0.8614  1.5100
  123OSM    C1112955   4.239   2.092   2.590 -0.2872  0.0423 -0.0292
  123OSM   H11A12956   4.163   2.039   2.651 -2.0164  1.3128 -0.9845
  123OSM   H11B12957   4.214   2.074   2.483 -0.0374 -1.6746  0.1682
  123OSM      P12958   4.262   2.291   2.764  0.3567 -0.1578  0.1624
  123OSM    O1312959   4.321   2.194   2.857  0.3754 -0.0419  0.3293
  123OSM    O1412960   4.345   2.414   2.746 -0.0448 -0.5426 -0.0255
  123OSM    O1112961   4.119   2.335   2.809 -0.3559 -0.2434 -0.1314
  123OSM    O1212962   4.235   2.237   2.616 -0.0302  0.7310  0.0790
  123OSM    C1S12963   4.021   2.239   2.848 -1.2477  0.5099  0.0222
  123OSM    H1S12964   4.050   2.136   2.820  1.9627  1.4766 -0.6047
  123OSM    H1T12965   3.924   2.243   2.794 -0.5212 -0.1923 -1.3897
  123OSM     NF12966   3.853   2.163   3.034  0.6423 -0.1499  0.0471
  123OSM    HNF12967   3.773   2.215   3.063  0.4997 -0.7159  0.6735
  123OSM    C2S12968   3.975   2.236   2.997 -0.3821 -0.0455 -0.9186
  123OSM    H2S12969   4.063   2.190   3.047 -0.8061  1.3424  1.2278
  123OSM    C3S12970   3.980   2.377   3.063  0.2125  0.0262  0.0106
  123OSM    H3S12971   3.906   2.431   3.000 -0.5330  0.0522  0.8916
  123OSM     O312972   4.104   2.447   3.039 -0.2618 -0.2702 -0.1760
  123OSM    HO312973   4.132   2.403   2.959  0.5216  0.0161 -0.0734
  123OSM    C4S12974   3.948   2.374   3.211  0.9136 -0.1164 -0.5293
  123OSM    H4S12975   3.847   2.405   3.241  1.4184 -0.9989  2.4258
  123OSM    C5S12976   4.032   2.334   3.307 -0.1688  0.2218 -0.3406
  123OSM    H5S12977   4.137   2.314   3.281  0.1533 -1.8252  2.0441
  123OSM    C6S12978   4.015   2.350   3.453  0.2704 -0.4485 -0.0507
  123OSM    H6S12979   3.984   2.254   3.499 -0.1330 -0.4082 -0.2285
  123OSM    H6T12980   3.925   2.412   3.476  0.7324  0.3356 -0.3036
  123OSM    C7S12981   4.126   2.413   3.544  0.2453 -0.2387  0.0390
  123OSM    H7S12982   4.212   2.343   3.549 -0.0379 -0.5548  0.5959
  123OSM    H7T12983   4.078   2.412   3.645 -0.4137 -0.8481 -0.2736
  123OSM    C8S12984   4.176   2.553   3.502 -0.1908 -0.3969 -0.1852
  123OSM    H8S12985   4.096   2.629   3.490  0.9946  1.1247  1.1840
  123OSM    H8T12986   4.223   2.532   3.404  1.3253  0.4961  0.3217
  123OSM    C9S12987   4.281   2.604   3.609  0.7571  0.4550 -0.2308
  123OSM    H9S12988   4.318   2.708   3.597 -2.5277  2.1023  2.3736
  123OSM    H9T12989   4.360   2.526   3.606 -1.8974 -2.4348  0.0296
  123OSM   C10S12990   4.231   2.596   3.756  0.2714 -0.0829 -0.0265
  123OSM   H10S12991   4.228   2.488   3.783  0.4152 -0.3635 -1.1088
  123OSM   H10T12992   4.134   2.651   3.763  1.8171  2.8123  0.0519
  123OSM   C11S12993   4.325   2.667   3.862  0.0119 -0.5477 -0.4390
  123OSM   H11S12994   4.320   2.770   3.822 -1.3969 -1.1757 -2.0430
  123OSM   H11T12995   4.429   2.629   3.856 -0.2248 -1.2757 -0.0954
  123OSM   C12S12996   4.280   2.657   4.007  0.2339  0.0936  0.2653
  123OSM   H12S12997   4.275   2.549   4.034  1.4824 -0.0110  0.1076
  123OSM   H12T12998   4.178   2.699   4.022  0.3407  0.4741 -0.0769
  123OSM   C13S12999   4.367   2.728   4.113 -0.3475 -0.4298  0.6110
  123OSM   H13S13000   4.343   2.834   4.089 -2.7159 -1.0261  0.0887
  123OSM   H13T13001   4.470   2.693   4.090 -0.9175 -3.0020  1.6470
  123OSM   C14S13002   4.324   2.708   4.255  0.9481  0.0447 -0.5845
  123OSM   H14S13003   4.264   2.614   4.255 -3.2409  2.4386 -2.1394
  123OSM   H14T13004   4.257   2.789   4.292  0.9793 -0.1767 -0.0298
  123OSM   C15S13005   4.444   2.695   4.352  0.2781  0.3806  0.6619
  123OSM   H15S13006   4.525   2.769   4.333  1.5424 -1.4502 -1.5031
  123OSM   H15T13007   4.486   2.593   4.340 -0.5881  0.1944 -1.0521
  123OSM   C16S13008   4.400   2.701   4.504 -0.0207  0.0358  0.7756
  123OSM   H16S13009   4.333   2.618   4.535  1.0552 -0.7145  1.1469
  123OSM   H16T13010   4.345   2.797   4.516 -0.5387 -0.3602  1.6208
  123OSM   C17S13011   4.522   2.694   4.602 -0.0963 -0.0624  0.2282
  123OSM   H17S13012   4.499   2.739   4.701  0.6238  1.9815 -0.4835
  123OSM   H17T13013   4.606   2.755   4.563  0.7403 -1.4235 -0.1862
  123OSM   C18S13014   4.566   2.554   4.626  0.2799  0.7425 -0.4390
  123OSM   H18S13015   4.484   2.486   4.657  1.2857 -0.8639 -1.1187
  123OSM   H18T13016   4.638   2.557   4.711 -1.2423  0.5247  0.8860
  123OSM   H18U13017   4.608   2.505   4.535  0.0378 -1.2261  0.4394
  123OSM    C1F13018   3.855   2.030   3.024  0.4753  0.9049 -0.5342
  123OSM     OF13019   3.945   1.955   2.982 -0.2616  0.0079 -0.2547
  123OSM    C2F13020   3.718   1.975   3.065 -0.0942 -0.2039  0.4538
  123OSM    H2F13021   3.699   1.889   2.997  0.4438  0.3589 -0.4254
  123OSM    H2G13022   3.638   2.052   3.056 -0.6545 -0.4438  2.6226
  123OSM    C3F13023   3.724   1.916   3.209 -0.3879 -0.8166  0.1538
  123OSM    H3F13024   3.750   1.992   3.285 -1.6565 -1.5435  1.3560
  123OSM    H3G13025   3.809   1.844   3.215 -0.4612 -0.8147  1.5249
  123OSM    C4F13026   3.605   1.852   3.260 -0.1640 -0.0971 -0.2222
  123OSM    H4F13027   3.585   1.762   3.198 -0.5833  0.7309 -1.3228
  123OSM    H4G13028   3.526   1.928   3.240 -0.4106  0.8010  3.3849
  123OSM    C5F13029   3.603   1.837   3.411 -0.1682  0.6573  0.2675
  123OSM    H5F13030   3.692   1.781   3.449 -1.0790 -1.5682 -0.7066
  123OSM    H5G13031   3.514   1.776   3.434 -0.4002  0.5221 -0.9351
  123OSM    C6F13032   3.592   1.970   3.480 -1.0358 -0.2936 -0.1296
  123OSM    H6F13033   3.520   2.037   3.430  0.5617 -0.3462 -2.6517
  123OSM    H6G13034   3.692   2.019   3.478 -0.3659 -1.6099 -0.7621
  123OSM    C7F13035   3.550   1.944   3.628 -0.7064 -0.2772 -0.1582
  123OSM    H7F13036   3.605   1.857   3.670  0.7800  1.9433  2.8581
  123OSM    H7G13037   3.440   1.928   3.624 -0.9051 -0.0293  2.7502
  123OSM    C8F13038   3.590   2.057   3.718  0.0192  0.3631 -0.2442
  123OSM    H8F13039   3.537   2.039   3.814 -2.6648  1.2051 -1.4873
  123OSM    H8G13040   3.537   2.150   3.687 -1.5675  0.1408  1.6071
  123OSM    C9F13041   3.739   2.079   3.733  0.5066 -0.3296 -0.0685
  123OSM    H9F13042   3.793   1.987   3.759 -0.8259 -1.2158 -0.3640
  123OSM   C10F13043   3.806   2.192   3.733 -0.6580  0.1724 -0.2617
  123OSM   H10F13044   3.915   2.180   3.732 -0.9049 -2.5668  0.2468
  123OSM   C11F13045   3.743   2.331   3.721  0.1833 -0.3364 -0.5085
  123OSM   H11F13046   3.636   2.327   3.754 -0.0216 -0.8845 -1.2085
  123OSM   H11G13047   3.744   2.359   3.614  1.1561  0.0435 -0.4043
  123OSM   C12F13048   3.815   2.443   3.800 -0.0949  0.0506 -0.0558
  123OSM   H12F13049   3.759   2.537   3.782  0.3847  0.6667  1.4694
  123OSM   H12G13050   3.916   2.462   3.756  0.0028  1.3552  0.6897
  123OSM   C13F13051   3.817   2.419   3.961 -0.0013 -0.5983 -0.2935
  123OSM   H13F13052   3.888   2.337   3.983 -1.4873 -1.9889 -0.4561
  123OSM   H13G13053   3.714   2.386   3.989  0.0492  1.2601  2.4588
  123OSM   C14F13054   3.845   2.548   4.031 -0.5161  0.0107  0.2611
  123OSM   H14F13055   3.759   2.611   4.001 -2.5988 -1.9747  1.6964
  123OSM   H14G13056   3.938   2.589   3.988  0.4059 -1.0190  1.2067
  123OSM   C15F13057   3.849   2.539   4.181  0.5547  0.2016 -0.1499
  123OSM   H15F13058   3.761   2.478   4.211  2.7232 -2.4976  1.2247
  123OSM   H15G13059   3.840   2.635   4.236 -0.6344 -0.8246  1.5426
  123OSM   C16F13060   3.973   2.463   4.237  0.0074  0.6959  0.3078
  123OSM   H16F13061   4.058   2.525   4.201 -0.7186  0.4738 -2.0058
  123OSM   H16G13062   3.986   2.362   4.192 -0.5154  1.0622 -0.7065
  123OSM   C17F13063   3.989   2.445   4.393  0.0803  0.3902  0.2649
  123OSM   H17F13064   3.901   2.394   4.439 -1.7138  2.8072 -0.2737
  123OSM   H17G13065   3.971   2.546   4.435 -2.7927 -0.5233  1.4672
  123OSM   C18F13066   4.119   2.381   4.440 -0.3443  0.3674 -0.8433
  123OSM   H18F13067   4.131   2.393   4.550 -0.5320 -0.3799 -0.7301
  123OSM   H18G13068   4.212   2.424   4.398  2.0701  0.8145  4.1805
  123OSM   H18H13069   4.123   2.273   4.415 -0.1444  0.3637 -0.8002
  124OSM      N13070   4.885   3.003   2.618  0.6518 -0.3276 -0.5726
  124OSM    C1513071   4.790   2.998   2.506  0.2299  0.1254 -0.2380
  124OSM   H15A13072   4.712   2.925   2.519 -0.1434  0.4871 -0.4433
  124OSM   H15B13073   4.838   2.955   2.419  1.7791  0.4511  0.4210
  124OSM   H15C13074   4.756   3.093   2.468  1.3255  0.9834  0.8465
  124OSM    C1413075   4.968   2.869   2.615 -0.6415 -0.6122 -0.4278
  124OSM   H14A13076   5.029   2.862   2.526  0.2137 -1.7038  0.2240
  124OSM   H14B13077   4.905   2.781   2.619 -0.7575 -0.4765  1.4844
  124OSM   H14C13078   5.028   2.856   2.704 -0.0294 -2.1857 -1.0362
  124OSM    C1313079   4.982   3.115   2.599 -0.2663  0.8451  0.1890
  124OSM   H13A13080   5.058   3.126   2.675 -2.2007 -1.1577  2.6126
  124OSM   H13B13081   4.935   3.212   2.594  1.5698  1.7923  0.2749
  124OSM   H13C13082   5.037   3.112   2.506 -0.1931 -0.0341  0.2541
  124OSM    C1213083   4.816   3.029   2.751 -0.1358  0.0370  0.9752
  124OSM   H12A13084   4.761   3.121   2.734  2.0406  0.9165 -2.1240
  124OSM   H12B13085   4.894   3.041   2.825  1.1747 -2.3612  0.0837
  124OSM    C1113086   4.726   2.914   2.801 -0.1055 -1.1305 -0.0455
  124OSM   H11A13087   4.708   2.935   2.909  0.4186  0.4541 -0.2402
  124OSM   H11B13088   4.790   2.825   2.813 -0.3190 -1.5574 -1.7982
  124OSM      P13089   4.490   2.966   2.706 -0.4532  0.0255 -0.0368
  124OSM    O1313090   4.536   3.105   2.738 -0.1262 -0.1793 -0.2306
  124OSM    O1413091   4.427   2.939   2.575 -0.1183  0.4023 -1.1413
  124OSM    O1113092   4.393   2.909   2.820 -0.0856  0.1966 -0.5341
  124OSM    O1213093   4.616   2.874   2.728  0.2260 -0.1898  0.4935
  124OSM    C1S13094   4.403   2.777   2.877 -0.2777 -0.1686  0.4075
  124OSM    H1S13095   4.509   2.755   2.900 -0.7433 -0.9597  2.0065
  124OSM    H1T13096   4.367   2.704   2.801  0.4790  0.4518 -0.5615
  124OSM     NF13097   4.333   2.630   3.063  0.1505  0.3711 -0.7327
  124OSM    HNF13098   4.260   2.565   3.047  0.0097 -0.0235  1.2347
  124OSM    C2S13099   4.314   2.761   3.000 -0.1914 -0.7286 -0.0512
  124OSM    H2S13100   4.353   2.834   3.075 -0.7816 -0.2710 -0.1846
  124OSM    C3S13101   4.168   2.785   2.977  0.0663 -0.1754  0.4669
  124OSM    H3S13102   4.130   2.697   2.921  2.3839 -0.0174 -1.5203
  124OSM     O313103   4.137   2.897   2.892 -0.5260 -0.2240 -0.1134
  124OSM    HO313104   4.225   2.921   2.864 -0.7106  2.0003  0.9606
  124OSM    C4S13105   4.084   2.785   3.112 -0.2694  0.0031 -0.7252
  124OSM    H4S13106   4.054   2.682   3.136  1.2206 -0.3030 -0.0320
  124OSM    C5S13107   4.038   2.888   3.186  0.1040  0.3749  0.2234
  124OSM    H5S13108   4.045   2.991   3.148  1.7914  0.1344 -0.2243
  124OSM    C6S13109   3.963   2.868   3.316 -0.4293 -0.1097 -0.3439
  124OSM    H6S13110   4.044   2.899   3.386  1.2001 -3.1872 -0.6487
  124OSM    H6T13111   3.947   2.758   3.326  1.5023 -0.4866 -0.9172
  124OSM    C7S13112   3.829   2.945   3.345  0.5602 -0.0787  0.3029
  124OSM    H7S13113   3.760   2.916   3.263  1.0452 -2.6771  0.7353
  124OSM    H7T13114   3.852   3.054   3.336 -0.3548  0.0121 -1.3485
  124OSM    C8S13115   3.763   2.907   3.482 -0.2789 -0.3918 -0.2428
  124OSM    H8S13116   3.744   2.798   3.487  1.8003 -0.7329  1.1424
  124OSM    H8T13117   3.662   2.953   3.493 -0.2016 -0.1362 -0.5788
  124OSM    C9S13118   3.861   2.940   3.597 -1.2408 -0.2038 -0.5494
  124OSM    H9S13119   3.893   3.045   3.581  2.7831 -1.4754 -1.9445
  124OSM    H9T13120   3.959   2.893   3.574  0.2451  1.8675  1.1893
  124OSM   C10S13121   3.800   2.924   3.737  0.7995  0.0196 -0.8277
  124OSM   H10S13122   3.783   2.815   3.754 -0.1810 -0.0433 -2.0719
  124OSM   H10T13123   3.708   2.982   3.757 -0.9762 -3.1316  0.9135
  124OSM   C11S13124   3.908   2.959   3.836 -1.1136 -0.4421 -0.9440
  124OSM   H11S13125   3.941   3.060   3.803  0.3062 -0.6803 -0.3308
  124OSM   H11T13126   4.001   2.898   3.824  0.0412  0.6032  1.9281
  124OSM   C12S13127   3.862   2.958   3.982 -0.4203 -0.2630 -0.1893
  124OSM   H12S13128   3.818   2.861   4.013 -0.2456  0.0076  0.9232
  124OSM   H12T13129   3.782   3.035   3.991 -1.1008 -0.6809 -2.1625
  124OSM   C13S13130   3.975   2.988   4.088  0.5100  0.1549  0.0841
  124OSM   H13S13131   4.025   3.077   4.043  0.4299 -0.8973 -2.2263
  124OSM   H13T13132   4.039   2.897   4.086  1.5715  0.8889 -1.0589
  124OSM   C14S13133   3.918   3.016   4.223  0.1269  0.5554  0.0729
  124OSM   H14S13134   3.860   2.930   4.262  1.8014 -1.4084 -1.5083
  124OSM   H14T13135   3.847   3.101   4.220 -0.6899 -0.1289 -2.1833
  124OSM   C15S13136   4.024   3.065   4.326  0.8549  0.5905  0.4879
  124OSM   H15S13137   4.103   3.133   4.288 -0.8037  2.2493 -0.1099
  124OSM   H15T13138   4.066   2.975   4.376 -1.9482 -0.8395  0.4724
  124OSM   C16S13139   3.957   3.145   4.446 -0.3788  0.2161  0.2059
  124OSM   H16S13140   3.876   3.085   4.491 -2.1890  1.7264 -0.8686
  124OSM   H16T13141   3.915   3.238   4.401 -1.5562 -0.3884  0.0155
  124OSM   C17S13142   4.055   3.186   4.552 -0.5036 -0.6323  0.0039
  124OSM   H17S13143   4.148   3.239   4.520 -1.9597  2.5434  0.6476
  124OSM   H17T13144   4.094   3.099   4.609  0.7745  0.6203  1.1178
  124OSM   C18S13145   4.000   3.290   4.656 -0.5906 -0.5040  0.3665
  124OSM   H18S13146   4.085   3.337   4.709  1.2498 -1.9797 -1.1050
  124OSM   H18T13147   3.918   3.253   4.720 -0.2850 -0.2095  0.9318
  124OSM   H18U13148   3.961   3.368   4.588 -0.4434 -1.0919 -0.4116
  124OSM    C1F13149   4.435   2.581   3.121 -0.6301  0.5643 -0.2215
  124OSM     OF13150   4.537   2.644   3.114  0.1887  0.1034  0.1550
  124OSM    C2F13151   4.422   2.439   3.171 -0.7691  0.1190  0.6154
  124OSM    H2F13152   4.446   2.372   3.086 -1.1053  2.8070 -1.7866
  124OSM    H2G13153   4.317   2.415   3.197 -0.9152 -0.8741 -0.8137
  124OSM    C3F13154   4.492   2.419   3.304  0.1322 -0.8292 -0.2672
  124OSM    H3F13155   4.449   2.503   3.362  1.0559 -0.1022 -0.6091
  124OSM    H3G13156   4.603   2.426   3.303  0.0278  1.9622 -1.5627
  124OSM    C4F13157   4.461   2.293   3.380  0.1326  0.0971  0.5359
  124OSM    H4F13158   4.491   2.215   3.307 -1.2319 -1.3110  1.4154
  124OSM    H4G13159   4.354   2.276   3.404  0.5359 -2.1301  0.9223
  124OSM    C5F13160   4.536   2.270   3.509 -0.3104  0.7222 -0.2066
  124OSM    H5F13161   4.494   2.348   3.575  0.9020  0.4219  0.9645
  124OSM    H5G13162   4.642   2.297   3.489  0.0395 -0.5870 -0.2302
  124OSM    C6F13163   4.503   2.132   3.575 -0.6165  0.3154 -0.1179
  124OSM    H6F13164   4.505   2.050   3.499 -0.2056 -0.6001  0.8658
  124OSM    H6G13165   4.397   2.130   3.609 -0.6523 -0.6492 -0.2513
  124OSM    C7F13166   4.586   2.102   3.698 -0.6886 -0.0908 -0.0137
  124OSM    H7F13167   4.691   2.074   3.677 -0.8349 -0.4153 -0.3156
  124OSM    H7G13168   4.543   2.008   3.738 -0.5643 -0.6492 -1.1697
  124OSM    C8F13169   4.601   2.208   3.809 -0.0071  0.4214  0.2741
  124OSM    H8F13170   4.652   2.292   3.758 -1.7192  0.5627 -1.2847
  124OSM    H8G13171   4.667   2.167   3.888  0.8025  0.7169 -0.2380
  124OSM    C9F13172   4.477   2.249   3.866  0.3869  0.3408 -0.0587
  124OSM    H9F13173   4.395   2.250   3.792  0.6461  0.8228 -0.3434
  124OSM   C10F13174   4.445   2.304   3.987 -0.4017  0.2245 -0.3484
  124OSM   H10F13175   4.343   2.331   4.017  0.8366  1.3599  3.4377
  124OSM   C11F13176   4.539   2.331   4.098  1.0488 -0.1556  0.1148
  124OSM   H11F13177   4.516   2.437   4.122 -1.9360 -0.6434 -0.1006
  124OSM   H11G13178   4.646   2.304   4.085  1.0562  0.0345 -0.2033
  124OSM   C12F13179   4.496   2.248   4.217 -0.4115 -0.4166 -0.0706
  124OSM   H12F13180   4.494   2.140   4.192 -1.0966 -0.2587 -0.7362
  124OSM   H12G13181   4.398   2.284   4.254  0.1579  0.0422  1.0657
  124OSM   C13F13182   4.589   2.270   4.343 -0.7719  0.1332 -0.0453
  124OSM   H13F13183   4.579   2.366   4.397  2.6067  0.3654  0.4373
  124OSM   H13G13184   4.693   2.276   4.303 -0.4547 -0.9227  0.5673
  124OSM   C14F13185   4.571   2.155   4.445  0.0376  0.0138  0.2788
  124OSM   H14F13186   4.591   2.063   4.387 -0.2846  0.4475 -0.5340
  124OSM   H14G13187   4.462   2.158   4.464  0.0906 -1.9963  1.0457
  124OSM   C15F13188   4.647   2.178   4.573 -0.5327  0.0901  0.7030
  124OSM   H15F13189   4.595   2.270   4.607  0.5343  1.3357 -0.8896
  124OSM   H15G13190   4.749   2.206   4.541  0.7999  0.3991  4.7042
  124OSM   C16F13191   4.652   2.057   4.673  0.8131 -0.2665  0.0866
  124OSM   H16F13192   4.697   2.097   4.766  2.1472  1.1230 -1.1019
  124OSM   H16G13193   4.723   1.979   4.640  2.4643  1.0435  0.4190
  124OSM   C17F13194   4.504   1.996   4.707 -0.4071 -0.0444 -0.4152
  124OSM   H17F13195   4.453   1.949   4.620 -0.4519  0.2408 -0.5422
  124OSM   H17G13196   4.441   2.082   4.739  0.3467  0.6535 -0.7697
  124OSM   C18F13197   4.501   1.893   4.821  0.0170 -0.1138 -0.5119
  124OSM   H18F13198   4.549   1.798   4.789  3.3808  1.0429  0.6396
  124OSM   H18G13199   4.397   1.871   4.853 -0.3434 -0.0836 -1.6322
  124OSM   H18H13200   4.562   1.939   4.902 -2.2436  0.2045  1.0911
  125OSM      N13201   5.621   0.343   2.156  0.0428  0.2683  0.6469
  125OSM    C1513202   5.743   0.268   2.197  0.3805 -0.5470 -0.0706
  125OSM   H15A13203   5.782   0.336   2.271  0.1480  1.0339 -1.3500
  125OSM   H15B13204   5.805   0.241   2.113 -1.2699  0.3909 -1.6616
  125OSM   H15C13205   5.720   0.176   2.249 -1.6406  0.3182  0.6957
  125OSM    C1413206   5.651   0.476   2.096  0.3930  0.1634 -0.1037
  125OSM   H14A13207   5.646   0.476   1.988 -1.6251  0.9483 -0.0601
  125OSM   H14B13208   5.751   0.506   2.124  1.2670 -2.6861  0.1193
  125OSM   H14C13209   5.582   0.554   2.125 -0.4821 -0.5393 -0.2253
  125OSM    C1313210   5.551   0.259   2.057  0.1924  1.0249 -0.6408
  125OSM   H13A13211   5.515   0.165   2.096  0.4177  1.9234  1.8548
  125OSM   H13B13212   5.605   0.248   1.963 -1.2253 -2.2714 -1.2222
  125OSM   H13C13213   5.466   0.311   2.018  1.1937  2.2072 -1.3136
  125OSM    C1213214   5.541   0.362   2.286 -0.2084  0.1273  0.3256
  125OSM   H12A13215   5.446   0.411   2.271 -0.8314 -0.4972  2.0202
  125OSM   H12B13216   5.605   0.419   2.351  1.1803 -1.1376  0.1099
  125OSM    C1113217   5.502   0.224   2.355  0.0319 -0.4197  0.0546
  125OSM   H11A13218   5.549   0.127   2.326 -0.7317 -1.1415  1.1658
  125OSM   H11B13219   5.399   0.197   2.323  0.5517 -2.1002 -0.3387
  125OSM      P13220   5.611   0.192   2.578  0.5784  0.1402  0.0688
  125OSM    O1313221   5.611   0.046   2.552 -0.2665 -0.1979 -0.1887
  125OSM    O1413222   5.735   0.264   2.548 -0.0870  0.3658  0.7510
  125OSM    O1113223   5.573   0.209   2.732  0.5107  0.0253 -0.0564
  125OSM    O1213224   5.493   0.254   2.496 -0.0121 -0.5048  0.0719
  125OSM    C1S13225   5.455   0.290   2.755 -0.1302 -0.2761 -0.1553
  125OSM    H1S13226   5.366   0.238   2.713 -0.6619 -1.6247  2.4151
  125OSM    H1T13227   5.467   0.391   2.711 -0.3179 -0.8326 -1.5217
  125OSM     NF13228   5.293   0.343   2.939  0.0957  0.5926  0.3367
  125OSM    HNF13229   5.272   0.439   2.956 -0.2411  0.6657 -0.4570
  125OSM    C2S13230   5.430   0.310   2.905  0.9994 -0.1445  0.4448
  125OSM    H2S13231   5.433   0.205   2.940  0.6686 -0.7182 -1.1574
  125OSM    C3S13232   5.529   0.401   2.968 -0.2772 -0.5462  0.0627
  125OSM    H3S13233   5.499   0.505   2.941  2.1073  1.0056  2.8216
  125OSM     O313234   5.658   0.380   2.919 -0.3645  0.1517  0.2519
  125OSM    HO313235   5.630   0.314   2.854 -1.6689  2.6975 -1.9825
  125OSM    C4S13236   5.531   0.405   3.117 -0.0508 -0.4118  0.0679
  125OSM    H4S13237   5.521   0.305   3.162 -2.5694 -0.4736 -0.4785
  125OSM    C5S13238   5.524   0.511   3.196  0.4458 -0.0814  0.1888
  125OSM    H5S13239   5.520   0.609   3.146 -1.9787  0.1869  0.7963
  125OSM    C6S13240   5.519   0.501   3.344  0.0991 -0.2453 -0.1560
  125OSM    H6S13241   5.572   0.581   3.400 -0.1914  0.3622 -0.7349
  125OSM    H6T13242   5.569   0.407   3.375  0.6879 -0.8586 -2.7740
  125OSM    C7S13243   5.370   0.509   3.389 -0.0568  0.2922 -0.0157
  125OSM    H7S13244   5.303   0.438   3.337  1.9732 -1.7198 -0.0096
  125OSM    H7T13245   5.350   0.613   3.354  0.6045 -0.0132 -1.3725
  125OSM    C8S13246   5.362   0.497   3.548 -0.3150 -0.5348 -0.3815
  125OSM    H8S13247   5.446   0.560   3.583  0.1805 -1.0174 -0.6869
  125OSM    H8T13248   5.364   0.395   3.590 -1.8187 -0.3186  0.2626
  125OSM    C9S13249   5.242   0.561   3.615  0.0631 -0.5741 -0.1119
  125OSM    H9S13250   5.147   0.525   3.572 -0.3161  0.1300  0.1243
  125OSM    H9T13251   5.251   0.670   3.596  1.1873 -0.9327 -1.8913
  125OSM   C10S13252   5.239   0.549   3.768 -0.5448 -0.2277 -0.3962
  125OSM   H10S13253   5.165   0.616   3.816 -0.9958  0.1424 -1.5569
  125OSM   H10T13254   5.343   0.574   3.800 -0.1750 -2.4238  0.2390
  125OSM   C11S13255   5.212   0.410   3.823  0.7759 -0.4091 -0.9449
  125OSM   H11S13256   5.291   0.340   3.789 -0.3401 -2.6311  0.7773
  125OSM   H11T13257   5.115   0.370   3.786 -0.0557  2.0778 -1.6311
  125OSM   C12S13258   5.200   0.394   3.977  0.3430 -0.2195 -0.4515
  125OSM   H12S13259   5.299   0.427   4.017  0.5917  1.5170 -2.3203
  125OSM   H12T13260   5.188   0.286   3.995  1.3212 -0.2534  0.1072
  125OSM   C13S13261   5.085   0.466   4.037  0.6997 -0.0025 -0.2338
  125OSM   H13S13262   4.988   0.442   3.989 -0.5964 -0.3602  2.3521
  125OSM   H13T13263   5.094   0.576   4.025 -0.2778 -0.1015 -2.4370
  125OSM   C14S13264   5.049   0.431   4.187  0.5276  0.0948  0.3196
  125OSM   H14S13265   5.031   0.322   4.188 -1.0098  0.3279  0.2638
  125OSM   H14T13266   4.946   0.467   4.208  0.7847  1.3001 -0.3999
  125OSM   C15S13267   5.153   0.476   4.291 -0.1979 -0.2217  1.1145
  125OSM   H15S13268   5.157   0.587   4.295 -0.8335 -0.1849  0.8004
  125OSM   H15T13269   5.253   0.448   4.251 -0.1655 -0.3006  1.2520
  125OSM   C16S13270   5.113   0.420   4.433  0.2782  0.0788  0.3703
  125OSM   H16S13271   5.207   0.392   4.484  0.2621 -2.5807 -0.8819
  125OSM   H16T13272   5.072   0.320   4.404 -1.3003  0.7832  0.0600
  125OSM   C17S13273   5.035   0.507   4.528 -0.1140 -0.5985 -0.2492
  125OSM   H17S13274   4.938   0.540   4.485  1.2263  0.7387 -2.3786
  125OSM   H17T13275   5.090   0.601   4.547 -2.3657  1.0288 -1.3998
  125OSM   C18S13276   5.008   0.451   4.669  0.3091  0.4759 -0.3312
  125OSM   H18S13277   5.098   0.441   4.733 -1.1187  0.7337  1.8276
  125OSM   H18T13278   4.970   0.347   4.658 -0.7526  0.4629  2.5585
  125OSM   H18U13279   4.938   0.515   4.727  0.2979 -0.7903  1.1372
  125OSM    C1F13280   5.199   0.255   2.942 -0.4740 -0.1650  0.0876
  125OSM     OF13281   5.218   0.142   2.906 -0.5072 -0.0379  0.5490
  125OSM    C2F13282   5.064   0.291   3.010  0.5998 -0.3701  0.5496
  125OSM    H2F13283   4.987   0.287   2.930  2.4773  1.1983 -1.4303
  125OSM    H2G13284   5.061   0.400   3.031 -2.4416 -0.3229  0.2340
  125OSM    C3F13285   5.033   0.202   3.132  0.1649  0.2559  0.0720
  125OSM    H3F13286   5.000   0.104   3.092  1.7260 -0.3618  0.1893
  125OSM    H3G13287   4.943   0.249   3.177 -2.3016 -2.7824 -1.3439
  125OSM    C4F13288   5.137   0.207   3.240  0.1538 -0.4103  0.5210
  125OSM    H4F13289   5.152   0.315   3.261  1.8266 -0.1324 -1.7544
  125OSM    H4G13290   5.236   0.170   3.207 -0.2071 -0.3328 -0.6936
  125OSM    C5F13291   5.096   0.136   3.365  0.4416 -0.2624 -0.2696
  125OSM    H5F13292   5.085   0.030   3.335 -2.0986  0.0808 -0.8178
  125OSM    H5G13293   4.999   0.174   3.405  0.2966  0.4240 -1.2191
  125OSM    C6F13294   5.201   0.145   3.470  0.0177 -0.0024 -0.0987
  125OSM    H6F13295   5.180   0.225   3.544 -0.5959  0.2954 -0.5816
  125OSM    H6G13296   5.305   0.167   3.439  0.9744  0.5955  3.1325
  125OSM    C7F13297   5.206   0.026   3.567 -0.1649 -0.2919 -0.8003
  125OSM    H7F13298   5.273  -0.054   3.529  0.6861 -0.6728  1.3688
  125OSM    H7G13299   5.102  -0.006   3.591 -0.4503  1.6600  0.8017
  125OSM    C8F13300   5.265   0.070   3.706  0.1737 -0.4273 -0.4361
  125OSM    H8F13301   5.200   0.140   3.763  1.0911  0.5647 -0.5710
  125OSM    H8G13302   5.347   0.133   3.665 -1.5940  0.6249 -2.5842
  125OSM    C9F13303   5.323  -0.042   3.796 -1.0914  0.2379 -0.7311
  125OSM    H9F13304   5.415  -0.093   3.765 -1.7646 -1.7726  0.4242
  125OSM   C10F13305   5.261  -0.088   3.908 -0.6277  0.4657 -0.2981
  125OSM   H10F13306   5.312  -0.166   3.967  0.7632  1.1919 -0.5024
  125OSM   C11F13307   5.130  -0.047   3.973  0.5143  0.1565 -0.3721
  125OSM   H11F13308   5.047  -0.046   3.899 -0.1869  1.2944  0.3957
  125OSM   H11G13309   5.144   0.054   4.018 -2.4244  1.6942 -2.5899
  125OSM   C12F13310   5.063  -0.145   4.076  0.4682  0.3286  0.3607
  125OSM   H12F13311   5.032  -0.241   4.029  0.3183 -0.8466  2.7128
  125OSM   H12G13312   4.979  -0.079   4.106  0.7417  0.5689  0.6091
  125OSM   C13F13313   5.138  -0.173   4.200 -0.2688 -0.1047  0.2422
  125OSM   H13F13314   5.139  -0.085   4.268 -1.9861  1.5989 -1.7940
  125OSM   H13G13315   5.239  -0.211   4.172 -1.6413 -3.2052 -1.0069
  125OSM   C14F13316   5.074  -0.295   4.268 -0.1858 -0.1947  0.2805
  125OSM   H14F13317   5.111  -0.378   4.205  3.4384  0.6711  1.0713
  125OSM   H14G13318   4.963  -0.291   4.259 -0.0943  1.2744 -0.4746
  125OSM   C15F13319   5.123  -0.329   4.412 -0.2634 -0.1552  0.6515
  125OSM   H15F13320   5.233  -0.313   4.418 -0.2704 -0.1394  0.7426
  125OSM   H15G13321   5.093  -0.435   4.430 -2.3895 -0.0093 -1.5003
  125OSM   C16F13322   5.068  -0.233   4.521 -0.4052  0.3955  0.1946
  125OSM   H16F13323   4.961  -0.253   4.540 -0.1315 -2.8131 -1.0237
  125OSM   H16G13324   5.077  -0.126   4.491  1.9721 -0.3583 -2.2803
  125OSM   C17F13325   5.153  -0.271   4.643 -0.0381 -0.6672 -0.1000
  125OSM   H17F13326   5.252  -0.223   4.648  0.0695 -0.7610 -1.1882
  125OSM   H17G13327   5.183  -0.378   4.643  0.1937 -0.6067  0.3754
  125OSM   C18F13328   5.084  -0.230   4.780 -0.1890  0.3827 -0.1539
  125OSM   H18F13329   4.984  -0.277   4.781 -0.1790  0.3704  0.3346
  125OSM   H18G13330   5.068  -0.120   4.774  0.8787  0.7012  1.8687
  125OSM   H18H13331   5.144  -0.262   4.868 -2.2813 -0.2483  1.0904
  126OSM      N13332   3.777   6.669   2.856  0.5273  0.6296 -0.2872
  126OSM    C1513333   3.683   6.571   2.909  0.0427  0.1899  0.0812
  126OSM   H15A13334   3.586   6.612   2.932  0.7752  0.9089  2.2118
  126OSM   H15B13335   3.714   6.525   3.002 -0.6396 -0.3227  0.0609
  126OSM   H15C13336   3.662   6.498   2.833 -0.1728  0.0559  0.2674
  126OSM    C1413337   3.898   6.586   2.823  0.7386 -0.4395 -0.1737
  126OSM   H14A13338   3.981   6.647   2.790  1.3726 -1.4897 -0.5495
  126OSM   H14B13339   3.880   6.496   2.767 -2.0405 -0.3499  0.4504
  126OSM   H14C13340   3.938   6.541   2.913  0.7538  0.9608  0.5468
  126OSM    C1313341   3.730   6.729   2.726  1.0902  0.1913 -0.0829
  126OSM   H13A13342   3.734   6.655   2.647  1.0400 -0.4594  0.5170
  126OSM   H13B13343   3.781   6.821   2.699  2.2847 -0.8851 -1.6825
  126OSM   H13C13344   3.628   6.761   2.739  0.4882 -0.6318 -2.2637
  126OSM    C1213345   3.798   6.774   2.965 -0.1232 -0.0956  0.2228
  126OSM   H12A13346   3.808   6.725   3.062 -2.3774 -1.8889 -0.3433
  126OSM   H12B13347   3.708   6.834   2.967 -1.6019 -2.1661  0.5570
  126OSM    C1113348   3.916   6.873   2.950  0.2081  0.5245 -0.6072
  126OSM   H11A13349   4.006   6.815   2.979 -1.8717 -1.8826  1.4586
  126OSM   H11B13350   3.904   6.954   3.025 -1.5227  0.1174 -0.4070
  126OSM      P13351   3.872   7.049   2.767 -0.0483  0.5740  0.0448
  126OSM    O1313352   3.977   7.134   2.693  0.6771 -0.0956 -0.0936
  126OSM    O1413353   3.752   7.021   2.685 -0.2027 -0.6210  0.8653
  126OSM    O1113354   3.826   7.132   2.902  0.2134  0.1029 -0.5303
  126OSM    O1213355   3.943   6.918   2.815  0.7539  0.2881  0.4285
  126OSM    C1S13356   3.740   7.246   2.884 -0.1403 -0.1701 -0.2809
  126OSM    H1S13357   3.642   7.212   2.845 -0.5668 -1.1389  1.4915
  126OSM    H1T13358   3.779   7.310   2.803 -0.9850  1.9296  0.8922
  126OSM     NF13359   3.603   7.381   3.041 -0.0684  0.2603 -0.3828
  126OSM    HNF13360   3.599   7.480   3.029  1.5807  0.3183 -0.6828
  126OSM    C2S13361   3.729   7.314   3.014  0.1689 -0.8990 -0.7514
  126OSM    H2S13362   3.736   7.245   3.101 -3.0762 -1.2644 -0.6552
  126OSM    C3S13363   3.863   7.402   3.038 -0.7404 -0.0980 -0.0819
  126OSM    H3S13364   3.868   7.477   2.955 -1.5147 -0.9814 -0.9560
  126OSM     O313365   3.984   7.323   3.034 -0.0303 -0.2386  0.0703
  126OSM    HO313366   3.950   7.246   2.988 -1.3334 -0.0385  0.6543
  126OSM    C4S13367   3.865   7.476   3.172  0.2749 -0.0961  0.4613
  126OSM    H4S13368   3.875   7.411   3.259  0.1786 -1.5859 -0.5988
  126OSM    C5S13369   3.856   7.612   3.195 -0.4335  0.5561 -0.0206
  126OSM    H5S13370   3.863   7.685   3.113  2.3837  3.2299  2.3355
  126OSM    C6S13371   3.867   7.679   3.333 -0.1264 -0.1892  0.3741
  126OSM    H6S13372   3.772   7.726   3.366  1.2707  1.7050  1.9197
  126OSM    H6T13373   3.931   7.768   3.322 -0.2111 -0.3126 -1.4191
  126OSM    C7S13374   3.932   7.591   3.435 -0.4511 -0.3792 -0.3357
  126OSM    H7S13375   4.038   7.577   3.405 -0.1132  2.2023 -0.6002
  126OSM    H7T13376   3.882   7.493   3.448 -1.5875  0.3279  0.8369
  126OSM    C8S13377   3.930   7.654   3.576  0.3567 -0.3083  0.5330
  126OSM    H8S13378   3.828   7.676   3.614  0.7150  1.3202  0.6528
  126OSM    H8T13379   3.971   7.758   3.574 -1.0004  0.2448  0.1755
  126OSM    C9S13380   4.010   7.569   3.672 -0.2928 -0.2740 -0.3583
  126OSM    H9S13381   4.115   7.561   3.638  0.3953  2.1419  0.9389
  126OSM    H9T13382   3.968   7.466   3.680 -0.5769 -0.0564  1.4274
  126OSM   C10S13383   4.023   7.638   3.809  0.0141 -0.6706  0.0848
  126OSM   H10S13384   3.919   7.657   3.843 -0.4341 -1.2692 -0.9054
  126OSM   H10T13385   4.073   7.737   3.806 -0.0916 -0.3489  3.9373
  126OSM   C11S13386   4.104   7.546   3.905 -0.6338  0.1353 -0.2420
  126OSM   H11S13387   4.203   7.523   3.860 -0.6740 -2.2641  0.7298
  126OSM   H11T13388   4.046   7.451   3.904  1.1329 -1.0684  1.3411
  126OSM   C12S13389   4.140   7.618   4.043  0.2618 -0.1913  0.4226
  126OSM   H12S13390   4.061   7.693   4.068 -0.5536 -1.4605  1.7568
  126OSM   H12T13391   4.233   7.671   4.011 -0.0619 -0.2868 -0.6963
  126OSM   C13S13392   4.154   7.519   4.154 -0.3706 -0.3087 -0.6245
  126OSM   H13S13393   4.222   7.438   4.122 -0.7310 -0.0337 -2.1529
  126OSM   H13T13394   4.054   7.474   4.172 -1.2641  1.9256  0.3346
  126OSM   C14S13395   4.195   7.581   4.287 -0.0593  0.8123  0.1184
  126OSM   H14S13396   4.134   7.670   4.314  1.3769  1.1882  2.3833
  126OSM   H14T13397   4.298   7.623   4.287 -0.2316  1.2563  0.8483
  126OSM   C15S13398   4.171   7.489   4.410 -0.3393 -0.7800 -1.1635
  126OSM   H15S13399   4.237   7.400   4.424 -0.8583 -0.8234  1.5687
  126OSM   H15T13400   4.063   7.464   4.408 -0.6483  0.5817 -2.3122
  126OSM   C16S13401   4.181   7.573   4.545  0.4927  0.2116  0.1646
  126OSM   H16S13402   4.127   7.514   4.621  0.2039  0.9509  0.5404
  126OSM   H16T13403   4.125   7.668   4.531  1.1075  0.5833  0.1450
  126OSM   C17S13404   4.324   7.606   4.582  1.2281 -0.4498  0.3145
  126OSM   H17S13405   4.379   7.667   4.508  0.5990  0.8277  0.8602
  126OSM   H17T13406   4.382   7.512   4.596  0.1081 -1.0354  1.2677
  126OSM   C18S13407   4.320   7.679   4.715 -0.2185 -0.2316 -0.9885
  126OSM   H18S13408   4.328   7.605   4.797  1.9532  1.0975  0.1012
  126OSM   H18T13409   4.230   7.739   4.741 -0.1545 -0.7665  0.5213
  126OSM   H18U13410   4.410   7.742   4.738 -1.2210  1.0866 -0.5518
  126OSM    C1F13411   3.490   7.320   3.047  0.4454  0.8574  0.4354
  126OSM     OF13412   3.482   7.198   3.050  0.6948 -0.5101  0.2177
  126OSM    C2F13413   3.376   7.419   3.028  0.5696 -0.3412 -0.4250
  126OSM    H2F13414   3.364   7.435   2.919  1.1213 -1.7341 -0.7175
  126OSM    H2G13415   3.399   7.517   3.075 -1.8042  0.2446 -0.3777
  126OSM    C3F13416   3.243   7.360   3.087  0.0732  0.4568  0.4001
  126OSM    H3F13417   3.219   7.266   3.033 -1.4541 -0.7926  3.0617
  126OSM    H3G13418   3.167   7.436   3.058  0.6027  1.1895  0.8994
  126OSM    C4F13419   3.243   7.327   3.236 -0.4457 -0.6114  0.6372
  126OSM    H4F13420   3.305   7.240   3.265 -2.6776 -2.8074 -0.8673
  126OSM    H4G13421   3.139   7.315   3.272 -1.4521  1.1349 -1.4313
  126OSM    C5F13422   3.288   7.456   3.321 -0.4402 -0.0303 -0.0790
  126OSM    H5F13423   3.221   7.545   3.316  0.6333  0.9256  1.5011
  126OSM    H5G13424   3.393   7.479   3.296 -0.1653 -0.2933  0.7712
  126OSM    C6F13425   3.287   7.407   3.473 -0.0305  0.5894 -0.8424
  126OSM    H6F13426   3.334   7.487   3.534  0.4271 -0.8828  0.8271
  126OSM    H6G13427   3.352   7.317   3.481  1.8718  1.9793  0.1334
  126OSM    C7F13428   3.147   7.396   3.543  0.1411 -0.4429  0.3205
  126OSM    H7F13429   3.102   7.307   3.495  0.7271 -0.8280  0.4700
  126OSM    H7G13430   3.090   7.492   3.536 -1.1581 -0.9209  3.1210
  126OSM    C8F13431   3.175   7.369   3.686 -0.2964 -1.2823 -0.2021
  126OSM    H8F13432   3.244   7.447   3.723 -0.9978 -0.1295 -1.2461
  126OSM    H8G13433   3.243   7.282   3.697  1.0834 -0.2245 -0.1863
  126OSM    C9F13434   3.051   7.359   3.761  0.0191 -0.5352  0.0958
  126OSM    H9F13435   2.966   7.333   3.696 -1.0896  2.9620 -0.0696
  126OSM   C10F13436   3.019   7.390   3.888 -0.0178 -0.2073 -0.6953
  126OSM   H10F13437   2.919   7.380   3.932  1.1437  0.7114  2.3636
  126OSM   C11F13438   3.128   7.423   3.982  0.7376 -0.0955 -0.2817
  126OSM   H11F13439   3.214   7.479   3.942  0.0802  2.0628  1.1581
  126OSM   H11G13440   3.185   7.328   3.993  0.7857 -0.6282 -4.0501
  126OSM   C12F13441   3.077   7.487   4.118 -0.8204 -0.2907 -0.0961
  126OSM   H12F13442   2.988   7.445   4.169 -0.0228 -2.2209 -0.2170
  126OSM   H12G13443   3.055   7.595   4.105 -2.5932 -0.6284 -0.2352
  126OSM   C13F13444   3.183   7.465   4.233 -0.0920 -0.8456 -0.1202
  126OSM   H13F13445   3.286   7.477   4.193  0.2138 -0.1304  0.8494
  126OSM   H13G13446   3.165   7.362   4.271  0.5889 -0.0868  2.4780
  126OSM   C14F13447   3.166   7.570   4.347 -0.4009  0.7972  0.2140
  126OSM   H14F13448   3.058   7.563   4.372 -0.2679 -1.1181  0.4244
  126OSM   H14G13449   3.179   7.667   4.295 -2.5946  1.1087  0.1398
  126OSM   C15F13450   3.259   7.535   4.464  0.3945 -0.0201 -0.4665
  126OSM   H15F13451   3.253   7.618   4.538 -2.7055 -0.2915 -0.2778
  126OSM   H15G13452   3.359   7.541   4.417  0.4652  3.2648 -0.1223
  126OSM   C16F13453   3.245   7.396   4.527  0.1653 -0.3860 -0.8570
  126OSM   H16F13454   3.249   7.311   4.455  1.4556 -0.0491 -1.2160
  126OSM   H16G13455   3.139   7.401   4.559  0.0460  0.5881 -1.3612
  126OSM   C17F13456   3.340   7.368   4.653  0.2808  0.0927  0.4788
  126OSM   H17F13457   3.331   7.447   4.730 -0.3225  0.6019 -0.0883
  126OSM   H17G13458   3.444   7.373   4.616  0.5546  0.0998  1.2409
  126OSM   C18F13459   3.318   7.231   4.713 -0.0539  0.2182  0.6234
  126OSM   H18F13460   3.213   7.207   4.739 -0.0810 -0.4559 -0.0616
  126OSM   H18G13461   3.377   7.233   4.807  0.9373 -2.0334  0.1121
  126OSM   H18H13462   3.357   7.149   4.649 -0.6867  1.2835 -1.2278
  127OSM      N13463   3.833   2.355   2.396  0.1236  0.5525 -0.8306
  127OSM    C1513464   3.888   2.445   2.292 -0.0390  0.4314 -0.7873
  127OSM   H15A13465   3.958   2.405   2.220  1.7266  2.2689 -0.1811
  127OSM   H15B13466   3.946   2.523   2.339  1.3909 -0.5644 -0.8087
  127OSM   H15C13467   3.816   2.481   2.221  0.7930  1.8081 -0.9691
  127OSM    C1413468   3.757   2.248   2.331  0.2243  0.8328 -0.1349
  127OSM   H14A13469   3.659   2.280   2.296 -0.4306 -0.3658  0.5189
  127OSM   H14B13470   3.730   2.159   2.387  0.1275  0.8779 -0.1091
  127OSM   H14C13471   3.811   2.216   2.243  0.0074  0.1845 -0.0419
  127OSM    C1313472   3.945   2.282   2.465  0.4302  0.1661 -0.2751
  127OSM   H13A13473   3.901   2.219   2.541  1.1204  0.9504  0.8153
  127OSM   H13B13474   4.007   2.350   2.522  1.1020  0.6758 -1.5758
  127OSM   H13C13475   4.005   2.230   2.392 -1.8123 -1.0041 -1.3898
  127OSM    C1213476   3.767   2.440   2.499  0.0678  0.8469 -0.0196
  127OSM   H12A13477   3.687   2.495   2.452 -2.0777 -2.7712 -0.9768
  127OSM   H12B13478   3.834   2.519   2.529  0.6658  0.1129  0.6265
  127OSM    C1113479   3.709   2.380   2.634  0.2004  0.3084  0.6720
  127OSM   H11A13480   3.675   2.467   2.695 -0.8364 -0.2748  0.9488
  127OSM   H11B13481   3.788   2.332   2.695 -0.4763 -2.8396 -0.7027
  127OSM      P13482   3.460   2.342   2.582  0.3121 -0.3085 -0.3059
  127OSM    O1313483   3.475   2.458   2.485  0.3424  1.0168  0.1668
  127OSM    O1413484   3.375   2.227   2.543 -0.5167  0.7988 -0.5248
  127OSM    O1113485   3.416   2.404   2.720 -0.5820 -0.2095 -0.0343
  127OSM    O1213486   3.604   2.287   2.608 -0.4051 -0.2062 -0.2676
  127OSM    C1S13487   3.432   2.328   2.838 -0.7711 -0.0058  0.3120
  127OSM    H1S13488   3.539   2.336   2.867 -0.5091 -0.7570 -0.3904
  127OSM    H1T13489   3.420   2.219   2.820 -1.2443 -0.1624  1.5186
  127OSM     NF13490   3.399   2.321   3.080 -0.6601 -0.6472 -0.6705
  127OSM    HNF13491   3.332   2.277   3.140 -2.0227  3.1640  0.9944
  127OSM    C2S13492   3.349   2.376   2.953  0.1949 -0.2055 -1.0949
  127OSM    H2S13493   3.374   2.483   2.970  1.5584 -0.9756  3.0366
  127OSM    C3S13494   3.205   2.351   2.927 -0.6521 -0.3121  0.8583
  127OSM    H3S13495   3.185   2.242   2.921 -1.3932 -0.1391 -0.0715
  127OSM     O313496   3.165   2.401   2.805 -0.0713  0.0942  0.0475
  127OSM    HO313497   3.242   2.409   2.748 -2.0523 -0.9107 -3.0567
  127OSM    C4S13498   3.124   2.417   3.037 -0.8654 -0.9636  0.4559
  127OSM    H4S13499   3.171   2.503   3.087 -1.6353 -0.5424  0.4765
  127OSM    C5S13500   3.006   2.375   3.086 -0.5517 -0.1454  0.3447
  127OSM    H5S13501   2.955   2.285   3.049 -1.7388  0.0160  1.5340
  127OSM    C6S13502   2.931   2.423   3.209 -0.0201  0.9267 -0.1381
  127OSM    H6S13503   2.872   2.340   3.253  0.7123  0.5634  0.1634
  127OSM    H6T13504   2.860   2.503   3.176 -1.0884 -0.3373 -1.0052
  127OSM    C7S13505   3.018   2.460   3.334 -0.6911  0.2311  0.5874
  127OSM    H7S13506   3.101   2.532   3.319 -0.5818  0.2522  1.2611
  127OSM    H7T13507   3.049   2.373   3.395 -3.5929 -2.4284 -1.4277
  127OSM    C8S13508   2.932   2.540   3.429 -0.0399  0.1171 -0.2762
  127OSM    H8S13509   2.850   2.471   3.458  0.0848  0.4865  1.0294
  127OSM    H8T13510   2.889   2.631   3.383 -3.2881 -0.4698  1.2755
  127OSM    C9S13511   3.013   2.577   3.555 -0.0545  0.1425  0.8352
  127OSM    H9S13512   3.093   2.646   3.521 -0.0305 -0.2910 -0.0177
  127OSM    H9T13513   3.063   2.490   3.603  2.4898  0.6548 -0.6962
  127OSM   C10S13514   2.925   2.655   3.663  0.0591  0.7206  0.5488
  127OSM   H10S13515   2.828   2.601   3.672 -1.3724  2.7195 -1.5965
  127OSM   H10T13516   2.895   2.757   3.630 -3.2334 -0.2328  0.1934
  127OSM   C11S13517   2.980   2.651   3.810 -0.2070 -0.4646  0.6626
  127OSM   H11S13518   3.088   2.673   3.819 -0.1602 -0.7548  0.8116
  127OSM   H11T13519   2.973   2.551   3.858 -2.5349  0.1885  1.8751
  127OSM   C12S13520   2.897   2.743   3.899  0.2250 -0.7350  0.4014
  127OSM   H12S13521   2.794   2.706   3.921  0.1619  0.5796  2.7802
  127OSM   H12T13522   2.889   2.840   3.845 -0.0439 -1.2327 -0.4608
  127OSM   C13S13523   2.971   2.776   4.031 -0.0922  0.8768 -0.5197
  127OSM   H13S13524   3.075   2.809   4.010 -0.0805  0.4238 -1.1670
  127OSM   H13T13525   2.986   2.683   4.090 -1.1787  0.6553 -0.5710
  127OSM   C14S13526   2.892   2.866   4.128  0.1145 -0.0739  0.4384
  127OSM   H14S13527   2.851   2.954   4.074  0.7107  1.3206  2.1674
  127OSM   H14T13528   2.969   2.899   4.201  0.9272  1.0486 -0.8831
  127OSM   C15S13529   2.778   2.795   4.213 -0.4641 -0.1435 -0.2279
  127OSM   H15S13530   2.820   2.697   4.244  1.2772  1.0728  1.4987
  127OSM   H15T13531   2.689   2.785   4.147 -0.7781  4.3815 -0.8115
  127OSM   C16S13532   2.726   2.872   4.341  0.2207  0.1872  0.2062
  127OSM   H16S13533   2.815   2.883   4.406  1.8582 -0.7157 -1.7548
  127OSM   H16T13534   2.643   2.814   4.386  0.8711 -0.6783  0.3072
  127OSM   C17S13535   2.679   3.024   4.319  0.1306  0.5181 -0.4174
  127OSM   H17S13536   2.600   3.018   4.241 -0.0458  0.2405 -0.2183
  127OSM   H17T13537   2.773   3.079   4.294  0.7974 -0.3178  0.1872
  127OSM   C18S13538   2.624   3.086   4.449  0.2833  0.0963  1.3174
  127OSM   H18S13539   2.705   3.103   4.523  1.6018  0.9559 -0.2610
  127OSM   H18T13540   2.538   3.031   4.493  0.2108  0.8153  2.0841
  127OSM   H18U13541   2.587   3.187   4.420 -0.9700 -0.1965  1.8458
  127OSM    C1F13542   3.517   2.340   3.149 -0.7301  0.3209  0.4744
  127OSM     OF13543   3.615   2.394   3.088  0.4373  0.4491 -0.7906
  127OSM    C2F13544   3.520   2.287   3.295 -0.1126  0.2515 -0.5856
  127OSM    H2F13545   3.579   2.193   3.295 -0.8439 -0.2479  1.0763
  127OSM    H2G13546   3.415   2.255   3.312 -0.7382  1.8793 -1.1799
  127OSM    C3F13547   3.556   2.393   3.404  0.6467 -0.7011 -0.0536
  127OSM    H3F13548   3.652   2.431   3.363 -0.4719  0.9233 -1.3281
  127OSM    H3G13549   3.566   2.343   3.502 -1.0979 -0.5031  0.2543
  127OSM    C4F13550   3.458   2.518   3.412  0.0645 -0.5945 -0.0798
  127OSM    H4F13551   3.358   2.482   3.444 -0.1305  1.0862  1.3583
  127OSM    H4G13552   3.447   2.572   3.316  0.7818 -1.4358 -0.6423
  127OSM    C5F13553   3.509   2.603   3.525 -0.3162 -0.2406  0.0323
  127OSM    H5F13554   3.588   2.662   3.474  0.2418 -2.5548 -1.9724
  127OSM    H5G13555   3.537   2.538   3.612 -3.2124  0.5822  1.6954
  127OSM    C6F13556   3.396   2.686   3.580  0.3453  0.3897 -0.0335
  127OSM    H6F13557   3.310   2.618   3.599 -0.9350  1.7326 -0.9089
  127OSM    H6G13558   3.365   2.751   3.496 -1.1189  0.2745  0.3913
  127OSM    C7F13559   3.422   2.777   3.696 -0.1628  0.1711 -0.9566
  127OSM    H7F13560   3.326   2.826   3.722 -0.0920  0.0042 -0.3455
  127OSM    H7G13561   3.502   2.851   3.677 -1.7260  2.0082 -0.6827
  127OSM    C8F13562   3.465   2.705   3.829 -0.0790 -0.1266 -0.2453
  127OSM    H8F13563   3.556   2.641   3.818 -0.0072  0.1158 -1.0877
  127OSM    H8G13564   3.382   2.640   3.864  1.1646 -1.7281 -0.1460
  127OSM    C9F13565   3.496   2.814   3.938 -0.1464  0.1486  0.5739
  127OSM    H9F13566   3.540   2.908   3.902  0.6181 -0.6577 -0.6666
  127OSM   C10F13567   3.450   2.814   4.065 -0.0911 -0.1158  0.4403
  127OSM   H10F13568   3.463   2.905   4.126  0.0217  0.8699 -0.9985
  127OSM   C11F13569   3.378   2.699   4.127 -0.3278  0.9809 -0.0030
  127OSM   H11F13570   3.401   2.600   4.081 -0.5895  0.4707  0.9235
  127OSM   H11G13571   3.268   2.710   4.115 -0.4709 -0.8975 -0.8609
  127OSM   C12F13572   3.408   2.709   4.279 -0.2379  0.0981  0.0169
  127OSM   H12F13573   3.517   2.720   4.300 -0.1659 -2.8237  1.6227
  127OSM   H12G13574   3.385   2.608   4.317  0.9934  0.5756  2.2322
  127OSM   C13F13575   3.320   2.808   4.357 -0.2011 -0.7928 -0.6737
  127OSM   H13F13576   3.218   2.782   4.321  0.2682 -3.1750 -0.4422
  127OSM   H13G13577   3.351   2.915   4.351  1.6236 -1.1142  1.6918
  127OSM   C14F13578   3.321   2.766   4.505  0.1532 -0.6954  0.4775
  127OSM   H14F13579   3.425   2.759   4.542  0.4975 -0.8655 -0.4871
  127OSM   H14G13580   3.278   2.664   4.516  0.4271 -0.6062  2.7903
  127OSM   C15F13581   3.254   2.852   4.617  0.2252  0.8340  0.5680
  127OSM   H15F13582   3.250   2.793   4.711 -1.0762 -1.0197 -0.5860
  127OSM   H15G13583   3.153   2.877   4.577 -1.2942 -2.5169  1.9204
  127OSM   C16F13584   3.338   2.977   4.650  0.3190  0.0153 -0.3285
  127OSM   H16F13585   3.340   3.043   4.561  0.0032 -0.1304 -0.4440
  127OSM   H16G13586   3.442   2.950   4.678  1.2568  3.1167 -0.5196
  127OSM   C17F13587   3.276   3.061   4.765 -0.6401 -0.2869 -0.6025
  127OSM   H17F13588   3.289   3.003   4.860 -4.5060 -0.1434  0.1647
  127OSM   H17G13589   3.166   3.069   4.753 -0.6516 -0.8968 -0.9332
  127OSM   C18F13590   3.338   3.198   4.789  0.0464 -0.2001  0.5749
  127OSM   H18F13591   3.306   3.257   4.701 -1.5527 -1.7756  0.0390
  127OSM   H18G13592   3.448   3.183   4.797  0.2598  0.5309 -0.7599
  127OSM   H18H13593   3.293   3.239   4.882  1.8079 -0.2156  1.4898
  128OSM      N13594   2.082   0.755   2.688  0.6967 -0.2511  0.0674
  128OSM    C1513595   2.111   0.665   2.796  0.1233  0.7293 -0.5599
  128OSM   H15A13596   2.113   0.562   2.762 -1.3329  1.4511 -3.1191
  128OSM   H15B13597   2.035   0.663   2.873  0.4148  0.5337 -0.2785
  128OSM   H15C13598   2.209   0.685   2.837  0.4919 -0.9835 -0.5244
  128OSM    C1413599   2.163   0.732   2.567 -0.2113 -0.7734 -0.7669
  128OSM   H14A13600   2.135   0.642   2.514 -0.2919 -0.2867 -1.5749
  128OSM   H14B13601   2.264   0.708   2.596 -0.8069 -1.3402  0.9701
  128OSM   H14C13602   2.144   0.809   2.493  0.1727 -0.3597 -0.4373
  128OSM    C1313603   1.930   0.744   2.650  0.8036  0.0989 -0.5947
  128OSM   H13A13604   1.905   0.641   2.628  3.6236 -1.4721  2.5316
  128OSM   H13B13605   1.909   0.804   2.563 -0.7379 -1.5564 -1.4109
  128OSM   H13C13606   1.870   0.779   2.733  1.9541 -0.1197  0.3643
  128OSM    C1213607   2.116   0.897   2.729 -0.6547 -0.3991  0.1596
  128OSM   H12A13608   2.100   0.962   2.644 -1.9982 -1.5880 -0.5376
  128OSM   H12B13609   2.221   0.903   2.755 -0.7700  0.1321  0.5157
  128OSM    C1113610   2.030   0.969   2.838 -1.0728 -1.0533 -0.6147
  128OSM   H11A13611   2.081   1.063   2.866 -0.3765 -1.0741 -1.7524
  128OSM   H11B13612   2.042   0.899   2.924  0.5224 -1.5444 -1.1986
  128OSM      P13613   1.776   0.975   2.902  0.2384  0.2656  0.2158
  128OSM    O1313614   1.653   1.036   2.848  0.2120 -0.3713  0.3345
  128OSM    O1413615   1.766   0.828   2.945 -0.0022 -0.3202  0.1969
  128OSM    O1113616   1.813   1.063   3.029 -0.4962  0.1802 -0.0188
  128OSM    O1213617   1.898   0.988   2.799 -0.2642  0.4539  0.1560
  128OSM    C1S13618   1.855   1.195   3.045 -0.7181 -0.3185 -0.3194
  128OSM    H1S13619   1.796   1.250   2.968 -1.8755  1.1059  1.5041
  128OSM    H1T13620   1.959   1.209   3.007 -1.6441 -1.3003 -3.5423
  128OSM     NF13621   1.875   1.406   3.169 -0.0948 -0.3307  0.0919
  128OSM    HNF13622   1.950   1.445   3.222 -0.6665 -0.7154  1.2025
  128OSM    C2S13623   1.859   1.263   3.183  0.9042  0.6127  0.9414
  128OSM    H2S13624   1.755   1.255   3.220  0.5796 -1.4508 -0.2314
  128OSM    C3S13625   1.938   1.181   3.284 -0.0037  0.3726 -0.4560
  128OSM    H3S13626   2.045   1.201   3.259  0.1185  1.0157  0.5073
  128OSM     O313627   1.925   1.043   3.270 -0.5780  0.8882  0.1574
  128OSM    HO313628   1.885   1.026   3.184  0.4441 -1.6558  0.0873
  128OSM    C4S13629   1.913   1.232   3.424 -0.8920 -0.0310 -0.1034
  128OSM    H4S13630   1.978   1.315   3.454 -1.0023 -0.3373  1.0179
  128OSM    C5S13631   1.829   1.186   3.511  0.4894  0.4299  0.5224
  128OSM    H5S13632   1.757   1.111   3.477  0.4647  1.0712 -0.8788
  128OSM    C6S13633   1.814   1.236   3.656 -0.3497 -0.2706 -0.0157
  128OSM    H6S13634   1.838   1.155   3.729 -0.8436  1.2175  1.8743
  128OSM    H6T13635   1.709   1.266   3.677 -1.3226 -1.8445 -2.2133
  128OSM    C7S13636   1.902   1.354   3.694  0.2674 -1.1908 -0.2017
  128OSM    H7S13637   1.848   1.442   3.653  0.9276 -1.2606 -1.2685
  128OSM    H7T13638   2.008   1.351   3.660  1.2714  0.8512  2.4433
  128OSM    C8S13639   1.910   1.371   3.845  0.1513  0.2196 -0.2094
  128OSM    H8S13640   1.963   1.466   3.865 -0.5712  0.3842  1.0151
  128OSM    H8T13641   1.968   1.290   3.895 -2.6180 -1.1599  1.0221
  128OSM    C9S13642   1.775   1.380   3.924 -0.3456  0.2183 -0.0444
  128OSM    H9S13643   1.800   1.377   4.032  2.5066 -2.1675 -0.6425
  128OSM    H9T13644   1.716   1.288   3.906  3.1228 -2.1131 -0.5750
  128OSM   C10S13645   1.673   1.488   3.884  0.2671  0.1591 -0.9185
  128OSM   H10S13646   1.581   1.447   3.930  0.0610  1.8795  0.2892
  128OSM   H10T13647   1.658   1.499   3.774  0.3532  3.1035 -0.7310
  128OSM   C11S13648   1.714   1.607   3.964  0.0252 -0.0471  0.7716
  128OSM   H11S13649   1.824   1.620   3.955  0.3266 -1.5487  1.8153
  128OSM   H11T13650   1.696   1.576   4.070  1.9322 -3.8041  0.1629
  128OSM   C12S13651   1.636   1.730   3.917  0.7482 -0.4290 -0.4255
  128OSM   H12S13652   1.527   1.713   3.932  0.9385  0.5040  2.7872
  128OSM   H12T13653   1.666   1.747   3.811  1.9732  2.2130  0.2739
  128OSM   C13S13654   1.671   1.862   3.997  0.3964 -0.1296 -0.3638
  128OSM   H13S13655   1.768   1.906   3.966  0.6231 -1.7441 -2.0937
  128OSM   H13T13656   1.670   1.830   4.104 -0.7784  0.4937 -0.1748
  128OSM   C14S13657   1.570   1.976   3.977  0.8373  0.0026  0.6571
  128OSM   H14S13658   1.473   1.921   3.979  2.2710 -2.6910  1.8884
  128OSM   H14T13659   1.599   2.014   3.877 -1.7504  1.1098  0.2303
  128OSM   C15S13660   1.573   2.088   4.073 -0.5638  0.0987  1.2840
  128OSM   H15S13661   1.523   2.178   4.031 -0.8327  0.3222  2.0696
  128OSM   H15T13662   1.679   2.118   4.092 -0.1911  0.7707 -1.3740
  128OSM   C16S13663   1.495   2.058   4.199  0.9008 -0.1374  0.3331
  128OSM   H16S13664   1.516   1.957   4.241  2.3284  0.3187  0.7805
  128OSM   H16T13665   1.387   2.072   4.175  0.8196  0.8205  1.2164
  128OSM   C17S13666   1.537   2.165   4.304 -0.0616  0.2577 -0.4329
  128OSM   H17S13667   1.456   2.173   4.379  0.4484  1.0995  0.0436
  128OSM   H17T13668   1.541   2.259   4.245  1.5679 -0.7068 -1.9889
  128OSM   C18S13669   1.673   2.128   4.373  0.0882  0.3831 -0.4101
  128OSM   H18S13670   1.742   2.081   4.299 -1.1426 -2.6032  0.2151
  128OSM   H18T13671   1.658   2.053   4.454 -0.5342 -1.8728 -2.5079
  128OSM   H18U13672   1.726   2.218   4.413  1.2895 -0.4213 -0.1255
  128OSM    C1F13673   1.794   1.497   3.100  0.4430  0.3558 -0.7312
  128OSM     OF13674   1.686   1.462   3.052 -0.6020  0.1221  0.0291
  128OSM    C2F13675   1.843   1.634   3.094 -0.4577 -0.5645 -0.3717
  128OSM    H2F13676   1.875   1.644   2.987 -0.0765  0.3923 -0.1813
  128OSM    H2G13677   1.924   1.667   3.162 -1.2827  0.1327  0.2789
  128OSM    C3F13678   1.721   1.737   3.122  0.0698  0.4308  0.9332
  128OSM    H3F13679   1.662   1.726   3.028 -0.8895  0.1504  1.5499
  128OSM    H3G13680   1.762   1.840   3.113  1.5756 -0.2466 -0.2883
  128OSM    C4F13681   1.632   1.711   3.237  0.8654  0.7805 -0.6729
  128OSM    H4F13682   1.563   1.626   3.221  2.6231 -1.6487  3.2939
  128OSM    H4G13683   1.555   1.792   3.238 -3.4222 -2.8790  0.9287
  128OSM    C5F13684   1.720   1.699   3.366  0.3448 -0.3865  0.1278
  128OSM    H5F13685   1.747   1.801   3.400 -3.1672  0.3468  1.0463
  128OSM    H5G13686   1.816   1.649   3.339 -0.3566 -1.0926 -1.1724
  128OSM    C6F13687   1.655   1.622   3.482  0.3214  0.3915  0.1424
  128OSM    H6F13688   1.561   1.676   3.506 -0.9395 -0.2502 -2.9147
  128OSM    H6G13689   1.724   1.601   3.566 -2.1232 -1.9639  1.7059
  128OSM    C7F13690   1.607   1.479   3.440  0.3683 -0.3647 -0.7041
  128OSM    H7F13691   1.632   1.413   3.526 -0.9302 -0.5235 -0.4299
  128OSM    H7G13692   1.669   1.439   3.357  0.5477  0.2183 -0.8519
  128OSM    C8F13693   1.454   1.459   3.419 -0.4034  0.1165  0.9523
  128OSM    H8F13694   1.422   1.527   3.338 -2.2099 -1.1115  0.5628
  128OSM    H8G13695   1.409   1.491   3.515  0.9755 -1.1563  2.0834
  128OSM    C9F13696   1.427   1.313   3.380  0.8443  0.3919 -0.6030
  128OSM    H9F13697   1.494   1.277   3.301 -0.9720 -1.0536 -1.5751
  128OSM   C10F13698   1.346   1.225   3.441  0.3460 -0.3606 -0.1620
  128OSM   H10F13699   1.333   1.125   3.398  2.1420 -0.7366  0.0849
  128OSM   C11F13700   1.265   1.247   3.563  0.3677 -0.0036  0.7142
  128OSM   H11F13701   1.168   1.193   3.553  0.3702  0.3553 -1.7594
  128OSM   H11G13702   1.248   1.356   3.575 -0.1535 -0.1341  1.2599
  128OSM   C12F13703   1.338   1.198   3.697  0.3607 -0.3081 -0.7000
  128OSM   H12F13704   1.438   1.246   3.691  0.5062 -0.7389 -2.3336
  128OSM   H12G13705   1.350   1.087   3.695  0.7582 -0.3391  1.2796
  128OSM   C13F13706   1.270   1.237   3.829 -0.3620  0.9948  0.4681
  128OSM   H13F13707   1.173   1.184   3.844 -0.5273  1.5997  1.6210
  128OSM   H13G13708   1.236   1.343   3.828  2.1250  1.8458  0.3812
  128OSM   C14F13709   1.356   1.220   3.957 -0.2731 -0.5651 -0.7209
  128OSM   H14F13710   1.444   1.287   3.962 -2.6474  2.6987  2.0979
  128OSM   H14G13711   1.390   1.117   3.984  1.6203  0.3473  0.5404
  128OSM   C15F13712   1.266   1.249   4.083 -0.0268  0.4032  0.3984
  128OSM   H15F13713   1.200   1.159   4.086  0.2390  0.1718 -0.3207
  128OSM   H15G13714   1.212   1.345   4.074  1.0452  0.8835 -1.5461
  128OSM   C16F13715   1.325   1.246   4.226 -0.0161  0.1342  0.0821
  128OSM   H16F13716   1.372   1.146   4.234 -0.5882 -0.0702  1.1173
  128OSM   H16G13717   1.240   1.247   4.298 -1.8919  3.2377 -1.9402
  128OSM   C17F13718   1.436   1.345   4.254  0.3582 -0.1886  0.1025
  128OSM   H17F13719   1.391   1.446   4.262 -0.5811 -0.6609  1.0504
  128OSM   H17G13720   1.508   1.344   4.169 -0.6512 -0.2060 -0.7781
  128OSM   C18F13721   1.516   1.324   4.385 -0.4973  0.1205  0.5873
  128OSM   H18F13722   1.573   1.418   4.402 -1.7479  0.6556  2.1652
  128OSM   H18G13723   1.595   1.248   4.371  0.5381  0.6585  2.9220
  128OSM   H18H13724   1.451   1.303   4.474  0.6705 -0.0317  1.4251
  129OSM      N13725   4.021   5.877   2.827  0.2422  0.2893 -0.4979
  129OSM    C1513726   3.890   5.886   2.753 -0.8391 -1.0889 -0.2174
  129OSM   H15A13727   3.895   5.945   2.662 -2.5989  2.0294  1.5297
  129OSM   H15B13728   3.811   5.930   2.812 -1.8795 -0.4638 -2.0200
  129OSM   H15C13729   3.854   5.788   2.727 -3.9287 -0.1171  0.0169
  129OSM    C1413730   4.012   5.758   2.918 -0.3424 -0.2471 -0.5930
  129OSM   H14A13731   3.970   5.782   3.014  2.2005 -2.4271  1.1791
  129OSM   H14B13732   4.111   5.729   2.949 -0.4889  0.7649  0.8939
  129OSM   H14C13733   3.952   5.674   2.886  0.1473 -0.8425  0.0316
  129OSM    C1313734   4.126   5.848   2.725  0.3983 -0.4496 -0.0941
  129OSM   H13A13735   4.222   5.837   2.774 -0.6046 -0.4179  1.9651
  129OSM   H13B13736   4.120   5.923   2.648 -1.6031 -0.4477  0.0238
  129OSM   H13C13737   4.104   5.757   2.670  2.8856 -1.2329  0.0555
  129OSM    C1213738   4.048   6.007   2.902  0.1130  0.1839 -0.7043
  129OSM   H12A13739   4.075   6.084   2.832  1.8096 -0.4457 -0.7933
  129OSM   H12B13740   4.145   6.011   2.949  0.4198 -0.5740 -1.2489
  129OSM    C1113741   3.957   6.062   3.018  0.8432  0.2914 -0.0706
  129OSM   H11A13742   4.001   6.154   3.061  2.6781 -0.2108 -0.7919
  129OSM   H11B13743   3.971   5.976   3.087  0.4041  0.3037  0.0339
  129OSM      P13744   3.727   6.188   2.970  0.5015 -0.0756 -0.1550
  129OSM    O1313745   3.758   6.256   2.841 -0.3743 -0.2245  0.2053
  129OSM    O1413746   3.592   6.133   2.996  0.1818  0.2726  0.6682
  129OSM    O1113747   3.766   6.280   3.090  0.0213 -0.1518 -0.2915
  129OSM    O1213748   3.816   6.055   2.978 -0.5195  0.0384  0.3689
  129OSM    C1S13749   3.767   6.239   3.221 -0.3242  0.0894 -0.2532
  129OSM    H1S13750   3.819   6.141   3.219  0.7979  0.6873 -2.2162
  129OSM    H1T13751   3.667   6.214   3.263  0.1062 -1.4883 -0.0926
  129OSM     NF13752   3.830   6.288   3.446 -0.8691 -0.0759  0.0804
  129OSM    HNF13753   3.761   6.331   3.504 -0.8700 -0.8131  0.6307
  129OSM    C2S13754   3.846   6.335   3.310 -0.7546 -0.1646  0.5654
  129OSM    H2S13755   3.951   6.319   3.280 -1.1837 -0.1689 -1.0394
  129OSM    C3S13756   3.811   6.484   3.277 -0.0207 -0.6724 -0.2828
  129OSM    H3S13757   3.701   6.495   3.281  0.0717  0.5799 -0.7011
  129OSM     O313758   3.854   6.539   3.156  0.0230 -0.1322  0.0658
  129OSM    HO313759   3.895   6.466   3.110  0.0636 -0.8684  1.2357
  129OSM    C4S13760   3.867   6.570   3.390 -0.1615 -0.4527  0.3909
  129OSM    H4S13761   3.784   6.604   3.454 -0.7199  3.4953 -2.0452
  129OSM    C5S13762   3.983   6.639   3.392  0.9470  0.7483 -0.6969
  129OSM    H5S13763   4.048   6.639   3.303  1.4729  2.5974 -0.3489
  129OSM    C6S13764   4.025   6.741   3.496 -0.7899  0.0479 -0.0610
  129OSM    H6S13765   3.975   6.834   3.462 -0.8027 -0.2079 -0.7639
  129OSM    H6T13766   4.133   6.751   3.475 -1.1363  0.2202 -1.9812
  129OSM    C7S13767   4.005   6.702   3.644 -0.4176  0.0843  0.4041
  129OSM    H7S13768   4.050   6.606   3.678 -1.5323 -0.6749 -0.1977
  129OSM    H7T13769   3.900   6.700   3.679 -0.3406  0.3041  0.6542
  129OSM    C8S13770   4.071   6.825   3.719  0.5396  0.1508  0.2134
  129OSM    H8S13771   4.036   6.916   3.667  0.1856  1.3397  2.3784
  129OSM    H8T13772   4.181   6.816   3.705  1.5161  2.6723  4.3210
  129OSM    C9S13773   4.041   6.826   3.870  0.0065 -0.4383  0.4340
  129OSM    H9S13774   4.095   6.737   3.907  0.6308  0.3837  1.5486
  129OSM    H9T13775   3.930   6.828   3.873  0.0139  1.5527  0.9801
  129OSM   C10S13776   4.105   6.943   3.940  0.0746 -0.3374 -0.0315
  129OSM   H10S13777   4.058   7.037   3.904 -0.0514 -0.6602 -0.7224
  129OSM   H10T13778   4.216   6.953   3.934  0.2044  0.1012  2.1641
  129OSM   C11S13779   4.076   6.929   4.088 -0.2142  0.1910  0.9129
  129OSM   H11S13780   4.110   6.826   4.113  4.0092 -0.0592 -4.0887
  129OSM   H11T13781   3.966   6.926   4.106 -0.1791 -2.5435  1.0222
  129OSM   C12S13782   4.150   7.034   4.176 -0.4742  0.9960  0.1850
  129OSM   H12S13783   4.083   7.120   4.198 -0.7447  1.0809 -0.9324
  129OSM   H12T13784   4.248   7.066   4.134 -0.7937  1.8397  0.0658
  129OSM   C13S13785   4.185   6.973   4.320  0.6650 -0.3297  0.1627
  129OSM   H13S13786   4.234   6.874   4.305 -0.9681 -1.0236 -0.9838
  129OSM   H13T13787   4.085   6.958   4.368  1.2350  1.2447  1.9253
  129OSM   C14S13788   4.261   7.066   4.414  0.7915 -0.1211  0.2565
  129OSM   H14S13789   4.223   7.168   4.395 -0.6970 -1.1487 -2.8968
  129OSM   H14T13790   4.370   7.052   4.395  0.1610 -3.0486 -1.8271
  129OSM   C15S13791   4.245   7.026   4.561  0.9714 -0.8771  0.4820
  129OSM   H15S13792   4.140   7.044   4.590  1.6935  2.1610  1.5144
  129OSM   H15T13793   4.295   7.100   4.627 -0.1929  1.0090 -0.6743
  129OSM   C16S13794   4.309   6.891   4.593  0.3373 -0.0980  0.3688
  129OSM   H16S13795   4.413   6.909   4.557  0.3643  0.9348  0.9160
  129OSM   H16T13796   4.264   6.817   4.524 -3.1034 -0.8918  3.1587
  129OSM   C17S13797   4.305   6.847   4.736 -0.2333 -0.1617  0.3631
  129OSM   H17S13798   4.390   6.899   4.785 -0.1774  1.3589 -1.2383
  129OSM   H17T13799   4.327   6.738   4.745 -1.1573 -0.5414 -1.5178
  129OSM   C18S13800   4.175   6.879   4.816  0.0527  0.1224 -0.4940
  129OSM   H18S13801   4.163   6.804   4.897  0.2423  0.6286  0.0066
  129OSM   H18T13802   4.085   6.867   4.750  0.0028  3.3463 -1.1581
  129OSM   H18U13803   4.188   6.980   4.859  0.4082 -0.6442  1.2574
  129OSM    C1F13804   3.890   6.178   3.487 -0.8360  0.4470 -0.1585
  129OSM     OF13805   3.974   6.118   3.421  0.0559  0.2916 -0.0476
  129OSM    C2F13806   3.841   6.128   3.618 -0.3222  0.3099 -0.5454
  129OSM    H2F13807   3.765   6.054   3.586  1.4734 -0.6725 -2.8553
  129OSM    H2G13808   3.800   6.214   3.675  1.0222 -0.3787  1.5388
  129OSM    C3F13809   3.942   6.049   3.708 -0.5892  0.2187  0.5959
  129OSM    H3F13810   4.029   6.115   3.727 -0.2021  0.2647 -1.1935
  129OSM    H3G13811   3.976   5.959   3.652  0.8081  1.7406 -1.1163
  129OSM    C4F13812   3.866   6.007   3.842 -0.2446 -0.4868 -0.1112
  129OSM    H4F13813   3.939   5.943   3.897 -1.6071 -1.0068  1.1545
  129OSM    H4G13814   3.779   5.940   3.830  0.5447 -1.9199  1.6471
  129OSM    C5F13815   3.817   6.121   3.938 -0.3535  0.4832  0.0260
  129OSM    H5F13816   3.709   6.135   3.916 -0.6566 -1.6256  0.0301
  129OSM    H5G13817   3.875   6.213   3.912  2.2046 -0.8500  0.6497
  129OSM    C6F13818   3.818   6.078   4.084 -0.0565 -0.3530  0.0584
  129OSM    H6F13819   3.923   6.065   4.118 -0.6511 -3.0894  1.1144
  129OSM    H6G13820   3.772   5.977   4.076  2.7420 -1.7531  0.2387
  129OSM    C7F13821   3.759   6.181   4.180 -0.6416  0.2243  0.4185
  129OSM    H7F13822   3.681   6.245   4.135 -0.1333 -0.8199 -2.1270
  129OSM    H7G13823   3.838   6.252   4.213 -0.0792  0.1925 -0.8249
  129OSM    C8F13824   3.703   6.120   4.308 -0.4196 -0.4031 -0.0570
  129OSM    H8F13825   3.665   6.198   4.377 -1.2459 -1.6337  0.9169
  129OSM    H8G13826   3.787   6.068   4.360  3.2208 -0.7217 -5.3976
  129OSM    C9F13827   3.584   6.032   4.287 -0.3514 -0.4929 -1.1550
  129OSM    H9F13828   3.532   6.049   4.192 -1.3863  2.5642 -0.1681
  129OSM   C10F13829   3.523   5.961   4.389  0.0565  0.2555  0.2308
  129OSM   H10F13830   3.445   5.892   4.355 -0.5978  0.8705  0.4723
  129OSM   C11F13831   3.563   5.948   4.537  0.1503 -0.3057  0.1563
  129OSM   H11F13832   3.673   5.931   4.539  0.3314  0.7270 -0.1425
  129OSM   H11G13833   3.516   5.856   4.578  1.8956 -1.2082  0.2309
  129OSM   C12F13834   3.525   6.070   4.612  0.1219  0.0746 -0.0305
  129OSM   H12F13835   3.415   6.087   4.611 -0.0288 -0.8454 -0.9899
  129OSM   H12G13836   3.580   6.157   4.568  0.5029 -0.7300 -1.2049
  129OSM   C13F13837   3.562   6.056   4.760  0.0757  0.0256 -1.3836
  129OSM   H13F13838   3.673   6.064   4.768  0.0248 -0.5042  0.4448
  129OSM   H13G13839   3.542   5.954   4.798  2.4824  0.0303  0.1601
  129OSM   C14F13840   3.500   6.163   4.853  0.1323  0.3329 -0.0643
  129OSM   H14F13841   3.389   6.153   4.850  0.2021 -0.7358  0.5658
  129OSM   H14G13842   3.525   6.266   4.820  0.5438 -0.5457 -2.7677
  129OSM   C15F13843   3.546   6.146   4.995  0.1026 -0.0581 -0.2118
  129OSM   H15F13844   3.657   6.143   4.989  0.2256 -0.2125  1.7295
  129OSM   H15G13845   3.504   6.048   5.025  0.2855 -0.3929 -0.9970
  129OSM   C16F13846   3.519   6.261   5.084 -0.7933 -0.1968 -0.0851
  129OSM   H16F13847   3.574   6.235   5.176  1.9244  1.8059 -1.0157
  129OSM   H16G13848   3.410   6.283   5.091 -0.9835  0.0474 -2.6530
  129OSM   C17F13849   3.588   6.396   5.043  0.3154  0.7170  0.9785
  129OSM   H17F13850   3.545   6.426   4.945 -0.1497 -0.0050  0.9521
  129OSM   H17G13851   3.695   6.374   5.026 -0.3392 -1.2923 -1.0900
  129OSM   C18F13852   3.573   6.511   5.141 -0.8305  0.5115  0.1656
  129OSM   H18F13853   3.611   6.602   5.090  2.6597 -0.2184  1.1828
  129OSM   H18G13854   3.636   6.491   5.231  0.4056 -1.2204 -1.0180
  129OSM   H18H13855   3.468   6.527   5.174 -0.3350  0.8534  1.6291
  130OSM      N13856   5.745   2.909   2.647  0.0837  0.6200  0.0856
  130OSM    C1513857   5.872   2.952   2.602 -1.0875 -1.1655  1.0248
  130OSM   H15A13858   5.947   2.944   2.680  0.0517 -0.3205  0.0535
  130OSM   H15B13859   5.871   3.054   2.567 -1.8821 -1.2379  0.8235
  130OSM   H15C13860   5.913   2.897   2.518  1.4391  0.9784  0.7128
  130OSM    C1413861   5.657   2.910   2.534  0.2962  0.3836  0.2134
  130OSM   H14A13862   5.630   3.011   2.509  2.1736  0.0816 -3.8639
  130OSM   H14B13863   5.560   2.862   2.545  0.5620  0.2795  2.5252
  130OSM   H14C13864   5.697   2.876   2.439 -2.0247 -0.3225 -0.5855
  130OSM    C1313865   5.756   2.764   2.684 -0.1631  0.5432 -0.5221
  130OSM   H13A13866   5.667   2.711   2.715  1.0857 -0.8491  0.8361
  130OSM   H13B13867   5.821   2.755   2.769 -0.6809 -0.2601 -0.1980
  130OSM   H13C13868   5.795   2.698   2.607  1.8275 -1.9194  2.3866
  130OSM    C1213869   5.684   2.983   2.768  0.6469 -0.5609  0.0798
  130OSM   H12A13870   5.756   2.979   2.848 -0.6756  0.9691  1.4270
  130OSM   H12B13871   5.606   2.918   2.806 -0.4004  1.0446  0.7790
  130OSM    C1113872   5.631   3.128   2.746  0.4444 -0.3259 -0.1508
  130OSM   H11A13873   5.715   3.191   2.709  0.1798 -0.3074 -0.7356
  130OSM   H11B13874   5.601   3.175   2.843  0.4805  2.6139 -1.4613
  130OSM      P13875   5.378   3.080   2.660 -0.0995 -0.5439 -0.4370
  130OSM    O1313876   5.285   3.188   2.618  0.4350 -0.2933  0.2421
  130OSM    O1413877   5.375   2.955   2.577  0.0725 -0.1850 -0.0395
  130OSM    O1113878   5.347   3.041   2.816  0.2063 -0.1483 -0.4384
  130OSM    O1213879   5.526   3.133   2.649  0.0548  0.1916 -0.5639
  130OSM    C1S13880   5.308   3.134   2.913  0.0538  0.2161  0.3871
  130OSM    H1S13881   5.201   3.160   2.897  0.6192  1.1400 -2.4761
  130OSM    H1T13882   5.371   3.225   2.909 -1.3273  1.2637  1.4650
  130OSM     NF13883   5.308   3.177   3.164  0.0413  0.5884  0.2855
  130OSM    HNF13884   5.391   3.228   3.187 -1.3975  2.6715  1.1325
  130OSM    C2S13885   5.330   3.076   3.061 -0.2744  0.3599 -0.2484
  130OSM    H2S13886   5.263   2.990   3.085  0.7534 -0.6405 -0.8752
  130OSM    C3S13887   5.466   3.004   3.073  0.2669  0.4570  0.2788
  130OSM    H3S13888   5.547   3.052   3.015  0.5507 -1.3384 -0.8859
  130OSM     O313889   5.477   2.880   3.002  0.0624 -0.0231 -0.0511
  130OSM    HO313890   5.413   2.887   2.931  1.8256  0.9912 -1.6394
  130OSM    C4S13891   5.493   2.984   3.221 -1.0350  0.5571  0.1104
  130OSM    H4S13892   5.542   3.065   3.277  1.7615 -2.8302  2.9725
  130OSM    C5S13893   5.443   2.880   3.290 -0.1287  0.2681  0.1112
  130OSM    H5S13894   5.380   2.808   3.236 -0.6390  0.7454  0.0573
  130OSM    C6S13895   5.451   2.860   3.438 -0.1306  0.6419  0.2117
  130OSM    H6S13896   5.480   2.754   3.456 -0.0627  0.4654 -0.8704
  130OSM    H6T13897   5.346   2.873   3.474 -0.0373  0.3498  0.5852
  130OSM    C7S13898   5.538   2.947   3.525 -0.1162 -0.0050  0.3312
  130OSM    H7S13899   5.497   3.050   3.533 -0.0576 -0.1038  2.7072
  130OSM    H7T13900   5.647   2.956   3.507  0.0215 -0.1090  1.0627
  130OSM    C8S13901   5.532   2.900   3.676  0.3196  0.1583 -0.5962
  130OSM    H8S13902   5.600   2.965   3.735  0.7355 -0.2008 -0.6718
  130OSM    H8T13903   5.580   2.804   3.703  0.2293  0.6069  1.2728
  130OSM    C9S13904   5.389   2.904   3.738 -0.6573 -0.5966 -0.6891
  130OSM    H9S13905   5.326   2.845   3.667 -2.8544 -0.4978  1.0694
  130OSM    H9T13906   5.362   3.012   3.734  0.6917 -0.2162 -0.1387
  130OSM   C10S13907   5.370   2.850   3.879 -0.5068 -0.2728  0.4165
  130OSM   H10S13908   5.408   2.746   3.890  1.9028  0.5899  0.8574
  130OSM   H10T13909   5.260   2.855   3.892 -0.4274  0.6452  0.8530
  130OSM   C11S13910   5.430   2.928   3.990  0.4356  0.6419 -0.5083
  130OSM   H11S13911   5.384   3.029   3.986 -0.7590  0.0951 -1.0809
  130OSM   H11T13912   5.540   2.931   3.976  0.4996 -2.1447 -1.1791
  130OSM   C12S13913   5.392   2.864   4.125  0.3491  0.1317 -0.2138
  130OSM   H12S13914   5.281   2.864   4.133  0.2590  2.1556 -0.7128
  130OSM   H12T13915   5.424   2.944   4.195 -1.7917  1.2880 -0.4554
  130OSM   C13S13916   5.447   2.726   4.160 -0.1014 -0.4713  0.0640
  130OSM   H13S13917   5.554   2.727   4.130  0.9291 -1.9508  3.2715
  130OSM   H13T13918   5.396   2.657   4.089 -0.5210  0.2531 -0.3525
  130OSM   C14S13919   5.439   2.688   4.308  0.4204 -0.3632 -0.2552
  130OSM   H14S13920   5.343   2.730   4.344  0.3192 -0.1743 -0.7323
  130OSM   H14T13921   5.522   2.744   4.356 -0.5004  1.6913 -0.9110
  130OSM   C15S13922   5.459   2.542   4.344 -0.3045  1.7469  0.1769
  130OSM   H15S13923   5.515   2.485   4.267 -0.8685 -1.6389  2.0771
  130OSM   H15T13924   5.366   2.482   4.344  0.0747  1.1530 -0.3729
  130OSM   C16S13925   5.542   2.519   4.475 -0.5326  0.5138  0.1768
  130OSM   H16S13926   5.643   2.565   4.472  0.8647 -2.1004  2.7159
  130OSM   H16T13927   5.541   2.408   4.481  0.7189  0.5109  0.5031
  130OSM   C17S13928   5.477   2.567   4.607  0.2066  0.6335  0.1958
  130OSM   H17S13929   5.396   2.498   4.641 -0.5416  1.6223  0.4853
  130OSM   H17T13930   5.443   2.672   4.597  2.4297  1.4154  0.3007
  130OSM   C18S13931   5.579   2.588   4.719  0.8292 -0.7332  0.3623
  130OSM   H18S13932   5.540   2.640   4.809 -3.0602 -1.8136 -0.5225
  130OSM   H18T13933   5.664   2.653   4.688 -1.0346  1.0920 -1.2694
  130OSM   H18U13934   5.613   2.493   4.766 -0.4584 -1.7125 -0.6220
  130OSM    C1F13935   5.186   3.223   3.191 -0.2140 -0.0969  0.3037
  130OSM     OF13936   5.091   3.167   3.140 -0.2405 -0.3276 -0.2802
  130OSM    C2F13937   5.178   3.346   3.282 -0.4348 -0.7791  0.0889
  130OSM    H2F13938   5.126   3.428   3.228 -1.3187 -1.2009  0.2769
  130OSM    H2G13939   5.280   3.385   3.300 -0.1731 -0.1445 -2.3378
  130OSM    C3F13940   5.116   3.304   3.418  1.0124 -0.1235 -0.7144
  130OSM    H3F13941   5.009   3.278   3.404  0.3343  0.9801  1.8743
  130OSM    H3G13942   5.127   3.397   3.479 -1.8289 -1.1148  1.5627
  130OSM    C4F13943   5.190   3.197   3.494 -0.3774 -0.1119  0.0324
  130OSM    H4F13944   5.297   3.215   3.473 -0.3292  0.6955  0.8978
  130OSM    H4G13945   5.170   3.091   3.468  0.2999 -0.8071  2.1767
  130OSM    C5F13946   5.164   3.213   3.649  0.1440  0.4191 -0.3485
  130OSM    H5F13947   5.158   3.320   3.681 -0.3762  0.8829 -1.8787
  130OSM    H5G13948   5.258   3.171   3.691  0.8325 -1.3080 -3.3405
  130OSM    C6F13949   5.051   3.123   3.704  0.1715 -0.0520  0.3495
  130OSM    H6F13950   5.092   3.023   3.730 -2.3631 -1.6163 -1.2312
  130OSM    H6G13951   4.975   3.116   3.623 -0.2318 -0.4874  0.7564
  130OSM    C7F13952   4.993   3.174   3.843 -0.4409 -0.3055 -0.2275
  130OSM    H7F13953   4.900   3.119   3.868 -0.5786  0.5464  1.2532
  130OSM    H7G13954   4.962   3.279   3.823  0.0274 -0.7232 -3.9180
  130OSM    C8F13955   5.081   3.165   3.965  0.3479 -1.0035  0.3364
  130OSM    H8F13956   5.178   3.215   3.940 -0.1587 -0.1037  0.1206
  130OSM    H8G13957   5.096   3.058   3.991 -1.0752 -1.9365 -2.3453
  130OSM    C9F13958   5.024   3.253   4.078  0.7418  1.0897 -0.1207
  130OSM    H9F13959   4.952   3.330   4.047 -0.9296 -1.0249 -1.8214
  130OSM   C10F13960   5.018   3.227   4.212  0.0627 -0.1362 -0.3453
  130OSM   H10F13961   4.978   3.311   4.271  3.0059  0.5791  0.8163
  130OSM   C11F13962   5.067   3.110   4.288 -0.2690 -0.4999  0.4409
  130OSM   H11F13963   5.178   3.110   4.293 -0.2315 -1.8440 -0.2250
  130OSM   H11G13964   5.044   3.015   4.236  2.9434 -1.3770  0.3864
  130OSM   C12F13965   5.022   3.114   4.433  0.0332  0.2444  0.5400
  130OSM   H12F13966   4.914   3.084   4.435 -0.0467  0.1499 -1.8308
  130OSM   H12G13967   5.038   3.211   4.484 -0.2203  0.2975  0.5216
  130OSM   C13F13968   5.097   3.014   4.526 -0.1456  0.3670 -0.1651
  130OSM   H13F13969   5.107   2.919   4.470 -0.0360  0.0402  0.4088
  130OSM   H13G13970   5.039   2.992   4.618  0.1167 -1.4376 -0.3968
  130OSM   C14F13971   5.239   3.054   4.559 -0.1112 -0.1349  0.1774
  130OSM   H14F13972   5.229   3.155   4.605 -2.3026 -0.9972  1.7678
  130OSM   H14G13973   5.296   3.056   4.463  0.4365 -1.0299  0.4782
  130OSM   C15F13974   5.312   2.953   4.650 -0.2589  0.1119 -0.3444
  130OSM   H15F13975   5.299   2.863   4.586 -0.0937  0.3083 -0.6550
  130OSM   H15G13976   5.259   2.928   4.745  0.5765  0.9298  0.3550
  130OSM   C16F13977   5.465   2.979   4.669  0.2940  0.5052 -0.6801
  130OSM   H16F13978   5.504   2.996   4.567  0.8552  0.1413 -0.5336
  130OSM   H16G13979   5.527   2.895   4.708 -0.4510 -0.1364 -0.8615
  130OSM   C17F13980   5.495   3.107   4.746  0.1959  0.3319 -1.1299
  130OSM   H17F13981   5.451   3.192   4.690 -1.4525 -0.9848 -1.9277
  130OSM   H17G13982   5.605   3.123   4.743  0.1819  0.4249 -1.1384
  130OSM   C18F13983   5.442   3.104   4.893 -0.0458  0.3314  0.4600
  130OSM   H18F13984   5.477   3.019   4.955 -0.6706  0.3705  0.8732
  130OSM   H18G13985   5.332   3.094   4.885  0.1285 -0.5187 -1.4691
  130OSM   H18H13986   5.466   3.194   4.953 -1.8484 -0.2755  2.1940
  131OSM      N13987   2.815   1.501   2.484  0.0680  0.2468 -0.2095
  131OSM    C1513988   2.958   1.455   2.489 -0.4027  0.1222 -1.1761
  131OSM   H15A13989   3.023   1.512   2.554 -0.1283 -0.9230 -0.5142
  131OSM   H15B13990   3.014   1.467   2.398  0.2870  1.1052 -0.6405
  131OSM   H15C13991   2.953   1.349   2.510  0.7774  0.3352  0.4297
  131OSM    C1413992   2.804   1.642   2.427  0.8285  0.3268 -0.2015
  131OSM   H14A13993   2.863   1.717   2.479 -0.3563  1.8413 -0.9741
  131OSM   H14B13994   2.700   1.665   2.441  1.2029  1.6993  0.6377
  131OSM   H14C13995   2.824   1.641   2.321  1.0203 -0.2223 -0.1649
  131OSM    C1313996   2.744   1.412   2.388  0.2576  0.9612  0.2397
  131OSM   H13A13997   2.789   1.395   2.291 -1.0536 -0.9312 -0.0985
  131OSM   H13B13998   2.639   1.435   2.377  0.1034  0.5719  0.8699
  131OSM   H13C13999   2.745   1.314   2.433  1.9184  1.1597  0.6686
  131OSM    C1214000   2.755   1.494   2.624 -0.2113 -0.4016 -0.0897
  131OSM   H12A14001   2.648   1.509   2.630 -0.0130  1.3614 -0.4052
  131OSM   H12B14002   2.808   1.572   2.676  2.1157 -0.3747 -2.3598
  131OSM    C1114003   2.759   1.364   2.704 -0.1798 -0.1375  0.1559
  131OSM   H11A14004   2.718   1.380   2.806  1.1594  1.2747  0.5096
  131OSM   H11B14005   2.866   1.338   2.720 -1.0392 -3.2626  1.5480
  131OSM      P14006   2.546   1.203   2.648  0.4992 -0.2738  0.0641
  131OSM    O1314007   2.471   1.321   2.697 -0.1268  0.1040  1.0061
  131OSM    O1414008   2.511   1.142   2.520  0.0553 -0.6157 -0.1263
  131OSM    O1114009   2.527   1.093   2.764 -0.1900 -0.4076 -0.3792
  131OSM    O1214010   2.702   1.247   2.641 -0.0402 -0.2418  0.1376
  131OSM    C1S14011   2.640   1.043   2.838  0.0991 -0.5632 -0.2373
  131OSM    H1S14012   2.713   1.124   2.853 -0.5963  0.0453 -0.0722
  131OSM    H1T14013   2.680   0.950   2.791 -0.5557 -1.4514  0.9189
  131OSM     NF14014   2.726   0.914   3.034 -0.3048 -0.4567 -0.1522
  131OSM    HNF14015   2.738   0.820   3.004 -2.9948  0.0897 -3.6232
  131OSM    C2S14016   2.605   0.984   2.978 -1.0525 -0.9653  0.0720
  131OSM    H2S14017   2.579   1.068   3.045  1.6574 -0.6438  0.8607
  131OSM    C3S14018   2.486   0.893   2.958  0.4866  0.4777 -0.2156
  131OSM    H3S14019   2.532   0.807   2.904  1.6675  0.8873  0.1099
  131OSM     O314020   2.379   0.937   2.874 -0.4973 -0.1728  0.2788
  131OSM    HO314021   2.417   1.011   2.825  0.7782 -1.1398 -0.2478
  131OSM    C4S14022   2.425   0.845   3.089  0.7605  0.0162 -0.1403
  131OSM    H4S14023   2.482   0.765   3.138  0.5409  1.0380  1.8748
  131OSM    C5S14024   2.323   0.904   3.145 -0.0328  0.0695  0.5602
  131OSM    H5S14025   2.278   0.994   3.099 -1.2582 -0.2941  1.0182
  131OSM    C6S14026   2.279   0.873   3.286 -0.5381  0.2140  0.0225
  131OSM    H6S14027   2.300   0.772   3.326 -1.4642 -1.7349 -3.9216
  131OSM    H6T14028   2.168   0.876   3.286 -0.5871  0.6299  2.5735
  131OSM    C7S14029   2.319   0.983   3.377 -0.2850 -0.4726 -1.0114
  131OSM    H7S14030   2.294   1.082   3.333  0.5698  1.2730  2.1550
  131OSM    H7T14031   2.430   0.982   3.381 -0.2392  1.1049 -1.1200
  131OSM    C8S14032   2.249   0.962   3.511 -0.3521 -0.3785 -0.3424
  131OSM    H8S14033   2.278   0.858   3.540  2.2277 -0.4595 -2.7806
  131OSM    H8T14034   2.138   0.955   3.502 -0.3493  0.5443 -1.3742
  131OSM    C9S14035   2.279   1.064   3.630  0.1106 -0.7338 -0.3692
  131OSM    H9S14036   2.252   1.167   3.598  0.4006  0.4722  2.9456
  131OSM    H9T14037   2.390   1.053   3.636  0.0363 -1.8214 -0.7216
  131OSM   C10S14038   2.208   1.036   3.760 -0.3349 -0.1223 -0.2322
  131OSM   H10S14039   2.219   0.927   3.776 -1.1803 -0.4032 -1.4178
  131OSM   H10T14040   2.098   1.046   3.757 -0.5796 -2.2013  0.0916
  131OSM   C11S14041   2.248   1.134   3.870  0.2311 -0.5125 -0.2405
  131OSM   H11S14042   2.200   1.228   3.835  0.7439 -0.0406  0.3062
  131OSM   H11T14043   2.359   1.134   3.874  0.3245 -3.2011 -0.8521
  131OSM   C12S14044   2.195   1.096   4.015  0.3735 -0.4790  0.3606
  131OSM   H12S14045   2.086   1.087   3.998  0.3286  0.2097  0.2615
  131OSM   H12T14046   2.215   1.181   4.084 -0.4463  0.2362 -0.2635
  131OSM   C13S14047   2.254   0.965   4.064 -0.1883  0.1749 -0.6480
  131OSM   H13S14048   2.360   0.987   4.089 -0.4311  0.3710  0.2160
  131OSM   H13T14049   2.243   0.887   3.985 -3.2435 -1.7310  1.4387
  131OSM   C14S14050   2.179   0.929   4.191 -0.7725 -0.0459  0.0997
  131OSM   H14S14051   2.185   0.819   4.206 -0.0366 -0.4657 -2.7101
  131OSM   H14T14052   2.074   0.964   4.179 -0.8857 -0.7797 -1.3532
  131OSM   C15S14053   2.239   1.009   4.314 -0.6477  1.1127 -0.3340
  131OSM   H15S14054   2.162   1.005   4.394 -1.2589  2.0291 -0.8576
  131OSM   H15T14055   2.258   1.110   4.272 -1.8222  0.9526 -1.2937
  131OSM   C16S14056   2.356   0.932   4.379 -0.4768 -0.2136 -0.3907
  131OSM   H16S14057   2.402   1.016   4.435 -1.9000  0.9993 -0.9753
  131OSM   H16T14058   2.419   0.903   4.292 -0.8899  1.8723 -1.4469
  131OSM   C17S14059   2.324   0.807   4.460  0.4038  0.0733  0.1657
  131OSM   H17S14060   2.244   0.746   4.412 -0.4270  0.1409  1.4297
  131OSM   H17T14061   2.269   0.841   4.551 -0.6916 -1.2706  0.0361
  131OSM   C18S14062   2.448   0.717   4.490 -0.3299 -0.3133  0.5656
  131OSM   H18S14063   2.503   0.686   4.398 -3.0826 -0.3110 -1.1940
  131OSM   H18T14064   2.422   0.622   4.542  1.3131  0.7124  3.4988
  131OSM   H18U14065   2.517   0.764   4.563  0.1880 -1.8220  1.0832
  131OSM    C1F14066   2.819   0.976   3.098 -0.2269 -0.2076  0.8465
  131OSM     OF14067   2.814   1.100   3.110 -0.1601  0.8804 -0.2657
  131OSM    C2F14068   2.930   0.883   3.139 -0.3419 -0.3890 -0.1708
  131OSM    H2F14069   3.028   0.936   3.139  0.3735 -1.6337  1.1057
  131OSM    H2G14070   2.947   0.799   3.067 -0.6630  0.9969 -1.9390
  131OSM    C3F14071   2.919   0.839   3.283  0.2328  0.5354  0.1748
  131OSM    H3F14072   2.992   0.760   3.312 -1.5338 -0.8106  1.0981
  131OSM    H3G14073   2.822   0.800   3.320  0.6331  0.2254  0.9497
  131OSM    C4F14074   2.924   0.951   3.396  0.7774 -0.3016 -0.2592
  131OSM    H4F14075   2.908   0.894   3.491  3.2809 -2.2142 -0.8777
  131OSM    H4G14076   2.845   1.026   3.377 -0.1459 -1.3597 -0.6970
  131OSM    C5F14077   3.060   1.009   3.414 -0.1461 -0.0847  0.7896
  131OSM    H5F14078   3.071   1.097   3.347 -0.2290  0.0476  0.9469
  131OSM    H5G14079   3.135   0.933   3.385  1.2648  0.5371  2.6407
  131OSM    C6F14080   3.085   1.070   3.549 -0.7101  0.2285 -0.5308
  131OSM    H6F14081   3.004   1.139   3.582 -0.9132 -0.7783  1.1613
  131OSM    H6G14082   3.174   1.137   3.554 -0.8644  0.3381  1.2998
  131OSM    C7F14083   3.122   0.976   3.662  0.0732  0.0273 -0.4886
  131OSM    H7F14084   3.226   0.938   3.663  0.8194  1.9476  1.2596
  131OSM    H7G14085   3.053   0.890   3.644  0.2128 -0.3875  0.8131
  131OSM    C8F14086   3.089   1.034   3.806  0.7157  0.0523  0.3433
  131OSM    H8F14087   3.109   0.957   3.884  2.3097 -0.2327 -0.3061
  131OSM    H8G14088   2.981   1.058   3.800  0.6472 -0.4683 -0.7668
  131OSM    C9F14089   3.176   1.156   3.842 -0.0771  0.1237  0.3151
  131OSM    H9F14090   3.283   1.142   3.822 -0.6137 -2.0448 -1.4760
  131OSM   C10F14091   3.134   1.275   3.884  0.3133  0.2432  0.0568
  131OSM   H10F14092   3.211   1.344   3.921 -0.5203 -0.1615  2.7838
  131OSM   C11F14093   2.994   1.299   3.898 -0.3470  0.3714  0.0300
  131OSM   H11F14094   2.958   1.236   3.982 -0.6091  0.1608 -0.2339
  131OSM   H11G14095   2.944   1.269   3.803 -0.9046  0.3007  0.3415
  131OSM   C12F14096   2.963   1.445   3.930  0.0664 -0.1742 -0.1352
  131OSM   H12F14097   2.854   1.442   3.949 -0.2725  0.8629 -1.7377
  131OSM   H12G14098   2.984   1.512   3.844 -1.3266  1.4588  0.7368
  131OSM   C13F14099   3.027   1.505   4.050 -0.3201  0.4029  0.7844
  131OSM   H13F14100   2.995   1.612   4.054 -2.2561 -0.1567  1.7080
  131OSM   H13G14101   3.137   1.493   4.052 -0.0165  2.2326 -1.4053
  131OSM   C14F14102   2.964   1.462   4.186  0.4802  0.3299 -0.1589
  131OSM   H14F14103   3.044   1.426   4.254 -0.1472  0.8203  0.8664
  131OSM   H14G14104   2.911   1.364   4.182  2.3961 -0.8612  1.6796
  131OSM   C15F14105   2.884   1.571   4.244 -0.3840 -0.3205 -0.2146
  131OSM   H15F14106   2.789   1.582   4.188 -0.9703 -0.5555  0.7093
  131OSM   H15G14107   2.932   1.671   4.245 -0.9498 -0.0506 -0.2323
  131OSM   C16F14108   2.845   1.536   4.389  0.2164 -0.3238 -0.1612
  131OSM   H16F14109   2.929   1.488   4.443 -0.2381  0.3833  1.2303
  131OSM   H16G14110   2.763   1.460   4.389  1.2180 -1.4363  0.3279
  131OSM   C17F14111   2.812   1.665   4.466 -0.1778 -0.2101  0.9005
  131OSM   H17F14112   2.729   1.708   4.405  0.8099 -1.4753 -1.4934
  131OSM   H17G14113   2.891   1.739   4.443 -0.5915 -0.3143 -1.0294
  131OSM   C18F14114   2.768   1.656   4.616  0.2751 -0.0830 -0.7195
  131OSM   H18F14115   2.659   1.634   4.610  0.2148  0.6056 -3.2497
  131OSM   H18G14116   2.793   1.748   4.673 -1.1966 -1.4204  2.3389
  131OSM   H18H14117   2.834   1.582   4.667  0.1636 -0.7373 -1.5145
  132OSM      N14118   1.633   0.300   2.762  0.9292  0.2074  0.1961
  132OSM    C1514119   1.492   0.250   2.734  0.5085  0.4026  0.2286
  132OSM   H15A14120   1.447   0.316   2.661  0.9472  1.2089  0.6652
  132OSM   H15B14121   1.429   0.255   2.821 -0.9549  0.9675 -0.8231
  132OSM   H15C14122   1.496   0.149   2.697 -2.3079 -0.0559  0.9421
  132OSM    C1414123   1.685   0.200   2.864 -0.4786 -0.6063  0.3249
  132OSM   H14A14124   1.609   0.190   2.940 -1.9481 -1.6286 -1.1793
  132OSM   H14B14125   1.776   0.233   2.910  0.2486 -2.8148  0.6134
  132OSM   H14C14126   1.708   0.105   2.817 -2.2575 -0.4868 -0.9020
  132OSM    C1314127   1.716   0.277   2.636  0.9977  0.8046  0.0214
  132OSM   H13A14128   1.819   0.308   2.645  1.1407  1.2148 -2.2899
  132OSM   H13B14129   1.671   0.327   2.551 -0.3740 -1.3644 -0.6028
  132OSM   H13C14130   1.723   0.171   2.618  2.9088  0.5347  1.9271
  132OSM    C1214131   1.634   0.439   2.819  0.0014 -0.7370 -0.8326
  132OSM   H12A14132   1.729   0.454   2.869  0.8860  1.6086 -3.0245
  132OSM   H12B14133   1.561   0.445   2.899 -0.7627 -0.5314 -1.5394
  132OSM    C1114134   1.607   0.557   2.724 -0.0813  0.4274 -0.1954
  132OSM   H11A14135   1.694   0.565   2.655  0.2828 -0.6568  0.1114
  132OSM   H11B14136   1.611   0.649   2.785  2.1278  1.3997 -1.6761
  132OSM      P14137   1.369   0.646   2.638  0.0420 -0.5848  0.0911
  132OSM    O1314138   1.403   0.756   2.544 -0.2465  0.2054  0.7391
  132OSM    O1414139   1.238   0.582   2.592 -0.9006 -0.2670  0.0130
  132OSM    O1114140   1.352   0.700   2.784  0.2759  0.3647  0.0366
  132OSM    O1214141   1.484   0.539   2.654 -0.3313 -0.2856  0.7305
  132OSM    C1S14142   1.309   0.620   2.892 -0.0054 -0.0906  0.0983
  132OSM    H1S14143   1.320   0.511   2.873 -2.4090 -0.4101  0.2769
  132OSM    H1T14144   1.200   0.632   2.907  0.3820  3.8591  0.8372
  132OSM     NF14145   1.333   0.576   3.135 -0.4010 -0.2669  0.2576
  132OSM    HNF14146   1.274   0.606   3.208  1.7465 -0.9899  2.4269
  132OSM    C2S14147   1.372   0.668   3.027 -0.5017 -0.9638  0.4110
  132OSM    H2S14148   1.482   0.657   3.019 -0.5948 -1.6650 -0.1255
  132OSM    C3S14149   1.340   0.815   3.056 -0.7161 -0.2232  0.0351
  132OSM    H3S14150   1.231   0.832   3.071 -1.0281  0.0959 -2.2246
  132OSM     O314151   1.367   0.911   2.948  0.3608  0.2633 -0.3992
  132OSM    HO314152   1.386   0.866   2.866  1.3460  0.6294 -0.3816
  132OSM    C4S14153   1.402   0.855   3.186  0.2267  0.0436  0.0152
  132OSM    H4S14154   1.333   0.861   3.271 -2.9541 -0.2641 -2.3425
  132OSM    C5S14155   1.531   0.877   3.207  0.6011  0.2506  0.9010
  132OSM    H5S14156   1.597   0.861   3.120 -0.3029 -0.6306  0.3591
  132OSM    C6S14157   1.597   0.907   3.338  0.0365 -0.4918  0.4353
  132OSM    H6S14158   1.620   1.016   3.335 -4.0143  0.5226 -1.0769
  132OSM    H6T14159   1.697   0.860   3.344  1.6095  2.5743  0.0654
  132OSM    C7S14160   1.531   0.868   3.463  0.4057  0.1419 -0.2494
  132OSM    H7S14161   1.489   0.765   3.466  0.0659  0.3053  1.7119
  132OSM    H7T14162   1.446   0.938   3.473 -0.0612 -0.4914  0.3760
  132OSM    C8S14163   1.619   0.893   3.586  0.1312  0.0157  0.2267
  132OSM    H8S14164   1.626   1.004   3.593  2.0135  0.0077 -0.7221
  132OSM    H8T14165   1.717   0.850   3.556  0.0580 -0.1406  0.2124
  132OSM    C9S14166   1.560   0.833   3.718 -0.2241  0.7560  0.2466
  132OSM    H9S14167   1.514   0.733   3.701  0.6396  0.7436 -2.4957
  132OSM    H9T14168   1.469   0.891   3.747 -0.9448  0.6794 -1.6781
  132OSM   C10S14169   1.661   0.836   3.834  0.5676  0.4085 -0.0183
  132OSM   H10S14170   1.715   0.932   3.822  0.7968  0.2123 -0.6057
  132OSM   H10T14171   1.734   0.753   3.826  0.3482  0.2063  0.0693
  132OSM   C11S14172   1.583   0.840   3.965  0.7298  0.3853 -0.3982
  132OSM   H11S14173   1.536   0.740   3.977  0.3060  0.6500  0.1809
  132OSM   H11T14174   1.505   0.917   3.976 -1.7890 -2.1281  0.4702
  132OSM   C12S14175   1.667   0.855   4.094 -0.3008 -0.6522  0.0446
  132OSM   H12S14176   1.737   0.770   4.103 -0.4203 -0.7587 -0.0356
  132OSM   H12T14177   1.595   0.857   4.179 -0.0607  2.2157  0.2846
  132OSM   C13S14178   1.751   0.982   4.090  0.1612 -0.4851 -0.5751
  132OSM   H13S14179   1.701   1.068   4.040  0.6195 -0.1454 -0.4556
  132OSM   H13T14180   1.842   0.960   4.030  0.8796 -1.9853  0.9803
  132OSM   C14S14181   1.787   1.025   4.235  0.1392  0.0416  0.0821
  132OSM   H14S14182   1.695   1.082   4.261  1.1959  0.9728  2.0585
  132OSM   H14T14183   1.872   1.096   4.223  0.6068 -0.5988 -0.4539
  132OSM   C15S14184   1.836   0.906   4.327  0.3441  0.2086 -0.0114
  132OSM   H15S14185   1.908   0.850   4.264 -0.6577  0.7061 -1.6594
  132OSM   H15T14186   1.752   0.835   4.342  0.8107 -0.2830  0.3050
  132OSM   C16S14187   1.888   0.964   4.460  0.1936 -0.0875  0.5393
  132OSM   H16S14188   1.809   1.032   4.499  0.7729  1.7227 -1.2177
  132OSM   H16T14189   1.962   1.045   4.442 -0.8620  1.3587  2.2754
  132OSM   C17S14190   1.939   0.857   4.558  0.4798  0.5049  0.1580
  132OSM   H17S14191   2.029   0.813   4.509 -1.5625 -1.3213 -2.2058
  132OSM   H17T14192   1.858   0.782   4.563  0.2176  0.6823 -1.0974
  132OSM   C18S14193   1.979   0.904   4.698  0.0635  0.2569 -0.2715
  132OSM   H18S14194   1.884   0.937   4.744  0.3787  3.3187 -1.6075
  132OSM   H18T14195   2.035   0.999   4.685 -1.2752  1.0314 -0.5797
  132OSM   H18U14196   2.040   0.828   4.752  1.9302  1.8043 -0.1038
  132OSM    C1F14197   1.367   0.451   3.136 -0.0058 -0.5033  0.0262
  132OSM     OF14198   1.442   0.401   3.050  0.1109 -0.0428  0.5087
  132OSM    C2F14199   1.328   0.367   3.255 -0.3667  0.5887 -0.0094
  132OSM    H2F14200   1.280   0.274   3.219  0.0842  0.2279  0.3019
  132OSM    H2G14201   1.248   0.422   3.309  0.6026 -0.2152  2.3869
  132OSM    C3F14202   1.444   0.343   3.354  0.3473 -0.3274 -0.2442
  132OSM    H3F14203   1.527   0.281   3.314  1.5088 -0.3418  2.0219
  132OSM    H3G14204   1.407   0.284   3.441 -0.6908 -1.5177 -1.4692
  132OSM    C4F14205   1.499   0.473   3.404 -0.2486 -0.3694 -0.0852
  132OSM    H4F14206   1.417   0.536   3.445 -0.5065  0.2106 -1.4268
  132OSM    H4G14207   1.540   0.528   3.316 -0.1798  0.9767  0.7650
  132OSM    C5F14208   1.612   0.464   3.506 -0.0826  0.8294 -0.5089
  132OSM    H5F14209   1.647   0.566   3.534 -1.6990  1.0521  0.8308
  132OSM    H5G14210   1.701   0.425   3.452  1.1663  1.5857  0.9167
  132OSM    C6F14211   1.586   0.357   3.620 -0.4912  0.2487  0.4952
  132OSM    H6F14212   1.690   0.333   3.652 -0.2300  0.5388 -0.1086
  132OSM    H6G14213   1.568   0.255   3.580 -3.1169  0.1696  1.6793
  132OSM    C7F14214   1.498   0.414   3.721  0.0443 -0.6136 -0.0925
  132OSM    H7F14215   1.404   0.441   3.669 -0.6838 -2.2570  0.3146
  132OSM    H7G14216   1.552   0.499   3.769  0.7220 -1.0749 -0.0170
  132OSM    C8F14217   1.473   0.310   3.824 -0.4218 -0.2527  0.0286
  132OSM    H8F14218   1.562   0.312   3.890  1.7680 -2.0250 -2.6481
  132OSM    H8G14219   1.476   0.211   3.773 -2.4369  0.1183 -0.9084
  132OSM    C9F14220   1.336   0.318   3.890  0.0684 -1.3303  0.3927
  132OSM    H9F14221   1.256   0.270   3.831  0.1468 -0.0098 -0.8497
  132OSM   C10F14222   1.306   0.378   4.006 -0.0157  0.7044  0.1248
  132OSM   H10F14223   1.201   0.375   4.039 -0.0958  1.4594 -0.0411
  132OSM   C11F14224   1.406   0.458   4.087 -0.2453 -0.1906  0.3914
  132OSM   H11F14225   1.375   0.565   4.090 -2.0963 -0.6930  0.4878
  132OSM   H11G14226   1.509   0.460   4.046 -0.6208 -2.1623 -0.7775
  132OSM   C12F14227   1.422   0.401   4.226  0.1230 -0.0723 -0.0736
  132OSM   H12F14228   1.455   0.295   4.225  1.1998  0.2577 -0.8199
  132OSM   H12G14229   1.324   0.407   4.279 -0.5393 -1.5897 -1.0588
  132OSM   C13F14230   1.528   0.481   4.299  0.0060  0.1759 -0.2744
  132OSM   H13F14231   1.506   0.590   4.297  0.1880  0.2249  0.2155
  132OSM   H13G14232   1.631   0.459   4.263  0.7157  0.4245  1.4928
  132OSM   C14F14233   1.540   0.458   4.458 -0.2806 -0.0700  0.0603
  132OSM   H14F14234   1.543   0.355   4.501  0.7803  0.5574  1.5701
  132OSM   H14G14235   1.446   0.503   4.496 -0.7583 -0.3801 -0.7317
  132OSM   C15F14236   1.650   0.538   4.525 -0.3702 -0.0189  1.0472
  132OSM   H15F14237   1.655   0.645   4.495  0.7270 -0.2039  0.4943
  132OSM   H15G14238   1.749   0.498   4.495 -0.9155 -0.0713 -0.8064
  132OSM   C16F14239   1.636   0.558   4.678 -0.4092  0.4435  0.6239
  132OSM   H16F14240   1.728   0.615   4.704 -1.4051  1.5490  1.8127
  132OSM   H16G14241   1.618   0.464   4.735  1.5861  0.4461  1.3427
  132OSM   C17F14242   1.523   0.657   4.717  0.0537  0.0547 -0.2212
  132OSM   H17F14243   1.426   0.608   4.694 -0.4573  0.2273  1.4630
  132OSM   H17G14244   1.530   0.744   4.648  0.4157 -0.5768 -0.9988
  132OSM   C18F14245   1.517   0.695   4.865  0.2922 -0.5856 -0.2707
  132OSM   H18F14246   1.497   0.609   4.932 -1.4472  1.5249  2.0538
  132OSM   H18G14247   1.429   0.760   4.881  0.7102 -0.1371  0.2608
  132OSM   H18H14248   1.608   0.744   4.907 -0.6704  1.5161 -0.5243
  133OSM      N14249   6.485   0.949   2.769 -0.5244 -0.3341 -0.1152
  133OSM    C1514250   6.347   0.970   2.710 -0.3310  0.3398  0.2538
  133OSM   H15A14251   6.275   0.909   2.762 -1.3873  0.3792 -1.0745
  133OSM   H15B14252   6.340   0.953   2.603  0.1595  1.4390  0.0317
  133OSM   H15C14253   6.312   1.072   2.722  0.6268  0.6897  0.1828
  133OSM    C1414254   6.507   0.805   2.793  0.2540  0.3041 -0.8879
  133OSM   H14A14255   6.488   0.759   2.697  0.6986  0.7231 -1.1799
  133OSM   H14B14256   6.443   0.770   2.872 -0.5574  1.5381 -0.9644
  133OSM   H14C14257   6.607   0.783   2.827 -0.2087  1.3496  1.3034
  133OSM    C1314258   6.588   0.999   2.665 -0.0045  0.6625  0.5131
  133OSM   H13A14259   6.688   0.961   2.674  1.0379  3.0484 -0.1425
  133OSM   H13B14260   6.606   1.105   2.675  0.3860  0.5983  0.5002
  133OSM   H13C14261   6.545   0.992   2.566  1.6502  1.4618 -0.3064
  133OSM    C1214262   6.499   1.020   2.899 -0.8720  0.3575 -0.5612
  133OSM   H12A14263   6.453   0.966   2.980  0.6161  1.0161  0.7752
  133OSM   H12B14264   6.444   1.112   2.888 -0.3219  0.6729 -0.7378
  133OSM    C1114265   6.644   1.056   2.938 -0.1835  0.1790 -0.0723
  133OSM   H11A14266   6.707   0.968   2.913 -1.0550 -0.0956 -1.3830
  133OSM   H11B14267   6.654   1.062   3.049  1.4563 -0.5863 -0.1599
  133OSM      P14268   6.635   1.310   2.905  0.4281  0.0028 -0.2772
  133OSM    O1314269   6.723   1.414   2.843  0.2963 -0.3490 -0.5411
  133OSM    O1414270   6.489   1.314   2.867 -0.7288 -0.4788 -0.2315
  133OSM    O1114271   6.656   1.319   3.058  0.2414 -0.4279 -0.0459
  133OSM    O1214272   6.694   1.171   2.875  0.1612 -0.5394 -0.0689
  133OSM    C1S14273   6.563   1.305   3.163 -0.4488 -0.1355 -0.6370
  133OSM    H1S14274   6.559   1.194   3.175  0.8197  0.0021  1.6066
  133OSM    H1T14275   6.465   1.352   3.140 -0.5866 -0.5601 -0.9269
  133OSM     NF14276   6.505   1.372   3.385  0.5241  0.1737  0.7430
  133OSM    HNF14277   6.485   1.458   3.430  1.2186  0.3437  0.7336
  133OSM    C2S14278   6.616   1.377   3.296  0.8257  0.0532 -0.1322
  133OSM    H2S14279   6.696   1.310   3.334  0.1148  0.0230  1.3544
  133OSM    C3S14280   6.677   1.514   3.267  0.1955 -0.3484 -0.0620
  133OSM    H3S14281   6.603   1.585   3.225 -0.2212  1.9165  3.9166
  133OSM     O314282   6.791   1.520   3.186 -0.1934  0.6357 -0.1930
  133OSM    HO314283   6.787   1.444   3.127  1.1324  1.1805 -1.0417
  133OSM    C4S14284   6.708   1.576   3.405 -0.1890  0.2026 -0.5095
  133OSM    H4S14285   6.621   1.629   3.446  1.5682  1.1425  2.3124
  133OSM    C5S14286   6.821   1.567   3.484 -0.1888  0.5823 -0.2095
  133OSM    H5S14287   6.916   1.522   3.452  0.6738  2.0075  0.2410
  133OSM    C6S14288   6.828   1.613   3.627 -0.0379  0.4817  0.1443
  133OSM    H6S14289   6.902   1.696   3.623  0.3539  0.0981 -1.3879
  133OSM    H6T14290   6.874   1.534   3.691 -1.0237 -0.6361 -0.4837
  133OSM    C7S14291   6.700   1.677   3.684 -0.4855  0.0811  0.2565
  133OSM    H7S14292   6.613   1.610   3.668 -0.3119 -0.5040  1.6181
  133OSM    H7T14293   6.677   1.774   3.634 -0.2997 -0.0283 -0.0415
  133OSM    C8S14294   6.725   1.704   3.835 -0.6522 -0.5336  0.0700
  133OSM    H8S14295   6.821   1.758   3.850 -0.6803 -0.5268  0.2252
  133OSM    H8T14296   6.742   1.600   3.869 -0.4203 -0.7011 -0.5319
  133OSM    C9S14297   6.619   1.789   3.904 -0.0012 -0.0115 -0.3174
  133OSM    H9S14298   6.522   1.735   3.905 -0.8289  0.9876  4.9086
  133OSM    H9T14299   6.601   1.873   3.834  0.4384 -0.0811 -0.5145
  133OSM   C10S14300   6.652   1.826   4.048  0.0567 -0.1687  0.4530
  133OSM   H10S14301   6.565   1.887   4.077  0.3239  0.4287  0.0328
  133OSM   H10T14302   6.751   1.878   4.046  1.0966 -2.0409  0.6967
  133OSM   C11S14303   6.668   1.707   4.145 -0.2659 -0.0736 -0.7788
  133OSM   H11S14304   6.725   1.621   4.105  1.3025 -0.5879  2.2202
  133OSM   H11T14305   6.572   1.663   4.178 -0.8720  2.4226  1.1582
  133OSM   C12S14306   6.736   1.754   4.278 -0.6938  0.8501  0.2963
  133OSM   H12S14307   6.696   1.855   4.304 -0.9586  0.3646  1.8889
  133OSM   H12T14308   6.843   1.760   4.251 -1.1871  2.9414 -1.4460
  133OSM   C13S14309   6.699   1.671   4.400  0.2674  0.4850  0.7849
  133OSM   H13S14310   6.759   1.723   4.478  1.6646  1.2817 -0.7609
  133OSM   H13T14311   6.720   1.562   4.405  1.6650  0.7720  1.9872
  133OSM   C14S14312   6.547   1.673   4.444  0.1545  0.1862  0.4746
  133OSM   H14S14313   6.480   1.614   4.378  0.4048  1.0643 -0.5913
  133OSM   H14T14314   6.512   1.778   4.435 -1.1909 -0.4209 -2.2849
  133OSM   C15S14315   6.518   1.638   4.589  0.1254 -0.4611 -0.0513
  133OSM   H15S14316   6.582   1.715   4.638 -2.1100  2.2291 -1.0823
  133OSM   H15T14317   6.549   1.535   4.616 -1.5714 -0.4494  2.1746
  133OSM   C16S14318   6.368   1.656   4.629  0.4803  0.0211  0.3725
  133OSM   H16S14319   6.299   1.592   4.570 -0.0109 -0.0158  0.9741
  133OSM   H16T14320   6.341   1.761   4.603 -0.1117 -0.6166 -1.7255
  133OSM   C17S14321   6.343   1.625   4.774  1.2146  0.1691 -0.1290
  133OSM   H17S14322   6.363   1.517   4.790  0.9228  0.3009  1.2969
  133OSM   H17T14323   6.239   1.640   4.810  1.3087 -2.1907  1.3557
  133OSM   C18S14324   6.415   1.716   4.876  0.2157 -0.1008 -0.0644
  133OSM   H18S14325   6.524   1.702   4.862  0.3251 -3.5921  2.6821
  133OSM   H18T14326   6.399   1.679   4.980 -0.4860 -1.1435 -0.5291
  133OSM   H18U14327   6.388   1.823   4.873 -1.4617 -0.5204 -0.9244
  133OSM    C1F14328   6.438   1.262   3.424 -0.7138 -0.0012 -0.5407
  133OSM     OF14329   6.492   1.153   3.402  0.5894  0.0019 -0.1180
  133OSM    C2F14330   6.307   1.277   3.492 -0.0386 -0.3056  0.4008
  133OSM    H2F14331   6.236   1.205   3.447  1.6071 -2.5235  1.1723
  133OSM    H2G14332   6.274   1.379   3.465  1.1318 -0.4164 -1.6801
  133OSM    C3F14333   6.323   1.263   3.647  0.2295  0.3717  0.4581
  133OSM    H3F14334   6.333   1.158   3.682 -1.9671 -0.2657 -0.6377
  133OSM    H3G14335   6.229   1.287   3.701 -0.3617 -0.6101 -0.0932
  133OSM    C4F14336   6.440   1.349   3.709  0.3515  0.8980  0.4000
  133OSM    H4F14337   6.445   1.456   3.679  0.0615  1.5059  2.3717
  133OSM    H4G14338   6.539   1.306   3.683 -0.7772 -0.8952 -1.2536
  133OSM    C5F14339   6.434   1.340   3.862 -0.5417  0.7595 -0.2354
  133OSM    H5F14340   6.330   1.359   3.896 -1.7386 -3.5684 -0.9648
  133OSM    H5G14341   6.505   1.409   3.912 -3.0706  2.7170  0.8799
  133OSM    C6F14342   6.462   1.203   3.923 -0.2007 -0.5956 -0.0070
  133OSM    H6F14343   6.542   1.152   3.866 -1.0087 -1.6131 -0.2580
  133OSM    H6G14344   6.370   1.141   3.919 -0.3677 -0.4561  1.2016
  133OSM    C7F14345   6.495   1.204   4.072  0.5844 -0.0702  1.0176
  133OSM    H7F14346   6.584   1.269   4.083  0.4131  0.1124  1.3260
  133OSM    H7G14347   6.519   1.100   4.102  2.9381  0.3113  0.6504
  133OSM    C8F14348   6.393   1.280   4.166  0.4430  0.0714  0.0546
  133OSM    H8F14349   6.299   1.221   4.154  1.5634 -2.0382  1.0789
  133OSM    H8G14350   6.380   1.383   4.127  0.9004 -0.5202 -1.7884
  133OSM    C9F14351   6.447   1.298   4.303 -0.1567  0.2472 -0.1863
  133OSM    H9F14352   6.535   1.364   4.311  0.5961 -0.6801 -0.6531
  133OSM   C10F14353   6.392   1.242   4.414  0.9573 -0.1334 -0.0856
  133OSM   H10F14354   6.434   1.267   4.512  0.7961 -1.5177  0.3523
  133OSM   C11F14355   6.268   1.159   4.415  0.2845 -0.1376  0.1779
  133OSM   H11F14356   6.243   1.114   4.316  1.9023  0.8601 -0.7304
  133OSM   H11G14357   6.179   1.216   4.451  0.3942 -0.7574  1.4741
  133OSM   C12F14358   6.297   1.039   4.503 -0.3798  0.2054  0.1006
  133OSM   H12F14359   6.381   0.985   4.453  2.0834  0.9579  3.1154
  133OSM   H12G14360   6.202   0.981   4.499 -1.0890  1.2829  0.7640
  133OSM   C13F14361   6.306   1.056   4.655  0.2827  0.1443  0.4284
  133OSM   H13F14362   6.414   1.077   4.669  1.0497 -2.4064 -1.0766
  133OSM   H13G14363   6.274   0.967   4.714 -1.5008 -2.4078 -3.9323
  133OSM   C14F14364   6.216   1.174   4.718 -0.2079  0.2751  0.7594
  133OSM   H14F14365   6.114   1.133   4.701  0.4163 -1.0885  0.1896
  133OSM   H14G14366   6.235   1.260   4.651  0.0467  0.4432  1.0413
  133OSM   C15F14367   6.228   1.219   4.863 -0.0046 -0.2805 -0.0595
  133OSM   H15F14368   6.157   1.304   4.866 -0.1975 -0.4726  1.4671
  133OSM   H15G14369   6.330   1.249   4.896 -0.3207 -1.4893  2.2087
  133OSM   C16F14370   6.165   1.116   4.964  0.3242 -0.5267  0.3324
  133OSM   H16F14371   6.083   1.065   4.909 -0.2479  0.9541 -0.2612
  133OSM   H16G14372   6.114   1.180   5.040 -0.8432  0.7289 -1.4252
  133OSM   C17F14373   6.253   1.005   5.025  0.0413  0.6495 -0.5936
  133OSM   H17F14374   6.317   0.967   4.943  3.0307  0.0427  1.8264
  133OSM   H17G14375   6.193   0.921   5.066  2.7265 -1.0224  0.1874
  133OSM   C18F14376   6.355   1.056   5.120 -0.2736 -0.4880  0.2029
  133OSM   H18F14377   6.433   1.119   5.074  2.5755 -2.2566  2.2883
  133OSM   H18G14378   6.416   0.973   5.160  0.8548 -0.5301 -1.5415
  133OSM   H18H14379   6.324   1.116   5.209  0.5500  0.1155  0.0954
  134OSM      N14380   0.451   3.571   2.431  0.1859  0.0293 -0.0752
  134OSM    C1514381   0.373   3.699   2.436  0.0787  0.3605 -0.9100
  134OSM   H15A14382   0.450   3.774   2.423  1.1081 -0.0717  1.9666
  134OSM   H15B14383   0.330   3.708   2.535 -0.0417  1.7774 -1.0580
  134OSM   H15C14384   0.288   3.725   2.374  0.1200  1.5922 -0.4840
  134OSM    C1414385   0.355   3.466   2.479  0.4343 -0.4493 -0.7990
  134OSM   H14A14386   0.397   3.366   2.478  0.6890 -0.3411 -1.7194
  134OSM   H14B14387   0.269   3.460   2.414 -0.8819 -3.2923  0.9608
  134OSM   H14C14388   0.325   3.488   2.580  2.4084 -0.7466 -0.0953
  134OSM    C1314389   0.488   3.543   2.288  0.3005  0.6220 -0.3718
  134OSM   H13A14390   0.554   3.625   2.261 -0.1891  1.3476  0.5745
  134OSM   H13B14391   0.399   3.545   2.227 -1.1312 -2.5150  1.3765
  134OSM   H13C14392   0.540   3.450   2.276 -1.4059 -0.5195  0.6750
  134OSM    C1214393   0.582   3.573   2.517  0.5454  0.3101  0.2612
  134OSM   H12A14394   0.605   3.474   2.554 -0.2121  0.2621  0.6174
  134OSM   H12B14395   0.556   3.615   2.613  3.0028 -1.3379  1.7550
  134OSM    C1114396   0.708   3.625   2.451 -0.8249  0.1254  0.3032
  134OSM   H11A14397   0.748   3.557   2.373 -3.7444  0.0631 -1.2499
  134OSM   H11B14398   0.789   3.626   2.528 -0.0583  1.0386 -0.4763
  134OSM      P14399   0.790   3.862   2.411  0.0070  0.5472 -0.3482
  134OSM    O1314400   0.917   3.830   2.340  0.3888  0.0213  0.5277
  134OSM    O1414401   0.727   3.990   2.374  0.0173 -0.3670 -0.3774
  134OSM    O1114402   0.827   3.849   2.566  0.2250 -0.0931 -0.2753
  134OSM    O1214403   0.687   3.750   2.386  0.2414  0.5181  0.0201
  134OSM    C1S14404   0.740   3.927   2.650 -0.2882 -0.9620  0.0149
  134OSM    H1S14405   0.657   3.857   2.675 -0.7973 -0.5923 -0.6046
  134OSM    H1T14406   0.692   4.019   2.608 -1.3996 -1.4447  0.1830
  134OSM     NF14407   0.720   4.040   2.872 -0.5644  0.5411  0.0815
  134OSM    HNF14408   0.726   4.139   2.864  1.5143  0.3206 -2.5697
  134OSM    C2S14409   0.807   3.948   2.792 -0.0437  0.4983  0.1347
  134OSM    H2S14410   0.816   3.847   2.839  2.0820  0.2756 -0.6327
  134OSM    C3S14411   0.956   3.984   2.773  0.2989 -0.4002  0.3292
  134OSM    H3S14412   0.960   4.081   2.719 -0.4613 -0.0323  0.9139
  134OSM     O314413   1.039   3.893   2.704 -0.0078 -0.2713  0.2703
  134OSM    HO314414   0.969   3.859   2.647  0.2272 -0.4657  0.0977
  134OSM    C4S14415   1.025   3.994   2.907 -0.7711 -0.2157  0.2020
  134OSM    H4S14416   1.072   3.901   2.943 -0.2326 -0.7073 -1.6578
  134OSM    C5S14417   1.044   4.107   2.981 -0.0289  0.1838  0.5816
  134OSM    H5S14418   1.013   4.201   2.933 -1.0493 -0.7746 -0.7322
  134OSM    C6S14419   1.110   4.111   3.112  0.5010  0.7928  1.1148
  134OSM    H6S14420   1.138   4.217   3.129  1.6729  0.6841 -0.0008
  134OSM    H6T14421   1.203   4.050   3.120 -0.6788 -1.1107  0.9599
  134OSM    C7S14422   1.003   4.062   3.214 -0.0971  0.7942  1.1816
  134OSM    H7S14423   0.978   3.955   3.203  0.9219  0.6352  0.2885
  134OSM    H7T14424   0.911   4.122   3.198 -0.7572 -0.5378 -0.2117
  134OSM    C8S14425   1.042   4.092   3.361 -0.0053 -0.2807 -0.2403
  134OSM    H8S14426   1.088   4.193   3.367  0.8998 -0.5696 -1.7615
  134OSM    H8T14427   1.122   4.023   3.395  0.2301  1.1165  2.2557
  134OSM    C9S14428   0.919   4.081   3.462 -0.3289  0.1776  0.0035
  134OSM    H9S14429   0.890   3.974   3.453  2.2730 -0.5198 -0.9043
  134OSM    H9T14430   0.841   4.149   3.422  1.0548  1.6931 -0.2046
  134OSM   C10S14431   0.955   4.122   3.605 -1.0226  0.6154  0.7493
  134OSM   H10S14432   0.969   4.232   3.603  1.1742  0.3941  1.0128
  134OSM   H10T14433   1.055   4.077   3.626 -1.2594 -0.0577  0.4610
  134OSM   C11S14434   0.862   4.070   3.713 -0.0073 -0.2124  0.6619
  134OSM   H11S14435   0.882   3.963   3.737  2.3943 -0.0379 -0.2903
  134OSM   H11T14436   0.763   4.074   3.664  0.7673 -0.6185 -0.9821
  134OSM   C12S14437   0.864   4.156   3.837  0.5186 -0.1870  0.0790
  134OSM   H12S14438   0.855   4.264   3.811 -0.2816  0.0317  1.1709
  134OSM   H12T14439   0.957   4.145   3.897 -0.0760 -0.9559  0.8744
  134OSM   C13S14440   0.749   4.114   3.933  0.1835  0.8975 -0.2298
  134OSM   H13S14441   0.774   4.012   3.969 -0.1245  0.4604 -1.2416
  134OSM   H13T14442   0.657   4.105   3.873 -0.7091 -0.7179  1.2813
  134OSM   C14S14443   0.743   4.199   4.057 -0.4664  0.1455 -0.4416
  134OSM   H14S14444   0.729   4.308   4.038 -2.8185  0.3662  1.9036
  134OSM   H14T14445   0.829   4.191   4.126 -2.0702 -0.8997  1.5444
  134OSM   C15S14446   0.632   4.146   4.147 -0.1340 -0.1343 -0.3565
  134OSM   H15S14447   0.657   4.039   4.163  0.5617 -0.2035 -1.7892
  134OSM   H15T14448   0.535   4.145   4.093 -0.6572  0.3167  0.5576
  134OSM   C16S14449   0.616   4.219   4.282  0.4375  0.5834  0.9301
  134OSM   H16S14450   0.598   4.326   4.260 -2.7041 -0.0177  0.1615
  134OSM   H16T14451   0.708   4.209   4.344 -0.3456 -2.6581  1.7642
  134OSM   C17S14452   0.518   4.151   4.365  0.0206 -0.1637  0.2687
  134OSM   H17S14453   0.529   4.041   4.360 -0.8698 -0.2708  0.5115
  134OSM   H17T14454   0.415   4.176   4.331 -0.2530  0.0210  1.2067
  134OSM   C18S14455   0.535   4.178   4.513 -0.3576  0.9257 -0.4743
  134OSM   H18S14456   0.469   4.256   4.554  0.2983  0.1072  2.3304
  134OSM   H18T14457   0.642   4.187   4.542 -0.7036 -0.5816  1.4714
  134OSM   H18U14458   0.500   4.089   4.569  1.0942 -0.2677 -1.3667
  134OSM    C1F14459   0.612   3.988   2.939 -0.2521  0.1934  0.1411
  134OSM     OF14460   0.590   3.868   2.937  0.5202  0.0587  0.5575
  134OSM    C2F14461   0.521   4.082   3.007  0.3559 -0.0008 -0.1825
  134OSM    H2F14462   0.418   4.042   2.990  1.0729 -1.4259 -1.3948
  134OSM    H2G14463   0.520   4.178   2.952 -3.4083  1.3492  1.8370
  134OSM    C3F14464   0.565   4.098   3.154  0.0604 -0.0642  1.0620
  134OSM    H3F14465   0.675   4.109   3.160 -0.0375  0.3916  2.4650
  134OSM    H3G14466   0.532   4.004   3.205 -2.9761  0.5102  0.3880
  134OSM    C4F14467   0.488   4.225   3.206  0.3382 -0.7875 -0.2730
  134OSM    H4F14468   0.380   4.208   3.187  0.1313  0.1983 -0.0334
  134OSM    H4G14469   0.521   4.321   3.161 -1.7506  1.1496  1.9584
  134OSM    C5F14470   0.503   4.241   3.359 -0.1251 -0.2028 -0.3239
  134OSM    H5F14471   0.458   4.341   3.378 -1.6240 -0.7357 -0.9077
  134OSM    H5G14472   0.612   4.259   3.371 -0.2733  0.1659  0.5359
  134OSM    C6F14473   0.440   4.135   3.446  0.3668 -0.6496  0.5584
  134OSM    H6F14474   0.506   4.046   3.439  0.0709 -0.8044 -0.4639
  134OSM    H6G14475   0.341   4.109   3.404 -1.0314  1.6819  2.1740
  134OSM    C7F14476   0.413   4.179   3.586 -0.5297  0.1250 -0.3673
  134OSM    H7F14477   0.324   4.246   3.587  0.6573  1.7960  1.2455
  134OSM    H7G14478   0.496   4.238   3.632  0.5256 -1.2799 -0.3966
  134OSM    C8F14479   0.384   4.061   3.676  0.4804  0.8289 -0.2424
  134OSM    H8F14480   0.463   3.982   3.675  0.3342  0.6898 -1.4474
  134OSM    H8G14481   0.298   4.005   3.633  0.8520  1.1795 -1.4801
  134OSM    C9F14482   0.366   4.085   3.828  0.2908  0.1262  0.8044
  134OSM    H9F14483   0.432   4.162   3.872  0.2096  0.3475  0.5415
  134OSM   C10F14484   0.271   4.031   3.900  0.0642 -0.8078  0.4566
  134OSM   H10F14485   0.267   4.047   4.009 -0.1027  2.1102  0.0951
  134OSM   C11F14486   0.174   3.929   3.849 -0.7625  0.3371 -0.0701
  134OSM   H11F14487   0.219   3.840   3.799 -0.9954  0.0656  0.1998
  134OSM   H11G14488   0.094   3.976   3.787 -1.8820 -1.9083 -0.4463
  134OSM   C12F14489   0.100   3.862   3.973 -0.3697  0.9201  0.3286
  134OSM   H12F14490   0.179   3.826   4.041 -2.1617 -1.0551  1.4632
  134OSM   H12G14491   0.034   3.779   3.940 -0.1007  1.0852 -0.6487
  134OSM   C13F14492   0.015   3.963   4.055  0.0026 -0.3865 -0.2626
  134OSM   H13F14493  -0.080   3.978   4.000  0.1855  0.3430 -0.3807
  134OSM   H13G14494   0.049   4.068   4.056  1.3220 -0.7864 -0.3424
  134OSM   C14F14495  -0.017   3.920   4.199  0.1234  0.1266 -0.7784
  134OSM   H14F14496  -0.022   4.003   4.273 -2.0329 -2.3425  2.0936
  134OSM   H14G14497   0.062   3.851   4.236 -0.7023 -0.4484 -0.0260
  134OSM   C15F14498  -0.144   3.842   4.216  0.0494  0.2255  0.1006
  134OSM   H15F14499  -0.151   3.760   4.142  1.3056  0.4965 -0.3514
  134OSM   H15G14500  -0.231   3.907   4.194 -0.2674 -0.4142 -0.5660
  134OSM   C16F14501  -0.146   3.786   4.357  0.4629 -0.4690 -0.8330
  134OSM   H16F14502  -0.156   3.870   4.429  1.9980  0.2529 -1.4181
  134OSM   H16G14503  -0.054   3.728   4.380  0.1780 -0.4651  0.3649
  134OSM   C17F14504  -0.251   3.688   4.392  0.8291  0.9000  0.1696
  134OSM   H17F14505  -0.349   3.730   4.361 -0.1688 -1.1636  0.3531
  134OSM   H17G14506  -0.258   3.676   4.502  2.1464 -4.0137 -0.0747
  134OSM   C18F14507  -0.221   3.547   4.333 -0.3781 -0.9799  0.1121
  134OSM   H18F14508  -0.299   3.474   4.367  1.1648 -3.7359 -1.9064
  134OSM   H18G14509  -0.126   3.504   4.370 -0.3998  0.7065  2.3335
  134OSM   H18H14510  -0.227   3.546   4.222 -0.3671  0.5035  0.0758
  135OSM      N14511   0.632   2.194   2.544  0.1221 -0.3873  0.1076
  135OSM    C1514512   0.531   2.123   2.459  0.1864  0.0682  0.3215
  135OSM   H15A14513   0.443   2.100   2.516  0.6293 -0.4119  0.8305
  135OSM   H15B14514   0.576   2.034   2.418  2.0312  1.3355 -0.5551
  135OSM   H15C14515   0.501   2.184   2.375 -2.5132 -2.5462 -0.7701
  135OSM    C1414516   0.733   2.238   2.440  0.2184 -0.4229 -1.2285
  135OSM   H14A14517   0.770   2.151   2.388 -1.0397 -1.0213 -1.1631
  135OSM   H14B14518   0.817   2.293   2.481 -2.2367  1.4445  1.6923
  135OSM   H14C14519   0.690   2.299   2.363  0.4049  0.5953 -0.5511
  135OSM    C1314520   0.575   2.312   2.618 -0.3622 -0.2115  0.8049
  135OSM   H13A14521   0.489   2.277   2.675 -2.0812 -1.5176 -2.3257
  135OSM   H13B14522   0.545   2.390   2.549 -2.3070 -0.6844  1.0548
  135OSM   H13C14523   0.642   2.363   2.685  1.0349 -0.6133 -0.2578
  135OSM    C1214524   0.692   2.090   2.637  0.3578  0.2465  0.3282
  135OSM   H12A14525   0.606   2.043   2.682 -0.8491 -0.9680 -2.9360
  135OSM   H12B14526   0.749   2.139   2.715 -1.4165  0.7619  1.3522
  135OSM    C1114527   0.787   1.982   2.571 -0.1737 -0.5504  0.8264
  135OSM   H11A14528   0.743   1.936   2.480 -0.1105  1.1371 -0.1123
  135OSM   H11B14529   0.815   1.904   2.645  0.2447 -0.3132  0.9230
  135OSM      P14530   1.034   2.056   2.612  0.0778 -0.1474 -0.3841
  135OSM    O1314531   1.085   1.926   2.667  0.3796 -0.2601  0.1207
  135OSM    O1414532   1.136   2.137   2.537  0.2249  0.0557 -0.2924
  135OSM    O1114533   0.989   2.151   2.730  0.0003  0.1592 -0.1072
  135OSM    O1214534   0.911   2.034   2.522 -0.1520 -0.2271 -0.5844
  135OSM    C1S14535   1.004   2.119   2.871  0.2455 -0.3958  0.1471
  135OSM    H1S14536   1.004   2.009   2.890  0.9725 -0.3338  0.5585
  135OSM    H1T14537   0.915   2.154   2.926 -0.1700 -2.6364  0.9870
  135OSM     NF14538   1.173   2.127   3.053 -0.5184  0.0776 -0.1040
  135OSM    HNF14539   1.147   2.184   3.131  0.1113  0.7257 -0.3509
  135OSM    C2S14540   1.133   2.184   2.924 -0.1994  0.4274 -0.8960
  135OSM    H2S14541   1.217   2.162   2.855  0.1084 -1.1380 -0.0758
  135OSM    C3S14542   1.127   2.337   2.920 -0.3228 -0.4386 -1.0758
  135OSM    H3S14543   1.039   2.374   2.978 -0.0608  1.2478 -1.7156
  135OSM     O314544   1.095   2.391   2.792  0.4131  0.1981 -0.0059
  135OSM    HO314545   1.045   2.315   2.762  0.1677  0.3764 -0.0439
  135OSM    C4S14546   1.245   2.405   2.988  0.0046  0.2808 -0.2656
  135OSM    H4S14547   1.340   2.369   2.947  0.1243 -0.6498  0.7893
  135OSM    C5S14548   1.243   2.496   3.093  0.0741 -0.2644 -0.0073
  135OSM    H5S14549   1.143   2.521   3.132  0.0013 -0.3652 -0.1260
  135OSM    C6S14550   1.369   2.558   3.158 -0.4588  0.7319 -0.1015
  135OSM    H6S14551   1.463   2.535   3.103 -1.7578 -0.2315 -2.0590
  135OSM    H6T14552   1.365   2.525   3.264 -0.6211  0.5119 -0.1761
  135OSM    C7S14553   1.373   2.718   3.157  0.8108 -0.0168  0.2366
  135OSM    H7S14554   1.369   2.759   3.054  3.4353 -1.1460 -0.4044
  135OSM    H7T14555   1.473   2.749   3.197  0.4730 -1.7074  2.6055
  135OSM    C8S14556   1.257   2.778   3.251 -0.1206 -0.7427  0.3322
  135OSM    H8S14557   1.164   2.726   3.220  1.4840 -3.4584 -0.2615
  135OSM    H8T14558   1.258   2.886   3.229  0.1136 -0.8443 -0.1698
  135OSM    C9S14559   1.284   2.763   3.402 -0.4123  0.0040  0.1162
  135OSM    H9S14560   1.395   2.762   3.403 -0.3566  0.4121 -1.8355
  135OSM    H9T14561   1.254   2.660   3.429 -1.2602  0.4863  1.1228
  135OSM   C10S14562   1.229   2.866   3.501  0.2760 -0.3315  0.4163
  135OSM   H10S14563   1.280   2.833   3.594 -0.8044 -0.7871  0.8559
  135OSM   H10T14564   1.118   2.862   3.509 -0.0748 -1.4278 -3.1291
  135OSM   C11S14565   1.292   3.005   3.472  0.9448  0.1093  0.2999
  135OSM   H11S14566   1.249   3.046   3.378 -0.9058 -1.4201  0.4291
  135OSM   H11T14567   1.398   2.985   3.443  0.8890 -0.1253  0.2579
  135OSM   C12S14568   1.279   3.096   3.598  0.3774 -0.3812  0.3893
  135OSM   H12S14569   1.352   3.179   3.588  0.4253 -0.6269 -1.6258
  135OSM   H12T14570   1.303   3.054   3.698  2.2088  1.1241  0.6293
  135OSM   C13S14571   1.148   3.176   3.607  0.5824  0.0073  0.3663
  135OSM   H13S14572   1.058   3.115   3.628 -0.4254  0.4763 -2.2721
  135OSM   H13T14573   1.129   3.211   3.504  1.7727  1.6776  0.6698
  135OSM   C14S14574   1.148   3.293   3.711  0.6519 -0.0875 -0.0149
  135OSM   H14S14575   1.055   3.353   3.698  0.9194  0.5870  1.1188
  135OSM   H14T14576   1.228   3.366   3.689  1.0395 -1.1617 -2.6089
  135OSM   C15S14577   1.169   3.247   3.856 -0.1028  0.1363  0.4342
  135OSM   H15S14578   1.266   3.194   3.854 -0.5832 -1.1849 -4.9785
  135OSM   H15T14579   1.089   3.172   3.872  0.8921 -1.1030 -0.2110
  135OSM   C16S14580   1.157   3.340   3.976 -0.7123  0.6429  0.3658
  135OSM   H16S14581   1.064   3.399   3.961 -1.0066 -0.1944 -1.2654
  135OSM   H16T14582   1.241   3.412   3.992  1.0326 -0.2313 -3.6721
  135OSM   C17S14583   1.123   3.264   4.100  0.1612  0.9079  0.4305
  135OSM   H17S14584   1.185   3.173   4.120  0.1319  0.8804  0.3979
  135OSM   H17T14585   1.021   3.220   4.100  0.6752 -0.3897 -0.7368
  135OSM   C18S14586   1.129   3.346   4.223 -0.1536 -0.2263 -0.6013
  135OSM   H18S14587   1.233   3.385   4.228 -0.5218  0.6360  2.0011
  135OSM   H18T14588   1.100   3.278   4.305 -1.3955 -1.7307 -2.2199
  135OSM   H18U14589   1.063   3.435   4.234 -0.4900 -0.1408 -2.8067
  135OSM    C1F14590   1.199   1.992   3.070  0.5663  0.0106 -0.2965
  135OSM     OF14591   1.231   1.927   2.972  0.3835  0.4585 -0.2979
  135OSM    C2F14592   1.174   1.930   3.200 -0.2004 -0.8303  0.3868
  135OSM    H2F14593   1.068   1.947   3.228  0.3051  1.8331  0.9640
  135OSM    H2G14594   1.239   1.960   3.285  1.2935 -0.2248 -0.9213
  135OSM    C3F14595   1.197   1.780   3.197  0.0592  0.5823 -0.3244
  135OSM    H3F14596   1.296   1.754   3.154  0.8217  0.2144  1.5647
  135OSM    H3G14597   1.116   1.731   3.137  0.6039  0.6551 -1.1334
  135OSM    C4F14598   1.192   1.725   3.339  0.7990  0.4512 -1.1419
  135OSM    H4F14599   1.276   1.773   3.394 -0.3877 -0.7420  1.9240
  135OSM    H4G14600   1.216   1.617   3.324 -2.7512 -0.5213 -0.6766
  135OSM    C5F14601   1.055   1.746   3.418 -0.6810 -0.5046 -0.7238
  135OSM    H5F14602   0.969   1.741   3.348 -0.7746  0.4221 -0.6962
  135OSM    H5G14603   1.045   1.850   3.456 -1.1230 -0.0976 -1.9201
  135OSM    C6F14604   1.035   1.659   3.542 -0.2861 -0.1933 -0.3898
  135OSM    H6F14605   1.043   1.551   3.517  0.8559 -0.2882  0.2881
  135OSM    H6G14606   0.938   1.679   3.591 -0.6742 -4.4905  0.9836
  135OSM    C7F14607   1.137   1.695   3.655 -0.2339  0.3168 -0.8172
  135OSM    H7F14608   1.120   1.800   3.689  0.3844  0.0100  0.4935
  135OSM    H7G14609   1.244   1.686   3.626 -0.5904  1.7490 -2.8420
  135OSM    C8F14610   1.101   1.611   3.775  0.2991  0.1799  0.5637
  135OSM    H8F14611   1.099   1.507   3.736 -0.0475  0.6113 -0.6209
  135OSM    H8G14612   0.998   1.632   3.811  0.1467  0.3881  0.0109
  135OSM    C9F14613   1.212   1.629   3.880  0.1601 -0.3450  0.4221
  135OSM    H9F14614   1.312   1.592   3.855 -1.0262 -3.1998 -0.4170
  135OSM   C10F14615   1.187   1.683   4.004 -0.1846 -0.5509 -0.6382
  135OSM   H10F14616   1.270   1.690   4.075 -1.2756  1.2289  0.5374
  135OSM   C11F14617   1.044   1.725   4.055  0.2882 -0.1874  0.0028
  135OSM   H11F14618   0.983   1.635   4.076  0.0210 -0.1051 -0.4137
  135OSM   H11G14619   0.984   1.784   3.982 -0.9095  0.0642  1.1510
  135OSM   C12F14620   1.051   1.825   4.175  0.0560 -0.2249 -0.1916
  135OSM   H12F14621   0.947   1.857   4.197 -0.7446 -3.2370  0.8093
  135OSM   H12G14622   1.112   1.912   4.143  0.7152 -0.1788  1.1543
  135OSM   C13F14623   1.100   1.759   4.307  0.4429 -0.0969  0.1216
  135OSM   H13F14624   1.197   1.705   4.297 -0.4118 -1.9724  1.3219
  135OSM   H13G14625   1.026   1.678   4.320  0.3602 -0.1774 -0.7581
  135OSM   C14F14626   1.105   1.828   4.443 -0.1729  0.0675  0.7805
  135OSM   H14F14627   1.078   1.751   4.519  2.3649 -0.3618  1.3442
  135OSM   H14G14628   1.022   1.902   4.450  1.5027  1.9289  2.1485
  135OSM   C15F14629   1.241   1.897   4.473  0.2267 -0.0834  0.3909
  135OSM   H15F14630   1.275   1.945   4.379 -0.7411  1.2810  0.7040
  135OSM   H15G14631   1.313   1.818   4.502 -0.4210 -0.3798  1.2390
  135OSM   C16F14632   1.226   2.000   4.583 -0.0616 -0.4663 -0.2539
  135OSM   H16F14633   1.157   2.080   4.549 -1.1048 -0.1021  2.4442
  135OSM   H16G14634   1.323   2.048   4.608 -0.5304 -0.6172  2.0309
  135OSM   C17F14635   1.184   1.945   4.721 -0.5053  0.3706  0.0389
  135OSM   H17F14636   1.254   1.859   4.737  1.4928  2.1368  1.4951
  135OSM   H17G14637   1.081   1.904   4.714  0.5144 -2.4534  0.0716
  135OSM   C18F14638   1.189   2.037   4.847 -0.1676 -0.5300  0.4756
  135OSM   H18F14639   1.178   1.978   4.941  0.2101  0.8660  1.4286
  135OSM   H18G14640   1.104   2.107   4.843  0.2031  0.0519  2.1168
  135OSM   H18H14641   1.288   2.088   4.856 -0.9206  1.1880 -0.6101
  136OSM      N14642   6.379   5.266   2.233  0.0521 -0.3647 -0.6150
  136OSM    C1514643   6.470   5.380   2.279  0.7477 -0.6140 -0.7055
  136OSM   H15A14644   6.538   5.346   2.357  0.7933 -1.1820 -0.9890
  136OSM   H15B14645   6.433   5.475   2.315  3.5111  0.2302  0.1659
  136OSM   H15C14646   6.536   5.410   2.199  1.5765 -3.6481 -1.3144
  136OSM    C1414647   6.331   5.294   2.096 -0.4390  0.5853 -0.3431
  136OSM   H14A14648   6.422   5.322   2.045 -1.0432 -0.5586 -2.1659
  136OSM   H14B14649   6.257   5.372   2.096 -2.6735 -1.3203 -3.1056
  136OSM   H14C14650   6.276   5.212   2.053  0.5210 -0.2075 -0.0993
  136OSM    C1314651   6.463   5.142   2.236 -0.1685 -0.4132  0.5903
  136OSM   H13A14652   6.559   5.160   2.191  1.1287  1.9175  3.8754
  136OSM   H13B14653   6.413   5.060   2.186  1.3562 -1.3177  0.4724
  136OSM   H13C14654   6.484   5.104   2.335  0.1371 -1.5776  0.0966
  136OSM    C1214655   6.266   5.250   2.334 -0.2754  0.5198  0.6461
  136OSM   H12A14656   6.310   5.236   2.432 -0.7474 -0.1286  0.7733
  136OSM   H12B14657   6.220   5.156   2.306  2.9095 -1.3041  1.0231
  136OSM    C1114658   6.168   5.362   2.335 -0.0882  0.2093 -0.1696
  136OSM   H11A14659   6.086   5.351   2.261 -1.3833 -1.4111  1.4163
  136OSM   H11B14660   6.218   5.458   2.307  1.2494 -0.5718 -0.5515
  136OSM      P14661   6.158   5.437   2.587 -0.1866  0.5402  0.1737
  136OSM    O1314662   6.280   5.376   2.649 -0.1996  0.0077  0.3416
  136OSM    O1414663   6.159   5.577   2.551  0.4227 -0.8224  0.0872
  136OSM    O1114664   6.053   5.415   2.692  0.2446 -0.3655 -0.2286
  136OSM    O1214665   6.109   5.352   2.463  0.4328 -0.1534 -0.5297
  136OSM    C1S14666   6.006   5.288   2.739  0.1692  0.3130 -0.1137
  136OSM    H1S14667   6.077   5.207   2.714  1.0727  0.5891  1.4400
  136OSM    H1T14668   5.909   5.252   2.697  0.3536  1.1397 -1.2761
  136OSM     NF14669   5.984   5.154   2.939 -0.2891  0.0103  0.4891
  136OSM    HNF14670   5.894   5.113   2.955 -0.1257 -0.2220  0.8314
  136OSM    C2S14671   6.000   5.290   2.897  0.1299  0.4650  0.4065
  136OSM    H2S14672   6.093   5.339   2.933  0.5320  0.8460 -1.0589
  136OSM    C3S14673   5.880   5.382   2.939 -0.2052  0.0922 -1.0609
  136OSM    H3S14674   5.792   5.332   2.893 -0.9645 -2.0039  2.3240
  136OSM     O314675   5.900   5.517   2.894  0.0695 -0.5749 -0.4432
  136OSM    HO314676   5.943   5.498   2.810 -0.7661 -1.8603 -0.6200
  136OSM    C4S14677   5.874   5.374   3.087  0.0449  0.8530 -0.1546
  136OSM    H4S14678   5.824   5.279   3.114 -1.2609  0.2874 -4.0106
  136OSM    C5S14679   5.901   5.472   3.175 -0.0931  0.1652  0.1669
  136OSM    H5S14680   5.939   5.568   3.137 -0.1802  0.1833  0.1262
  136OSM    C6S14681   5.896   5.459   3.326  0.2516  1.0301 -0.5185
  136OSM    H6S14682   5.882   5.351   3.350  0.0206  1.3437  0.8633
  136OSM    H6T14683   5.808   5.510   3.369 -1.2849 -0.9006 -1.2175
  136OSM    C7S14684   6.031   5.495   3.398  0.5168 -0.2682  0.1346
  136OSM    H7S14685   6.035   5.600   3.361 -0.4658  0.0000  0.7564
  136OSM    H7T14686   6.120   5.432   3.376  1.6330  1.1304  0.4457
  136OSM    C8S14687   5.997   5.472   3.543 -0.2477 -0.4947 -0.0460
  136OSM    H8S14688   5.973   5.365   3.560  0.4552 -0.6819 -0.1661
  136OSM    H8T14689   5.903   5.529   3.557 -0.0960 -0.0897 -0.6129
  136OSM    C9S14690   6.108   5.527   3.641 -0.3898 -0.6234  0.7800
  136OSM    H9S14691   6.086   5.635   3.629 -0.5838 -0.7556 -0.0981
  136OSM    H9T14692   6.213   5.510   3.607 -0.7657 -3.2258  0.7282
  136OSM   C10S14693   6.106   5.477   3.781  1.1349 -0.0877  0.0126
  136OSM   H10S14694   6.182   5.535   3.837  2.0403 -0.0256 -1.2371
  136OSM   H10T14695   6.141   5.373   3.798  1.0311  0.1068  1.5863
  136OSM   C11S14696   5.959   5.493   3.838  0.5022 -0.2609  0.3075
  136OSM   H11S14697   5.874   5.452   3.780  0.9801 -0.0460 -0.5528
  136OSM   H11T14698   5.948   5.604   3.843 -2.6408 -0.4090 -1.1846
  136OSM   C12S14699   5.940   5.427   3.974 -0.1127 -0.0675  0.2029
  136OSM   H12S14700   5.935   5.316   3.981 -2.5111  0.0756  2.7064
  136OSM   H12T14701   5.849   5.470   4.022 -0.6714 -1.9421  0.9254
  136OSM   C13S14702   6.053   5.469   4.074 -0.1255 -0.1374  0.1666
  136OSM   H13S14703   6.052   5.579   4.080  0.7406 -0.1454  0.6808
  136OSM   H13T14704   6.152   5.438   4.033  0.5049 -1.0064  2.2229
  136OSM   C14S14705   6.033   5.415   4.221 -0.2077 -0.0788 -0.7983
  136OSM   H14S14706   6.057   5.307   4.232 -0.2951 -0.1009 -0.8248
  136OSM   H14T14707   5.927   5.431   4.251  1.1085  0.9558  4.2302
  136OSM   C15S14708   6.118   5.493   4.328 -0.1087 -0.5890 -0.3386
  136OSM   H15S14709   6.115   5.600   4.298  1.8610 -1.0022 -2.2884
  136OSM   H15T14710   6.222   5.468   4.296  0.4326  0.6225  0.4051
  136OSM   C16S14711   6.100   5.468   4.476 -0.3971 -1.0127  0.1288
  136OSM   H16S14712   6.192   5.487   4.535 -0.6207 -1.0185  0.4827
  136OSM   H16T14713   6.066   5.366   4.505 -2.0414 -0.7130 -0.6513
  136OSM   C17S14714   5.994   5.558   4.537  0.6131 -0.1028  0.1212
  136OSM   H17S14715   5.891   5.537   4.500  0.6870 -1.1385  0.4926
  136OSM   H17T14716   6.023   5.664   4.519 -0.8788  0.6261  1.7632
  136OSM   C18S14717   5.978   5.538   4.690  0.4090  0.8584  0.7670
  136OSM   H18S14718   6.060   5.586   4.747  1.1055  0.0666  0.4464
  136OSM   H18T14719   5.966   5.432   4.720  1.6654  0.5961  0.3959
  136OSM   H18U14720   5.883   5.593   4.712 -0.3544  0.4285 -1.2097
  136OSM    C1F14721   6.081   5.071   2.950 -0.3253  0.2583 -0.6094
  136OSM     OF14722   6.193   5.099   2.909 -0.7498 -0.3179  0.2924
  136OSM    C2F14723   6.059   4.949   3.034  0.1079  0.6896 -0.4902
  136OSM    H2F14724   6.148   4.882   3.025 -0.6606 -0.2011 -1.8058
  136OSM    H2G14725   5.981   4.893   2.979 -1.0099  0.9260  0.8035
  136OSM    C3F14726   6.022   4.977   3.181 -0.1364  0.2641 -0.3327
  136OSM    H3F14727   5.996   4.878   3.226 -1.7386 -0.2767 -2.2836
  136OSM    H3G14728   5.931   5.041   3.189  1.5011  2.4756  2.0425
  136OSM    C4F14729   6.140   5.032   3.260 -0.2997 -0.2145  0.4370
  136OSM    H4F14730   6.186   5.119   3.209  0.7505  1.0578  3.3116
  136OSM    H4G14731   6.227   4.963   3.275 -1.0332 -1.3645 -0.4265
  136OSM    C5F14732   6.098   5.075   3.403  0.2613 -0.0926 -0.0639
  136OSM    H5F14733   6.010   5.012   3.425 -0.0605 -0.0898 -1.2525
  136OSM    H5G14734   6.081   5.185   3.407  0.6881 -0.0628  1.6887
  136OSM    C6F14735   6.205   5.039   3.515 -0.0945 -0.1872 -0.9654
  136OSM    H6F14736   6.297   5.087   3.475 -0.7201  0.5018 -1.6046
  136OSM    H6G14737   6.218   4.929   3.527  1.5797  0.0338 -0.4616
  136OSM    C7F14738   6.159   5.109   3.648  0.6174 -0.0457  0.2408
  136OSM    H7F14739   6.051   5.087   3.665 -0.2062  3.8041  0.9458
  136OSM    H7G14740   6.174   5.219   3.650 -1.1469  0.2291  0.4017
  136OSM    C8F14741   6.234   5.060   3.771 -0.7996  0.4113  0.6428
  136OSM    H8F14742   6.337   5.092   3.743 -0.7299 -0.1595  0.2039
  136OSM    H8G14743   6.238   4.949   3.762  0.8367  0.4578  0.3283
  136OSM    C9F14744   6.198   5.110   3.906  0.6048  0.6059  0.3925
  136OSM    H9F14745   6.234   5.214   3.916  1.5299  0.3105  0.2274
  136OSM   C10F14746   6.156   5.044   4.013  0.1485  0.5779 -0.4118
  136OSM   H10F14747   6.130   5.116   4.092  0.4296  1.1363 -0.8191
  136OSM   C11F14748   6.112   4.896   4.015 -0.9529 -0.4356  0.1846
  136OSM   H11F14749   6.152   4.839   3.929  1.3339 -0.9621  1.5274
  136OSM   H11G14750   6.002   4.888   4.027 -0.8216 -1.6928  0.7253
  136OSM   C12F14751   6.182   4.832   4.138  0.6675  0.5521 -0.4054
  136OSM   H12F14752   6.288   4.864   4.144  0.3627  2.0982 -2.3017
  136OSM   H12G14753   6.183   4.723   4.119  1.0477  0.8767 -2.4237
  136OSM   C13F14754   6.096   4.855   4.269  0.8335 -0.0567 -0.8550
  136OSM   H13F14755   5.994   4.813   4.260  0.4059 -0.0681  2.5922
  136OSM   H13G14756   6.084   4.965   4.280 -1.8953 -0.2028 -1.7674
  136OSM   C14F14757   6.153   4.807   4.408  0.5432 -0.7143  0.0570
  136OSM   H14F14758   6.232   4.882   4.431 -0.1695 -0.0841  0.4836
  136OSM   H14G14759   6.200   4.709   4.383  0.9713 -0.1542 -1.4697
  136OSM   C15F14760   6.047   4.811   4.521 -0.2523 -0.3312 -0.1373
  136OSM   H15F14761   5.948   4.771   4.487  0.3679 -3.0574  1.0097
  136OSM   H15G14762   6.034   4.910   4.569  0.1814  0.9051 -2.4312
  136OSM   C16F14763   6.087   4.727   4.646 -0.1237 -0.2525  0.1237
  136OSM   H16F14764   6.093   4.617   4.633  0.2390 -0.3440  0.9994
  136OSM   H16G14765   6.013   4.739   4.729  0.5861  1.4264  0.5478
  136OSM   C17F14766   6.222   4.778   4.693 -0.2851 -0.2826 -0.3357
  136OSM   H17F14767   6.214   4.885   4.723 -1.5819 -0.2139 -0.8690
  136OSM   H17G14768   6.287   4.773   4.604 -1.2555  0.3994 -1.1032
  136OSM   C18F14769   6.300   4.693   4.795  0.6940 -0.3028 -0.4518
  136OSM   H18F14770   6.268   4.713   4.900 -1.0406 -0.7820 -0.8568
  136OSM   H18G14771   6.410   4.707   4.788  0.9402 -1.5533  0.5931
  136OSM   H18H14772   6.280   4.584   4.786 -0.3713 -0.2666  1.1177
  137OSM      N14773   2.448   3.869   2.025  0.2489  0.6881  0.5493
  137OSM    C1514774   2.517   4.008   2.031 -0.2200  0.1793  0.5778
  137OSM   H15A14775   2.501   4.058   1.937  0.3560  1.1038  0.9567
  137OSM   H15B14776   2.625   4.008   2.038 -0.1526  0.0658 -0.3542
  137OSM   H15C14777   2.477   4.066   2.113  0.5002  1.0962  0.3072
  137OSM    C1414778   2.299   3.894   2.021  0.2199  0.5412 -0.0427
  137OSM   H14A14779   2.271   3.953   1.936 -3.5528  0.9309  1.2955
  137OSM   H14B14780   2.265   3.928   2.118 -0.8015  0.3521 -0.3319
  137OSM   H14C14781   2.243   3.804   2.000  1.4184 -0.1734 -0.2814
  137OSM    C1314782   2.493   3.793   1.902  0.2467 -0.2442  0.4987
  137OSM   H13A14783   2.460   3.690   1.907  0.9663 -0.5887 -1.2901
  137OSM   H13B14784   2.601   3.789   1.898  0.1929 -2.2177 -0.0319
  137OSM   H13C14785   2.458   3.845   1.814  0.3912  1.4349  1.3966
  137OSM    C1214786   2.475   3.791   2.159  0.2183 -0.2515 -0.6196
  137OSM   H12A14787   2.582   3.780   2.166  0.0751 -2.4422 -1.2554
  137OSM   H12B14788   2.438   3.692   2.141  0.0283 -0.2578 -0.2060
  137OSM    C1114789   2.413   3.840   2.287 -0.0610 -0.0843  0.0422
  137OSM   H11A14790   2.436   3.948   2.280  0.7321 -0.1391  1.4094
  137OSM   H11B14791   2.459   3.794   2.377  1.6663 -0.0535 -0.7838
  137OSM      P14792   2.216   3.687   2.323 -0.4108 -0.4658  0.3301
  137OSM    O1314793   2.072   3.678   2.287  0.6902  0.6237  0.0328
  137OSM    O1414794   2.308   3.590   2.261 -0.8407 -0.2701 -0.1758
  137OSM    O1114795   2.238   3.679   2.480  0.4710  0.4762  0.0391
  137OSM    O1214796   2.264   3.834   2.285 -0.5256  0.3953  0.9122
  137OSM    C1S14797   2.205   3.800   2.551 -0.2696  0.2489 -0.4391
  137OSM    H1S14798   2.110   3.845   2.518 -0.8091  0.0498  0.8058
  137OSM    H1T14799   2.277   3.880   2.522  1.6309 -1.8939 -2.0853
  137OSM     NF14800   2.152   3.883   2.772  0.8511  0.8976 -0.1852
  137OSM    HNF14801   2.216   3.954   2.800 -0.1881  0.6626  3.2782
  137OSM    C2S14802   2.207   3.772   2.705  0.5271 -0.1964 -0.0669
  137OSM    H2S14803   2.140   3.689   2.736  1.2191 -0.1347  1.7164
  137OSM    C3S14804   2.344   3.730   2.764  0.3480 -0.0797 -0.2254
  137OSM    H3S14805   2.411   3.818   2.762 -2.9978  2.7314 -2.9700
  137OSM     O314806   2.413   3.636   2.685 -0.3392 -0.2403 -0.1317
  137OSM    HO314807   2.355   3.630   2.608  1.4288  1.5660 -1.7253
  137OSM    C4S14808   2.337   3.688   2.913  0.0651  0.6561  0.1249
  137OSM    H4S14809   2.354   3.759   2.995  1.1415  0.4142  0.1306
  137OSM    C5S14810   2.304   3.566   2.962 -0.1110 -0.1657 -0.1129
  137OSM    H5S14811   2.283   3.484   2.891 -0.9400  0.3457 -0.4705
  137OSM    C6S14812   2.301   3.528   3.110  0.0812 -0.2058  0.9634
  137OSM    H6S14813   2.236   3.600   3.165  0.7926  0.9321  0.3419
  137OSM    H6T14814   2.402   3.539   3.155  1.2893 -1.4096 -1.2762
  137OSM    C7S14815   2.252   3.386   3.139 -0.0449  0.6888 -0.0475
  137OSM    H7S14816   2.327   3.323   3.086 -1.5404 -0.1438 -1.2708
  137OSM    H7T14817   2.150   3.371   3.097  0.8639 -1.3585 -1.7034
  137OSM    C8S14818   2.253   3.346   3.281  0.0895 -0.1824  0.2907
  137OSM    H8S14819   2.358   3.366   3.313  0.0676  1.5605 -0.6295
  137OSM    H8T14820   2.226   3.239   3.292  1.0942 -0.9323 -3.2881
  137OSM    C9S14821   2.164   3.427   3.380 -0.0089  0.9563 -0.1864
  137OSM    H9S14822   2.058   3.406   3.357  0.6601 -1.9533 -0.9678
  137OSM    H9T14823   2.197   3.533   3.387  1.2333  0.4825  2.2344
  137OSM   C10S14824   2.178   3.378   3.520  0.1299  0.4900  0.0288
  137OSM   H10S14825   2.147   3.271   3.525  1.1465  0.2434  1.7574
  137OSM   H10T14826   2.113   3.443   3.582 -0.4867  0.5241 -0.6359
  137OSM   C11S14827   2.327   3.383   3.583  0.2074 -0.2172 -0.2952
  137OSM   H11S14828   2.334   3.494   3.583  1.0175 -0.2594  0.0628
  137OSM   H11T14829   2.394   3.336   3.508 -1.1754 -0.1540 -1.6169
  137OSM   C12S14830   2.343   3.309   3.712  0.8574  0.0559  0.4968
  137OSM   H12S14831   2.446   3.331   3.747  1.7490 -0.8154 -1.4351
  137OSM   H12T14832   2.329   3.199   3.704  1.1143  0.0119  0.6641
  137OSM   C13S14833   2.250   3.363   3.809 -0.2125 -0.1332 -0.2342
  137OSM   H13S14834   2.143   3.347   3.786 -0.2913 -0.4041  0.3116
  137OSM   H13T14835   2.273   3.472   3.802  0.5338 -0.3480 -1.4120
  137OSM   C14S14836   2.282   3.310   3.951 -0.4674  0.0118 -0.0573
  137OSM   H14S14837   2.392   3.300   3.965 -0.7470 -3.1539  0.6741
  137OSM   H14T14838   2.241   3.207   3.963 -1.0970  0.1757 -0.7387
  137OSM   C15S14839   2.228   3.398   4.069 -0.2037  0.1800  0.7180
  137OSM   H15S14840   2.122   3.429   4.056 -0.2007  0.8558  2.0938
  137OSM   H15T14841   2.284   3.494   4.069  1.6246 -0.6487 -3.7306
  137OSM   C16S14842   2.249   3.333   4.209 -0.3161  0.1688 -0.3784
  137OSM   H16S14843   2.354   3.347   4.242  0.0623  0.4508 -1.6546
  137OSM   H16T14844   2.231   3.224   4.199  0.6220 -0.1238  0.9819
  137OSM   C17S14845   2.158   3.374   4.325  0.0813 -0.3587 -0.3764
  137OSM   H17S14846   2.177   3.479   4.359 -1.8935 -0.8167  2.4976
  137OSM   H17T14847   2.195   3.322   4.416 -0.1440  2.0345  1.1715
  137OSM   C18S14848   2.007   3.369   4.306  0.1792 -0.1823 -0.3878
  137OSM   H18S14849   1.974   3.427   4.395 -0.6102 -0.6789 -0.3517
  137OSM   H18T14850   1.976   3.262   4.301  1.5255 -0.6705  0.9607
  137OSM   H18U14851   1.973   3.423   4.215 -1.2118  1.6977  1.1688
  137OSM    C1F14852   2.023   3.905   2.767  0.7884 -0.3074  0.2127
  137OSM     OF14853   1.947   3.833   2.706 -0.2365 -0.2438 -0.0765
  137OSM    C2F14854   1.977   4.032   2.835 -0.2307 -0.1469  0.2919
  137OSM    H2F14855   1.926   4.090   2.754 -0.1196 -0.5579 -0.0763
  137OSM    H2G14856   2.065   4.092   2.868  0.0305  1.2172 -2.5385
  137OSM    C3F14857   1.889   3.992   2.952 -0.3855  0.3563 -0.0365
  137OSM    H3F14858   1.819   3.910   2.924 -1.2076  1.5911 -1.8072
  137OSM    H3G14859   1.822   4.078   2.977 -0.2537 -0.3465  3.1749
  137OSM    C4F14860   1.962   3.968   3.082  1.0064  0.5071 -0.3486
  137OSM    H4F14861   1.872   3.963   3.146  0.3214 -0.8571 -1.3627
  137OSM    H4G14862   2.029   4.053   3.108  0.5417  1.4147 -1.9729
  137OSM    C5F14863   2.029   3.833   3.102 -0.0632  0.1330 -0.0581
  137OSM    H5F14864   2.119   3.835   3.036  1.0204  0.8713  1.3693
  137OSM    H5G14865   1.961   3.751   3.071 -0.6292  0.5570  0.0581
  137OSM    C6F14866   2.067   3.819   3.250  0.8077  0.1868  1.0817
  137OSM    H6F14867   2.077   3.920   3.296 -0.2092 -0.9305  3.9899
  137OSM    H6G14868   2.165   3.766   3.251  0.2424 -0.9067  0.1809
  137OSM    C7F14869   1.966   3.731   3.332 -0.3407  0.0828  0.4871
  137OSM    H7F14870   1.992   3.626   3.304  1.5695  0.3054  1.2826
  137OSM    H7G14871   1.861   3.749   3.299  0.5275  2.0974 -1.4150
  137OSM    C8F14872   1.968   3.745   3.488  0.3209  0.0041  0.3531
  137OSM    H8F14873   1.952   3.851   3.518 -0.1285  0.6485 -1.9167
  137OSM    H8G14874   2.074   3.720   3.510 -0.5712 -1.1140  4.1092
  137OSM    C9F14875   1.884   3.643   3.555 -0.1561 -1.1230 -0.1172
  137OSM    H9F14876   1.833   3.572   3.487  1.2246  1.7258 -4.5603
  137OSM   C10F14877   1.879   3.633   3.688  0.1149  0.1753  0.3278
  137OSM   H10F14878   1.821   3.546   3.722 -0.9099  0.2826 -1.0282
  137OSM   C11F14879   1.951   3.713   3.794 -0.7940  0.0889  0.5453
  137OSM   H11F14880   2.047   3.760   3.762 -0.5638  1.5561  3.1413
  137OSM   H11G14881   1.985   3.648   3.877 -4.1880 -0.4731  1.6205
  137OSM   C12F14882   1.865   3.834   3.845  0.3148 -0.0053  0.0891
  137OSM   H12F14883   1.770   3.791   3.884  0.3694  0.5155  0.8118
  137OSM   H12G14884   1.854   3.910   3.766 -0.5344  1.9722  1.9984
  137OSM   C13F14885   1.920   3.895   3.978  0.0677  0.0491  0.6706
  137OSM   H13F14886   1.872   3.993   3.998  1.0487  1.2602 -2.3975
  137OSM   H13G14887   2.024   3.927   3.958 -0.3357  0.3829 -0.9766
  137OSM   C14F14888   1.914   3.806   4.099 -0.9304  0.8494  0.3688
  137OSM   H14F14889   1.986   3.722   4.087 -1.0337  0.7576  0.3969
  137OSM   H14G14890   1.809   3.777   4.119 -0.3397 -0.7753  1.2741
  137OSM   C15F14891   1.980   3.874   4.227  0.5745  0.1591  0.0891
  137OSM   H15F14892   1.931   3.974   4.229  0.1158 -0.0772  1.0744
  137OSM   H15G14893   2.088   3.896   4.209  0.7746 -0.4334  0.5520
  137OSM   C16F14894   1.945   3.793   4.351 -0.2418  0.4865 -0.1752
  137OSM   H16F14895   1.981   3.692   4.325 -0.6461  0.1085  0.7023
  137OSM   H16G14896   1.836   3.792   4.369  0.1494 -0.1556  2.4576
  137OSM   C17F14897   2.018   3.825   4.483  0.1972 -0.3770  0.8176
  137OSM   H17F14898   1.991   3.743   4.554  4.4051 -1.8322  0.9749
  137OSM   H17G14899   2.010   3.925   4.530 -0.3273 -1.2843  2.7520
  137OSM   C18F14900   2.167   3.800   4.467  0.3007  0.4715 -0.1155
  137OSM   H18F14901   2.182   3.692   4.446 -1.5729  0.2450 -0.4691
  137OSM   H18G14902   2.229   3.820   4.557 -1.0290 -0.0018  0.9454
  137OSM   H18H14903   2.199   3.868   4.385 -0.2965  0.6088 -0.2398
  138OSM      N14904   2.711   3.996   2.673 -0.1419  0.5898 -0.6443
  138OSM    C1514905   2.700   3.898   2.784 -0.0112  0.5967 -0.9372
  138OSM   H15A14906   2.775   3.915   2.859  0.5244 -0.8824 -1.1113
  138OSM   H15B14907   2.712   3.794   2.755  2.6488  0.8465 -0.9662
  138OSM   H15C14908   2.607   3.909   2.838  0.1040 -2.1232 -0.0407
  138OSM    C1414909   2.841   3.959   2.597  0.6417  0.0731  0.2203
  138OSM   H14A14910   2.920   3.983   2.667  0.2616 -3.0157  1.8727
  138OSM   H14B14911   2.859   4.005   2.501 -0.5225  0.5802  0.2290
  138OSM   H14C14912   2.847   3.853   2.580  0.8512 -0.0011  0.7284
  138OSM    C1314913   2.590   3.988   2.581 -0.2416  0.5894  0.0728
  138OSM   H13A14914   2.593   4.060   2.500  0.6192 -0.3242 -0.7381
  138OSM   H13B14915   2.499   3.999   2.638  0.7899  0.1825  1.8601
  138OSM   H13C14916   2.590   3.890   2.534 -0.2329 -0.3729  1.9900
  138OSM    C1214917   2.733   4.138   2.720 -0.5438 -0.2942 -0.6606
  138OSM   H12A14918   2.741   4.212   2.642  0.9342 -0.0573 -0.3094
  138OSM   H12B14919   2.827   4.141   2.772 -0.9209 -1.8039  0.1757
  138OSM    C1114920   2.637   4.199   2.823 -0.5597 -0.7988 -0.0860
  138OSM   H11A14921   2.683   4.292   2.861  0.3230 -1.1340 -0.3246
  138OSM   H11B14922   2.634   4.131   2.911 -1.0930 -2.1007 -1.0684
  138OSM      P14923   2.482   4.355   2.695  0.0869  0.1791 -0.2454
  138OSM    O1314924   2.596   4.379   2.606 -0.2642 -0.3720 -0.6906
  138OSM    O1414925   2.354   4.347   2.625  0.4050  0.2193 -0.6204
  138OSM    O1114926   2.470   4.467   2.805  0.3556  0.3338  0.3287
  138OSM    O1214927   2.506   4.227   2.781  0.2257 -0.0071  0.6643
  138OSM    C1S14928   2.358   4.464   2.892  0.1287 -0.2484 -0.4610
  138OSM    H1S14929   2.277   4.391   2.871 -1.2182  0.3792  2.0462
  138OSM    H1T14930   2.310   4.564   2.883  1.0027  0.2082 -0.0958
  138OSM     NF14931   2.300   4.418   3.132  0.8576  0.0718  0.9664
  138OSM    HNF14932   2.266   4.495   3.186 -1.4368 -0.0970 -0.1144
  138OSM    C2S14933   2.407   4.439   3.037  0.2183 -0.0152  0.0687
  138OSM    H2S14934   2.475   4.352   3.040  2.0693  1.4096  1.8794
  138OSM    C3S14935   2.496   4.558   3.086 -0.1872  0.4383  0.1794
  138OSM    H3S14936   2.436   4.645   3.122  0.2773 -0.1274  2.5090
  138OSM     O314937   2.591   4.601   2.991 -0.0075 -0.3480  0.9731
  138OSM    HO314938   2.564   4.545   2.917 -0.0639 -0.7754  1.3122
  138OSM    C4S14939   2.562   4.514   3.218 -0.2681 -0.4942 -0.4420
  138OSM    H4S14940   2.496   4.529   3.305  0.1386  1.3437 -0.4026
  138OSM    C5S14941   2.694   4.471   3.232 -0.3795  0.2090 -0.5809
  138OSM    H5S14942   2.755   4.461   3.141  1.5540  0.6747  0.6164
  138OSM    C6S14943   2.769   4.449   3.363  0.1294  0.0098  0.4997
  138OSM    H6S14944   2.861   4.508   3.380 -0.3511  0.4814  1.5717
  138OSM    H6T14945   2.795   4.341   3.369  0.6399  0.0518 -0.7336
  138OSM    C7S14946   2.695   4.467   3.501 -0.6837 -0.1520 -0.0294
  138OSM    H7S14947   2.637   4.373   3.513 -0.0877 -0.9309 -2.5362
  138OSM    H7T14948   2.635   4.561   3.495 -0.8215 -0.2549 -0.2930
  138OSM    C8S14949   2.785   4.474   3.621 -0.5536  0.1862  0.2449
  138OSM    H8S14950   2.724   4.508   3.707  1.8871 -0.5935  2.4460
  138OSM    H8T14951   2.863   4.551   3.604  0.6857 -1.1199 -0.2221
  138OSM    C9S14952   2.852   4.339   3.652 -0.1694 -0.3131  0.0094
  138OSM    H9S14953   2.916   4.308   3.566 -0.4154 -0.3118 -0.1748
  138OSM    H9T14954   2.766   4.272   3.672  1.2125 -2.0710  0.3262
  138OSM   C10S14955   2.952   4.353   3.772 -0.0924 -0.4391  0.0814
  138OSM   H10S14956   3.040   4.411   3.737 -1.1551  1.0137 -0.2781
  138OSM   H10T14957   2.990   4.251   3.795  2.3675  0.2236 -0.6464
  138OSM   C11S14958   2.911   4.430   3.897  0.3162 -0.0188  0.2291
  138OSM   H11S14959   2.806   4.402   3.922  0.4431 -0.5208  0.2199
  138OSM   H11T14960   2.912   4.536   3.863 -1.0758  0.0603  0.3439
  138OSM   C12S14961   2.994   4.391   4.015  0.1000 -0.1243  0.8459
  138OSM   H12S14962   3.101   4.385   3.988 -0.2953  0.5024 -1.0563
  138OSM   H12T14963   2.970   4.287   4.046  3.1722 -1.5126 -0.9417
  138OSM   C13S14964   2.971   4.487   4.135 -0.0740  0.1133  0.0974
  138OSM   H13S14965   2.959   4.593   4.105 -0.4433  0.1258  0.2940
  138OSM   H13T14966   3.060   4.490   4.202 -1.6563 -2.1542  2.4755
  138OSM   C14S14967   2.845   4.444   4.224 -0.3587 -0.1858 -0.9741
  138OSM   H14S14968   2.844   4.342   4.269 -0.9038  0.4642  0.5436
  138OSM   H14T14969   2.760   4.441   4.152 -1.0812 -1.0054 -0.1060
  138OSM   C15S14970   2.809   4.542   4.336  0.1968 -1.1630 -0.0210
  138OSM   H15S14971   2.701   4.532   4.359 -0.5854  0.3423 -2.5927
  138OSM   H15T14972   2.818   4.647   4.301 -0.8605 -0.8999  0.4713
  138OSM   C16S14973   2.905   4.539   4.454 -0.0318 -0.9825 -0.8627
  138OSM   H16S14974   2.892   4.630   4.515  0.9938 -1.6389  0.3684
  138OSM   H16T14975   3.009   4.538   4.416 -0.2071  0.1388 -1.4156
  138OSM   C17S14976   2.882   4.414   4.545 -0.1551  0.7724 -0.3410
  138OSM   H17S14977   2.963   4.412   4.620 -0.5604 -1.1907  0.0811
  138OSM   H17T14978   2.900   4.322   4.485 -1.1538  1.3577 -1.6064
  138OSM   C18S14979   2.748   4.402   4.611 -0.8763  0.5908 -1.0113
  138OSM   H18S14980   2.732   4.305   4.663 -1.1573  0.2809 -1.6646
  138OSM   H18T14981   2.678   4.395   4.525  0.5022 -1.6195 -2.0400
  138OSM   H18U14982   2.729   4.491   4.674 -2.0748 -0.3505 -0.0049
  138OSM    C1F14983   2.224   4.310   3.131  0.2436 -0.7682 -0.2933
  138OSM     OF14984   2.248   4.221   3.052 -0.6562  0.1524  0.7897
  138OSM    C2F14985   2.118   4.302   3.235 -1.0185 -0.5150  0.2332
  138OSM    H2F14986   2.139   4.361   3.327  0.4671 -0.3455 -0.1764
  138OSM    H2G14987   2.110   4.195   3.264  1.7977 -0.6633  0.7910
  138OSM    C3F14988   1.983   4.344   3.184  1.2802  0.0574  0.0719
  138OSM    H3F14989   1.940   4.282   3.102 -0.4799 -1.2587  1.9060
  138OSM    H3G14990   1.980   4.450   3.150 -0.1636 -0.1970 -0.6942
  138OSM    C4F14991   1.884   4.346   3.306  0.9875 -0.0226 -0.0852
  138OSM    H4F14992   1.784   4.373   3.265  0.0998 -0.1913  1.8634
  138OSM    H4G14993   1.924   4.413   3.385  3.6512 -1.3585 -0.1649
  138OSM    C5F14994   1.859   4.206   3.363 -0.4008  0.3013  0.6029
  138OSM    H5F14995   1.957   4.159   3.386 -1.4435 -1.4292  1.7154
  138OSM    H5G14996   1.824   4.137   3.283  1.9942 -0.5107  0.1840
  138OSM    C6F14997   1.781   4.205   3.493 -0.1164 -0.0926  0.5119
  138OSM    H6F14998   1.753   4.100   3.516 -0.9124 -0.6028 -2.3472
  138OSM    H6G14999   1.681   4.252   3.480 -1.3611 -1.9358  2.6718
  138OSM    C7F15000   1.861   4.265   3.619  0.4862  0.7532  0.4097
  138OSM    H7F15001   1.878   4.375   3.607  1.7409  0.3977 -1.6578
  138OSM    H7G15002   1.964   4.227   3.600 -0.3678 -1.0728 -0.7761
  138OSM    C8F15003   1.815   4.238   3.765  0.1191 -0.3733  0.0386
  138OSM    H8F15004   1.897   4.263   3.834  0.1156 -0.8691  0.2212
  138OSM    H8G15005   1.809   4.128   3.777  2.3800 -0.3305  2.1244
  138OSM    C9F15006   1.675   4.307   3.791  0.7607  0.0847 -0.2485
  138OSM    H9F15007   1.608   4.310   3.704 -0.6698 -1.1083  0.7774
  138OSM   C10F15008   1.640   4.361   3.906  0.7916  0.3983 -0.1450
  138OSM   H10F15009   1.540   4.405   3.920 -0.0136 -0.3027 -3.0998
  138OSM   C11F15010   1.732   4.367   4.034  0.6536 -0.2660 -0.6876
  138OSM   H11F15011   1.728   4.472   4.069  0.8807  0.0867 -1.6870
  138OSM   H11G15012   1.831   4.322   4.010 -0.3966 -1.9551 -2.1713
  138OSM   C12F15013   1.670   4.263   4.128  0.6049  0.2736  0.0795
  138OSM   H12F15014   1.681   4.162   4.082  1.7183  0.5820 -0.3713
  138OSM   H12G15015   1.566   4.284   4.159  0.0879 -0.6546 -0.9253
  138OSM   C13F15016   1.746   4.258   4.267 -0.2189 -0.2470 -0.2341
  138OSM   H13F15017   1.742   4.357   4.317  2.4741 -0.9909  1.6858
  138OSM   H13G15018   1.851   4.229   4.247 -0.2624  0.9763 -2.5068
  138OSM   C14F15019   1.688   4.164   4.363  0.2298 -0.2575  0.4893
  138OSM   H14F15020   1.691   4.062   4.318  4.4567  0.6107 -1.7523
  138OSM   H14G15021   1.579   4.183   4.372 -0.0854 -1.1642 -1.0162
  138OSM   C15F15022   1.763   4.136   4.497  0.9986  0.5807  0.1606
  138OSM   H15F15023   1.785   4.219   4.568  3.7494 -0.6049  0.8098
  138OSM   H15G15024   1.866   4.105   4.471  0.9084 -2.1910  2.5420
  138OSM   C16F15025   1.713   4.010   4.569 -0.3149  0.4416 -1.4148
  138OSM   H16F15026   1.715   3.917   4.508 -0.8438  0.3828 -1.3482
  138OSM   H16G15027   1.605   4.028   4.583 -0.0929  0.6231  0.3347
  138OSM   C17F15028   1.778   3.998   4.702  0.7880  0.6185 -0.1002
  138OSM   H17F15029   1.754   4.087   4.764 -1.8217 -0.3724  0.4163
  138OSM   H17G15030   1.888   3.985   4.691  0.7851  0.5369 -0.0343
  138OSM   C18F15031   1.727   3.878   4.782  0.2038 -0.2407 -0.1295
  138OSM   H18F15032   1.772   3.874   4.884 -1.2491  1.1239  0.6086
  138OSM   H18G15033   1.755   3.784   4.730  0.8380 -0.4677  0.6050
  138OSM   H18H15034   1.616   3.881   4.788  0.1941  3.3385  0.4610
  139OSM      N15035   3.284   1.411   2.841  0.2436 -0.2095 -0.6668
  139OSM    C1515036   3.281   1.309   2.953  0.2606  0.1182 -0.1088
  139OSM   H15A15037   3.262   1.359   3.047 -1.0555 -2.6997  1.2476
  139OSM   H15B15038   3.369   1.246   2.953  0.1737 -0.0026 -0.1853
  139OSM   H15C15039   3.195   1.247   2.935 -0.2557  1.4799 -2.7357
  139OSM    C1415040   3.322   1.327   2.725 -0.0280 -0.6832 -0.2003
  139OSM   H14A15041   3.245   1.254   2.706  0.9884 -1.6553 -0.7064
  139OSM   H14B15042   3.422   1.286   2.735 -0.8293 -2.7401 -0.0692
  139OSM   H14C15043   3.342   1.406   2.655  0.0413  0.0718  0.6505
  139OSM    C1315044   3.143   1.466   2.821  0.1445 -0.0033 -0.4953
  139OSM   H13A15045   3.112   1.525   2.906  2.5004 -0.7130  0.9386
  139OSM   H13B15046   3.074   1.383   2.820  1.1863 -0.9310  0.9737
  139OSM   H13C15047   3.147   1.521   2.728 -0.9315  1.2451  0.1654
  139OSM    C1215048   3.385   1.520   2.875 -0.4703 -0.5791 -0.0864
  139OSM   H12A15049   3.481   1.480   2.904 -0.9590  0.1900  2.9829
  139OSM   H12B15050   3.361   1.565   2.970  1.7618  0.1468  0.1882
  139OSM    C1115051   3.411   1.645   2.785 -0.1727 -0.6484  0.0163
  139OSM   H11A15052   3.433   1.618   2.680 -1.0551  1.9426 -0.9256
  139OSM   H11B15053   3.501   1.701   2.820  0.8348 -2.9150  1.2627
  139OSM      P15054   3.295   1.874   2.823 -0.1977  0.2520 -0.5169
  139OSM    O1315055   3.420   1.944   2.785  0.3374  0.4141 -0.5296
  139OSM    O1415056   3.164   1.938   2.791  0.0157 -0.1430 -0.4398
  139OSM    O1115057   3.306   1.857   2.980  0.0568 -0.2822 -0.2240
  139OSM    O1215058   3.294   1.727   2.781 -0.8096 -0.9356 -0.5053
  139OSM    C1S15059   3.208   1.777   3.052 -0.3103  0.0257  0.8188
  139OSM    H1S15060   3.213   1.669   3.026 -3.9203  0.1109 -0.7218
  139OSM    H1T15061   3.108   1.804   3.012 -0.4898 -2.3661 -0.5405
  139OSM     NF15062   3.127   1.689   3.269  0.3616 -0.4894  0.1654
  139OSM    HNF15063   3.035   1.719   3.292  0.6192  0.3596  0.1070
  139OSM    C2S15064   3.204   1.801   3.206  0.3819  1.2918  0.3881
  139OSM    H2S15065   3.307   1.797   3.249  0.2508  2.7828  0.9211
  139OSM    C3S15066   3.160   1.948   3.226  0.2992 -0.7097 -0.6286
  139OSM    H3S15067   3.058   1.957   3.184  0.0551  0.2993  0.1414
  139OSM     O315068   3.243   2.043   3.163 -0.1134 -0.9138  0.3591
  139OSM    HO315069   3.268   1.994   3.085 -0.7430 -0.6286 -0.0319
  139OSM    C4S15070   3.160   1.993   3.369  0.7250 -0.0239 -0.2119
  139OSM    H4S15071   3.245   1.962   3.431  0.8219 -0.4546 -0.5529
  139OSM    C5S15072   3.069   2.075   3.427  0.3331 -0.3939  0.0699
  139OSM    H5S15073   2.976   2.105   3.377 -0.4402 -1.7092  0.6785
  139OSM    C6S15074   3.088   2.132   3.568  0.1178  0.1446 -0.4820
  139OSM    H6S15075   3.003   2.105   3.634  0.3598  3.0856  1.2324
  139OSM    H6T15076   3.079   2.243   3.561 -1.1649  0.1053  0.2153
  139OSM    C7S15077   3.216   2.094   3.644 -0.5469  0.4203 -0.0171
  139OSM    H7S15078   3.296   2.150   3.592  0.1202 -0.4035  0.1037
  139OSM    H7T15079   3.230   1.984   3.653  2.2002  0.7080  0.0055
  139OSM    C8S15080   3.217   2.150   3.787 -0.2371 -0.1390  0.1410
  139OSM    H8S15081   3.299   2.097   3.841  1.4931  0.8513 -1.3778
  139OSM    H8T15082   3.131   2.112   3.845  0.7958 -1.1946  1.0369
  139OSM    C9S15083   3.241   2.301   3.794  0.1715  0.3181  0.4560
  139OSM    H9S15084   3.161   2.358   3.742 -0.9827  0.8530  2.6847
  139OSM    H9T15085   3.334   2.330   3.742 -0.5975  1.4633 -0.3153
  139OSM   C10S15086   3.249   2.345   3.941  0.2883  0.0650  0.5775
  139OSM   H10S15087   3.267   2.454   3.928 -1.9219  0.5388  1.0213
  139OSM   H10T15088   3.328   2.304   4.007  0.0420  0.1117  0.9043
  139OSM   C11S15089   3.118   2.334   4.015  0.2406  0.9029  1.1006
  139OSM   H11S15090   3.100   2.225   4.032  0.1169  0.0890 -3.1831
  139OSM   H11T15091   3.037   2.362   3.945 -0.2280 -0.1340  1.2045
  139OSM   C12S15092   3.121   2.409   4.146  0.4757 -0.0797 -0.2080
  139OSM   H12S15093   3.142   2.517   4.138 -0.4854  0.3186  1.7959
  139OSM   H12T15094   3.207   2.369   4.204  0.2114 -1.8382 -0.9629
  139OSM   C13S15095   2.996   2.401   4.233  1.2934  0.0336 -0.7116
  139OSM   H13S15096   2.974   2.295   4.259  4.9176 -0.5784  0.4301
  139OSM   H13T15097   2.913   2.441   4.170  2.7424  2.1059 -1.3891
  139OSM   C14S15098   3.012   2.482   4.367 -0.2779  0.1242 -0.6390
  139OSM   H14S15099   3.037   2.587   4.338 -0.8122  1.0001  1.7830
  139OSM   H14T15100   3.101   2.448   4.425 -1.1369  0.8459  1.2026
  139OSM   C15S15101   2.888   2.479   4.457  0.6026  0.1578  0.4147
  139OSM   H15S15102   2.884   2.373   4.488  0.2619 -0.7761 -2.5113
  139OSM   H15T15103   2.787   2.504   4.417  0.3757 -0.1379  0.8023
  139OSM   C16S15104   2.900   2.573   4.579 -0.6359 -0.0049  0.5618
  139OSM   H16S15105   2.892   2.677   4.540  1.9623 -0.1477 -0.5531
  139OSM   H16T15106   3.005   2.575   4.614 -0.1710  1.2374 -0.8138
  139OSM   C17S15107   2.793   2.553   4.682  0.0659 -0.8413  0.0185
  139OSM   H17S15108   2.806   2.628   4.762  2.7242 -0.6092 -0.5161
  139OSM   H17T15109   2.806   2.461   4.742 -0.2100 -0.0466  1.3234
  139OSM   C18S15110   2.644   2.545   4.632  0.3048  0.4187 -0.4835
  139OSM   H18S15111   2.608   2.645   4.600 -0.5710  1.4160  3.1674
  139OSM   H18T15112   2.579   2.514   4.717  0.3530  0.6684 -0.3561
  139OSM   H18U15113   2.636   2.472   4.549  0.8419 -0.9077  0.6012
  139OSM    C1F15114   3.170   1.564   3.283  0.2012  0.2337 -0.3077
  139OSM     OF15115   3.274   1.531   3.226 -0.3417  0.8254 -0.1044
  139OSM    C2F15116   3.084   1.475   3.366 -0.3560  0.6349 -0.5136
  139OSM    H2F15117   3.138   1.378   3.371 -0.1953  0.7782  1.5241
  139OSM    H2G15118   2.986   1.449   3.321 -2.0111  1.6575  2.2192
  139OSM    C3F15119   3.048   1.525   3.507  0.8114  0.3227 -0.0996
  139OSM    H3F15120   3.027   1.441   3.576  0.4272  1.3114  1.0259
  139OSM    H3G15121   2.957   1.589   3.508 -0.4804 -1.4383 -0.5554
  139OSM    C4F15122   3.159   1.606   3.586  0.0000 -0.7835 -0.6565
  139OSM    H4F15123   3.115   1.636   3.684 -0.5294  0.4209 -1.2481
  139OSM    H4G15124   3.193   1.695   3.530 -1.3090  0.9055  1.1013
  139OSM    C5F15125   3.280   1.527   3.624 -0.2063  0.0329  0.0234
  139OSM    H5F15126   3.304   1.480   3.526  0.7190  0.7818 -0.1193
  139OSM    H5G15127   3.255   1.445   3.695  2.0468  0.5573  1.5191
  139OSM    C6F15128   3.401   1.609   3.669 -0.3779  0.2197  0.1877
  139OSM    H6F15129   3.383   1.718   3.674  0.4222  0.3791 -0.2448
  139OSM    H6G15130   3.486   1.589   3.600 -1.9496 -0.5824 -1.6003
  139OSM    C7F15131   3.435   1.573   3.817 -0.4969  0.0780  0.1750
  139OSM    H7F15132   3.466   1.466   3.816  0.0191  0.2216  0.5819
  139OSM    H7G15133   3.338   1.591   3.868 -1.0457 -0.1328 -0.7612
  139OSM    C8F15134   3.548   1.667   3.862  0.0954  0.4336 -0.3704
  139OSM    H8F15135   3.508   1.770   3.853 -0.0208  0.3700 -0.6252
  139OSM    H8G15136   3.636   1.660   3.795 -0.8379  2.3529 -1.9200
  139OSM    C9F15137   3.587   1.628   4.001  0.2398 -0.0393 -0.5482
  139OSM    H9F15138   3.584   1.520   4.018  2.4375 -0.1465 -0.5699
  139OSM   C10F15139   3.625   1.717   4.099  0.7725  0.2135 -0.0704
  139OSM   H10F15140   3.635   1.672   4.199 -2.7338  1.0416  0.7881
  139OSM   C11F15141   3.639   1.867   4.100  0.0657  0.3822  0.2120
  139OSM   H11F15142   3.642   1.913   3.999  2.1086  0.0512  0.0626
  139OSM   H11G15143   3.734   1.886   4.156 -1.0467  2.0563  1.6613
  139OSM   C12F15144   3.527   1.939   4.190  0.0515 -0.2426 -0.0383
  139OSM   H12F15145   3.549   1.907   4.294  2.2374  1.8839  0.2509
  139OSM   H12G15146   3.429   1.907   4.150 -0.3648 -1.1287  1.5911
  139OSM   C13F15147   3.551   2.096   4.195  0.6883 -0.2948  0.3063
  139OSM   H13F15148   3.568   2.130   4.091 -3.4404  0.6612 -0.2470
  139OSM   H13G15149   3.645   2.128   4.244 -0.1365  1.4918  0.8006
  139OSM   C14F15150   3.443   2.168   4.275 -0.3810 -0.3938 -0.0640
  139OSM   H14F15151   3.408   2.127   4.372 -1.6242 -1.3454 -0.8924
  139OSM   H14G15152   3.347   2.176   4.220 -1.3210  0.6194  1.6547
  139OSM   C15F15153   3.477   2.316   4.322 -0.4651  0.3669  0.4024
  139OSM   H15F15154   3.377   2.364   4.333 -0.6523  0.4193 -1.2803
  139OSM   H15G15155   3.530   2.381   4.249 -3.0454  2.6381  0.3582
  139OSM   C16F15156   3.550   2.319   4.455  0.3979 -0.0108 -0.1619
  139OSM   H16F15157   3.644   2.259   4.452  1.6869  1.6776  2.4321
  139OSM   H16G15158   3.488   2.272   4.535  2.0108 -2.3484 -0.1557
  139OSM   C17F15159   3.587   2.463   4.493  0.0559  0.0874 -0.7960
  139OSM   H17F15160   3.490   2.513   4.513 -0.3129 -0.6107 -0.8342
  139OSM   H17G15161   3.641   2.520   4.414  1.3038 -1.4864 -1.1337
  139OSM   C18F15162   3.670   2.465   4.621  0.0911  0.2050  0.1805
  139OSM   H18F15163   3.632   2.386   4.688 -0.8535 -1.6379 -2.3626
  139OSM   H18G15164   3.694   2.561   4.672  2.0779 -0.9665  1.6151
  139OSM   H18H15165   3.773   2.427   4.605  1.0172  2.8073 -0.5471
  140OSM      N15166   0.116   6.791   2.490  0.3488  0.3878 -0.3701
  140OSM    C1515167   0.074   6.854   2.618  0.9321  0.8185 -0.4983
  140OSM   H15A15168   0.016   6.942   2.592 -0.1327 -0.4268 -2.6404
  140OSM   H15B15169   0.159   6.887   2.676  1.9694 -0.5496 -1.1909
  140OSM   H15C15170   0.021   6.788   2.685  0.0355  0.6257 -1.3750
  140OSM    C1415171  -0.005   6.745   2.415 -0.0900 -0.4819  0.5144
  140OSM   H14A15172   0.029   6.690   2.329  0.7049  0.3698  0.2701
  140OSM   H14B15173  -0.067   6.829   2.387 -0.5320 -0.4807  1.4486
  140OSM   H14C15174  -0.069   6.674   2.466 -1.2416 -1.0350 -1.5795
  140OSM    C1315175   0.193   6.902   2.406 -0.2098  0.6997 -0.5859
  140OSM   H13A15176   0.244   6.857   2.323 -1.5175 -0.6813 -0.6828
  140OSM   H13B15177   0.270   6.946   2.468  0.1670  0.7159 -1.0645
  140OSM   H13C15178   0.129   6.982   2.372 -0.2307  0.9905  0.1099
  140OSM    C1215179   0.205   6.672   2.508  0.4518  0.2249 -0.6153
  140OSM   H12A15180   0.240   6.634   2.413  1.3420  0.3894 -0.3583
  140OSM   H12B15181   0.146   6.597   2.559  1.9404 -0.7784 -0.3017
  140OSM    C1115182   0.329   6.682   2.608 -0.0214  0.3000  0.0988
  140OSM   H11A15183   0.292   6.678   2.713 -0.5675  1.8888 -0.0027
  140OSM   H11B15184   0.387   6.776   2.606 -2.8606  2.1424 -1.3165
  140OSM      P15185   0.554   6.547   2.623  0.4938 -0.0173  0.2418
  140OSM    O1315186   0.615   6.426   2.561  0.4390 -0.0003 -0.1788
  140OSM    O1415187   0.615   6.679   2.603  0.2353 -0.1163  0.2389
  140OSM    O1115188   0.545   6.509   2.777  0.0163  0.4975  0.0410
  140OSM    O1215189   0.401   6.558   2.571  0.0613 -0.2100  0.2428
  140OSM    C1S15190   0.436   6.433   2.832  0.0052  0.4166 -0.4888
  140OSM    H1S15191   0.429   6.337   2.777  0.1557  0.1740 -0.0856
  140OSM    H1T15192   0.335   6.475   2.816 -0.5024 -0.8603 -0.6960
  140OSM     NF15193   0.375   6.292   3.035 -0.4863 -0.5707  0.7604
  140OSM    HNF15194   0.302   6.315   3.098 -0.1792 -0.6128  1.1339
  140OSM    C2S15195   0.463   6.402   2.982  0.1727  0.4668  0.3172
  140OSM    H2S15196   0.567   6.366   2.994  0.0847 -0.2209 -0.8431
  140OSM    C3S15197   0.450   6.536   3.058  0.4824  0.6521 -0.2432
  140OSM    H3S15198   0.346   6.575   3.053  0.2095  0.1495  1.0821
  140OSM     O315199   0.521   6.649   3.003 -0.1985  0.1910 -0.6736
  140OSM    HO315200   0.534   6.614   2.915 -2.9758 -1.4303 -0.5559
  140OSM    C4S15201   0.486   6.513   3.208  0.0445 -0.1309 -0.1350
  140OSM    H4S15202   0.390   6.510   3.262 -1.3729  0.8112 -2.4615
  140OSM    C5S15203   0.606   6.511   3.267 -0.9890 -0.1713 -0.0337
  140OSM    H5S15204   0.691   6.525   3.198  0.0826 -1.9732  0.8512
  140OSM    C6S15205   0.632   6.502   3.415 -0.6043 -0.1748  0.5753
  140OSM    H6S15206   0.586   6.587   3.469  1.3578  1.9906 -0.9630
  140OSM    H6T15207   0.741   6.498   3.435 -0.2205 -0.9263 -1.4123
  140OSM    C7S15208   0.567   6.371   3.465 -0.4822  0.4018 -0.1298
  140OSM    H7S15209   0.604   6.277   3.419  0.6990  0.5925  0.4059
  140OSM    H7T15210   0.456   6.370   3.461 -0.5445 -0.8498  1.1523
  140OSM    C8S15211   0.605   6.340   3.611 -0.1989 -0.0065  0.1925
  140OSM    H8S15212   0.715   6.348   3.625 -0.2301  1.5378 -0.3203
  140OSM    H8T15213   0.580   6.232   3.618 -1.6862  0.3533  0.9068
  140OSM    C9S15214   0.541   6.429   3.730  0.0027 -0.0526  0.2030
  140OSM    H9S15215   0.432   6.435   3.712 -0.3772 -1.9308  1.5817
  140OSM    H9T15216   0.576   6.534   3.725  1.0978 -0.1862  3.0501
  140OSM   C10S15217   0.552   6.379   3.877  0.5318 -0.1920 -0.1809
  140OSM   H10S15218   0.647   6.419   3.917 -0.8497  0.6733  2.5164
  140OSM   H10T15219   0.554   6.268   3.872  2.2523 -0.2234  0.6431
  140OSM   C11S15220   0.434   6.430   3.974 -0.7225  0.4163 -0.5071
  140OSM   H11S15221   0.337   6.423   3.921 -1.0983 -1.0178  0.3330
  140OSM   H11T15222   0.459   6.537   3.994  0.9920 -0.0791  0.1801
  140OSM   C12S15223   0.418   6.378   4.117  0.0488 -0.4707 -0.8807
  140OSM   H12S15224   0.353   6.288   4.112 -0.0804 -0.2976 -3.6318
  140OSM   H12T15225   0.371   6.453   4.185  2.0209 -0.7039  0.8230
  140OSM   C13S15226   0.550   6.333   4.188  0.5789  0.1657  1.1344
  140OSM   H13S15227   0.599   6.248   4.135  0.6230 -1.1024  3.0837
  140OSM   H13T15228   0.519   6.293   4.287  1.0620  0.7580  1.5308
  140OSM   C14S15229   0.644   6.447   4.226 -0.1015 -0.1032 -0.3047
  140OSM   H14S15230   0.588   6.543   4.228 -1.0216 -0.6328  0.1016
  140OSM   H14T15231   0.733   6.449   4.161 -1.7113 -0.2513 -2.6141
  140OSM   C15S15232   0.696   6.419   4.365 -1.0170  0.5343 -0.1961
  140OSM   H15S15233   0.784   6.354   4.348  0.2359  1.5803  1.8207
  140OSM   H15T15234   0.618   6.367   4.425 -0.8771 -0.7634 -1.0994
  140OSM   C16S15235   0.743   6.544   4.443 -0.2368  0.3388 -0.6042
  140OSM   H16S15236   0.664   6.621   4.455  0.4516  0.9204  0.3879
  140OSM   H16T15237   0.824   6.603   4.395  0.2485  1.0104  0.9672
  140OSM   C17S15238   0.794   6.501   4.582 -0.0234  0.1583  0.8308
  140OSM   H17S15239   0.830   6.396   4.585 -0.2886 -0.0159 -1.2796
  140OSM   H17T15240   0.704   6.512   4.646 -0.1530 -0.5483  0.7769
  140OSM   C18S15241   0.905   6.593   4.641 -0.3914 -0.2060 -0.1029
  140OSM   H18S15242   0.920   6.561   4.746 -0.5098 -1.1303 -0.3620
  140OSM   H18T15243   0.871   6.698   4.653  1.6147  0.3091  1.7280
  140OSM   H18U15244   0.999   6.591   4.582  0.5891  1.5437  1.2942
  140OSM    C1F15245   0.391   6.162   2.996 -0.0924 -0.4018 -0.1943
  140OSM     OF15246   0.469   6.128   2.910 -0.3785 -0.7688  0.8048
  140OSM    C2F15247   0.298   6.057   3.067 -0.0546  0.4186 -0.1832
  140OSM    H2F15248   0.229   6.004   2.997 -0.8161  2.8356 -1.3728
  140OSM    H2G15249   0.235   6.113   3.140  0.8470 -1.0356  1.8106
  140OSM    C3F15250   0.392   5.965   3.131  0.6533 -0.2327 -0.1330
  140OSM    H3F15251   0.461   6.024   3.194 -0.6145 -2.3214  3.5304
  140OSM    H3G15252   0.446   5.912   3.049  0.2424  0.9793 -1.2102
  140OSM    C4F15253   0.324   5.860   3.220 -0.3531 -0.2853  0.2757
  140OSM    H4F15254   0.400   5.799   3.273  1.5920  2.2181  0.5191
  140OSM    H4G15255   0.254   5.788   3.172 -1.3822 -0.4511  1.9657
  140OSM    C5F15256   0.249   5.924   3.338  0.3698  0.0137  0.3595
  140OSM    H5F15257   0.198   5.842   3.392  1.2721 -0.6412  0.2536
  140OSM    H5G15258   0.173   5.992   3.295 -0.1575 -2.1021 -2.3141
  140OSM    C6F15259   0.343   5.998   3.431 -0.3054  0.5027 -0.1768
  140OSM    H6F15260   0.341   6.107   3.408  0.2103  0.1066 -2.2612
  140OSM    H6G15261   0.447   5.960   3.420 -0.8815 -1.0235 -0.5921
  140OSM    C7F15262   0.284   5.980   3.570 -0.0056 -0.0444  0.5185
  140OSM    H7F15263   0.297   5.872   3.595  1.3193  0.4690  2.2428
  140OSM    H7G15264   0.178   6.014   3.573  0.3877  1.2614  3.6277
  140OSM    C8F15265   0.372   6.043   3.680 -0.2713 -0.7408  0.3104
  140OSM    H8F15266   0.361   6.152   3.662 -1.2516 -0.8177  0.3753
  140OSM    H8G15267   0.479   6.016   3.667  0.1906  1.9827 -2.9234
  140OSM    C9F15268   0.317   6.003   3.810  0.4770 -0.1185 -0.2091
  140OSM    H9F15269   0.220   6.046   3.838  1.1291  0.4300  1.3006
  140OSM   C10F15270   0.380   5.926   3.910 -0.5980  0.1185 -0.0804
  140OSM   H10F15271   0.338   5.898   4.007  0.7743 -1.7860  0.0375
  140OSM   C11F15272   0.516   5.854   3.895  0.3079  0.1576  0.5398
  140OSM   H11F15273   0.537   5.836   3.787 -2.2970  0.2059 -0.0583
  140OSM   H11G15274   0.507   5.750   3.933  0.8803  0.7370  2.3272
  140OSM   C12F15275   0.628   5.913   3.973 -0.1182 -0.7273 -0.0572
  140OSM   H12F15276   0.648   6.016   3.935 -2.0351  0.8098  2.7341
  140OSM   H12G15277   0.716   5.849   3.952  0.6155  0.0233  0.6316
  140OSM   C13F15278   0.606   5.926   4.126  0.4975  0.2609  0.0902
  140OSM   H13F15279   0.561   5.830   4.158  3.3861 -0.4229  2.5384
  140OSM   H13G15280   0.524   6.002   4.124  1.2089  1.1043  1.4585
  140OSM   C14F15281   0.723   5.976   4.211 -0.1646 -0.2709 -0.2551
  140OSM   H14F15282   0.760   6.068   4.161 -0.0688  1.1391  2.2357
  140OSM   H14G15283   0.802   5.899   4.206 -2.7766 -3.2173  0.7342
  140OSM   C15F15284   0.703   6.008   4.358 -0.0573 -0.6003 -0.1253
  140OSM   H15F15285   0.624   6.087   4.358 -1.2127 -1.7167 -0.0330
  140OSM   H15G15286   0.794   6.044   4.411 -0.7981  0.1221  0.7010
  140OSM   C16F15287   0.645   5.893   4.442  0.3019  0.8671 -0.1463
  140OSM   H16F15288   0.550   5.854   4.400  1.0043  0.1106 -1.0772
  140OSM   H16G15289   0.611   5.947   4.533 -1.2686  0.0234 -0.2011
  140OSM   C17F15290   0.745   5.786   4.490  0.0707 -1.2040 -0.0446
  140OSM   H17F15291   0.835   5.837   4.532 -0.3419 -1.5432  1.3055
  140OSM   H17G15292   0.783   5.723   4.407 -1.2573 -1.5005 -0.4422
  140OSM   C18F15293   0.694   5.686   4.607 -0.5698 -0.4544 -0.2961
  140OSM   H18F15294   0.601   5.636   4.572 -0.9382  1.1753 -1.7943
  140OSM   H18G15295   0.660   5.740   4.698 -0.8267 -0.8650 -0.1429
  140OSM   H18H15296   0.780   5.618   4.623 -1.0639 -0.8754  0.7290
  141OSM      N15297   3.261   3.568   2.494  0.2628 -0.1779  0.0786
  141OSM    C1515298   3.229   3.437   2.432 -0.0214  0.2093  0.0044
  141OSM   H15A15299   3.146   3.385   2.477  0.9716 -1.7170 -0.3129
  141OSM   H15B15300   3.313   3.370   2.428 -0.5179 -0.3720 -2.7515
  141OSM   H15C15301   3.202   3.440   2.327 -0.5540 -3.3666 -0.0822
  141OSM    C1415302   3.383   3.612   2.427 -0.5047  0.6575 -0.5728
  141OSM   H14A15303   3.374   3.619   2.320  0.7229 -0.4903 -0.7834
  141OSM   H14B15304   3.465   3.543   2.442 -0.9440  0.7608  3.5236
  141OSM   H14C15305   3.421   3.697   2.481 -1.1711  0.5649  0.0703
  141OSM    C1315306   3.158   3.674   2.471 -0.3042  0.7258 -0.0688
  141OSM   H13A15307   3.093   3.698   2.554  0.6679  0.4649  0.7972
  141OSM   H13B15308   3.097   3.633   2.392  0.4361  0.5634 -0.5659
  141OSM   H13C15309   3.200   3.770   2.444 -2.0573  1.8405  0.9600
  141OSM    C1215310   3.282   3.553   2.647  0.5171  0.1572 -0.8056
  141OSM   H12A15311   3.202   3.496   2.690 -0.6438  0.9392 -1.8456
  141OSM   H12B15312   3.261   3.644   2.701 -0.7202 -0.7052  0.2093
  141OSM    C1115313   3.413   3.484   2.696  1.2013 -0.3469  0.2528
  141OSM   H11A15314   3.422   3.385   2.647  0.9521  0.0044 -0.5182
  141OSM   H11B15315   3.407   3.471   2.806  2.0621  1.2576  0.5322
  141OSM      P15316   3.557   3.703   2.744 -0.3592 -0.1107  0.0314
  141OSM    O1315317   3.691   3.757   2.709  0.1272  0.1829  0.2156
  141OSM    O1415318   3.444   3.798   2.723 -0.6306  0.2808 -0.6527
  141OSM    O1115319   3.559   3.648   2.893 -0.7177 -0.5907 -0.1310
  141OSM    O1215320   3.525   3.570   2.665 -0.6084  0.1887 -0.1648
  141OSM    C1S15321   3.677   3.567   2.922 -0.2167  0.7666  0.8957
  141OSM    H1S15322   3.769   3.629   2.922 -1.3353  2.5091  2.4534
  141OSM    H1T15323   3.694   3.489   2.845 -1.4370  0.4171  0.9686
  141OSM     NF15324   3.801   3.407   3.072  0.2254  0.4099 -0.1168
  141OSM    HNF15325   3.779   3.311   3.085  1.4223  0.2071  0.4911
  141OSM    C2S15326   3.684   3.499   3.058 -0.4195  0.4615  0.4504
  141OSM    H2S15327   3.695   3.575   3.138 -1.1052  2.7660 -1.5142
  141OSM    C3S15328   3.558   3.421   3.092  0.3883 -0.0557  0.3909
  141OSM    H3S15329   3.558   3.328   3.032  1.4181  0.9414 -1.2419
  141OSM     O315330   3.438   3.486   3.055 -0.6336  0.0723  0.1216
  141OSM    HO315331   3.469   3.554   2.995 -2.2411 -1.1040 -2.2034
  141OSM    C4S15332   3.552   3.390   3.241 -0.3039  0.3235  0.1786
  141OSM    H4S15333   3.511   3.470   3.304 -0.0195 -0.0694  0.8754
  141OSM    C5S15334   3.587   3.275   3.301  0.0355  0.3966 -0.3642
  141OSM    H5S15335   3.616   3.190   3.237  1.5353 -0.3178  1.1900
  141OSM    C6S15336   3.586   3.249   3.449 -0.2892  0.7025 -0.2433
  141OSM    H6S15337   3.689   3.213   3.465  0.1144  0.5471 -2.7208
  141OSM    H6T15338   3.528   3.156   3.470  2.7355 -1.4938 -0.9593
  141OSM    C7S15339   3.550   3.360   3.549 -0.4045 -0.0413 -0.1414
  141OSM    H7S15340   3.441   3.379   3.537  0.1524  2.5868 -1.7235
  141OSM    H7T15341   3.602   3.455   3.526  0.0267 -0.6310 -1.8040
  141OSM    C8S15342   3.589   3.326   3.691  0.2780  0.2113  0.1479
  141OSM    H8S15343   3.573   3.416   3.755 -0.5275  0.7195 -0.7536
  141OSM    H8T15344   3.694   3.290   3.705  0.3761  0.5383  0.2618
  141OSM    C9S15345   3.490   3.229   3.763 -0.6316 -0.6619  0.1903
  141OSM    H9S15346   3.485   3.134   3.705 -0.0654 -1.3904  1.2918
  141OSM    H9T15347   3.390   3.276   3.756 -0.0476  0.4577 -1.1349
  141OSM   C10S15348   3.525   3.182   3.903  0.0362 -0.0572  0.1156
  141OSM   H10S15349   3.609   3.110   3.891 -0.0143  0.1707 -2.1224
  141OSM   H10T15350   3.432   3.126   3.929 -0.4009  0.6028  0.0031
  141OSM   C11S15351   3.546   3.289   4.008 -0.0188  0.0381 -0.4414
  141OSM   H11S15352   3.456   3.352   4.025 -0.5895 -0.8869  0.0425
  141OSM   H11T15353   3.618   3.365   3.970 -0.1949 -0.3416 -1.5810
  141OSM   C12S15354   3.589   3.236   4.147  0.8781  0.5814  0.2111
  141OSM   H12S15355   3.661   3.152   4.141 -0.4296 -0.5214 -0.5011
  141OSM   H12T15356   3.492   3.193   4.179  0.3077  0.8070 -1.1577
  141OSM   C13S15357   3.645   3.344   4.239 -0.1718  0.4544 -0.2143
  141OSM   H13S15358   3.599   3.444   4.227 -0.7799  0.4626  1.8503
  141OSM   H13T15359   3.754   3.353   4.220 -0.0543  0.0575  0.2431
  141OSM   C14S15360   3.625   3.294   4.379 -0.3861 -0.0406 -0.0777
  141OSM   H14S15361   3.674   3.199   4.412  2.3607  1.1154 -0.4997
  141OSM   H14T15362   3.516   3.292   4.400 -0.2614 -0.6729  0.5888
  141OSM   C15S15363   3.671   3.401   4.479 -0.2605  0.1534  0.5577
  141OSM   H15S15364   3.624   3.498   4.452  0.4385  0.2843 -0.2230
  141OSM   H15T15365   3.781   3.402   4.470 -0.1387  1.2515  1.8255
  141OSM   C16S15366   3.643   3.352   4.630 -0.0680  0.4592 -0.0880
  141OSM   H16S15367   3.697   3.256   4.641 -0.7764  0.0513 -0.1238
  141OSM   H16T15368   3.535   3.331   4.647  0.2449 -1.4353 -0.2748
  141OSM   C17S15369   3.691   3.457   4.740  0.3636  0.3023  0.8973
  141OSM   H17S15370   3.638   3.553   4.721 -1.2990 -0.8751 -0.8281
  141OSM   H17T15371   3.795   3.486   4.717  0.3148  0.5255  0.9604
  141OSM   C18S15372   3.680   3.395   4.875 -0.7511 -0.2951 -0.6804
  141OSM   H18S15373   3.724   3.293   4.864  2.4089  0.8176  0.5246
  141OSM   H18T15374   3.580   3.374   4.918 -1.2711 -1.5854 -2.4031
  141OSM   H18U15375   3.743   3.450   4.948 -0.0942 -2.0436  0.1420
  141OSM    C1F15376   3.920   3.442   3.101 -0.3233 -0.4020  1.5250
  141OSM     OF15377   3.942   3.557   3.100  0.2630 -0.1492  0.7666
  141OSM    C2F15378   4.027   3.348   3.138 -1.2467 -0.2866 -0.3019
  141OSM    H2F15379   4.087   3.322   3.048  1.2003  2.3395  0.4051
  141OSM    H2G15380   3.980   3.257   3.180 -2.8142 -0.5308 -2.4366
  141OSM    C3F15381   4.134   3.405   3.243  0.1742 -0.1034  0.0559
  141OSM    H3F15382   4.202   3.488   3.211  0.3030 -1.0814 -2.4634
  141OSM    H3G15383   4.206   3.321   3.255 -0.2063 -0.7267 -1.7004
  141OSM    C4F15384   4.091   3.455   3.382 -0.5093 -0.0448  0.7788
  141OSM    H4F15385   4.002   3.521   3.370  0.3691  0.9514 -0.5136
  141OSM    H4G15386   4.167   3.497   3.452 -0.5036 -2.4224  2.3153
  141OSM    C5F15387   4.028   3.348   3.470  0.0312 -0.5419 -0.2033
  141OSM    H5F15388   4.103   3.267   3.482 -0.3274 -1.0566 -1.2862
  141OSM    H5G15389   3.942   3.298   3.418  0.1207 -1.1196  0.1921
  141OSM    C6F15390   3.987   3.388   3.615 -0.3678  0.3097 -0.0287
  141OSM    H6F15391   3.947   3.296   3.661  0.3344 -0.5371 -1.0792
  141OSM    H6G15392   3.900   3.457   3.608  0.6068  1.4307 -2.7085
  141OSM    C7F15393   4.099   3.456   3.692 -0.1455  0.4295  0.3621
  141OSM    H7F15394   4.135   3.548   3.642  2.3861 -0.6229  0.1354
  141OSM    H7G15395   4.181   3.385   3.718 -0.3283 -0.3095 -0.9562
  141OSM    C8F15396   4.049   3.515   3.824 -0.0522  0.0548  0.1296
  141OSM    H8F15397   3.971   3.592   3.809 -0.6559 -0.5215  0.2778
  141OSM    H8G15398   4.136   3.563   3.875  0.1562 -1.4319  1.2284
  141OSM    C9F15399   3.978   3.423   3.918  0.6091  0.6272 -0.2131
  141OSM    H9F15400   3.883   3.379   3.885  1.3726 -1.5763  0.3871
  141OSM   C10F15401   4.016   3.388   4.044 -0.1306 -0.0863 -0.1017
  141OSM   H10F15402   3.953   3.315   4.097 -3.7663  0.5294 -3.0763
  141OSM   C11F15403   4.135   3.439   4.121 -0.4611  0.2899 -0.1823
  141OSM   H11F15404   4.204   3.496   4.056  1.0292 -0.8112  0.3786
  141OSM   H11G15405   4.200   3.352   4.145 -0.4835 -0.2226 -1.8778
  141OSM   C12F15406   4.104   3.530   4.243 -0.0095  1.0945 -0.0472
  141OSM   H12F15407   4.052   3.472   4.322 -0.6511  0.3238 -1.0111
  141OSM   H12G15408   4.030   3.612   4.232 -1.0907  0.4464  1.8101
  141OSM   C13F15409   4.232   3.575   4.307  0.0182  0.2753 -0.0745
  141OSM   H13F15410   4.286   3.650   4.246  1.0022 -0.0340  0.3893
  141OSM   H13G15411   4.294   3.482   4.310 -0.9173 -0.3699 -0.2948
  141OSM   C14F15412   4.217   3.619   4.451  0.3137  0.2917 -0.5858
  141OSM   H14F15413   4.144   3.558   4.509  0.4530  0.1916 -0.5138
  141OSM   H14G15414   4.169   3.719   4.454 -0.7425 -0.1999 -0.6685
  141OSM   C15F15415   4.353   3.615   4.521 -0.1509 -0.0748  0.0985
  141OSM   H15F15416   4.427   3.663   4.454  0.7570  0.2761  1.3359
  141OSM   H15G15417   4.379   3.507   4.527 -0.4248 -0.0576  2.0100
  141OSM   C16F15418   4.362   3.676   4.667 -0.3311  0.0859  0.2091
  141OSM   H16F15419   4.295   3.628   4.741 -0.8381 -1.3720 -1.1115
  141OSM   H16G15420   4.349   3.785   4.653  2.2015  0.3832 -0.4203
  141OSM   C17F15421   4.506   3.647   4.720  0.5605 -0.4677  0.2698
  141OSM   H17F15422   4.583   3.676   4.646  0.6329 -1.6744 -0.1519
  141OSM   H17G15423   4.530   3.540   4.738 -0.0605 -0.4850  1.0361
  141OSM   C18F15424   4.526   3.717   4.856  0.7574 -0.0910 -0.8531
  141OSM   H18F15425   4.486   3.821   4.857  0.4614 -0.1294  2.3671
  141OSM   H18G15426   4.635   3.729   4.868  0.5836  2.2520 -1.1657
  141OSM   H18H15427   4.483   3.657   4.939  0.9200  0.9209 -0.0171
  142OSM      N15428   4.865   5.711   3.040 -0.8182  0.4346 -0.4259
  142OSM    C1515429   4.845   5.602   3.146  0.1397  0.2270 -0.1046
  142OSM   H15A15430   4.874   5.627   3.247 -0.0434  0.7957 -0.1869
  142OSM   H15B15431   4.892   5.508   3.122 -0.8947  0.1209 -1.9573
  142OSM   H15C15432   4.740   5.581   3.164  0.1865  0.8087  0.8830
  142OSM    C1415433   5.019   5.729   3.019  0.5512 -0.6688 -0.3025
  142OSM   H14A15434   5.050   5.632   2.985 -2.8471 -2.0100  0.0477
  142OSM   H14B15435   5.082   5.769   3.097 -0.0816  3.0452 -1.4811
  142OSM   H14C15436   5.042   5.795   2.936  1.9754 -1.4799 -0.5820
  142OSM    C1315437   4.814   5.676   2.908 -0.2303 -0.6306  0.2277
  142OSM   H13A15438   4.706   5.682   2.907 -0.3352 -2.1047 -0.9891
  142OSM   H13B15439   4.836   5.575   2.880 -2.2315 -0.4519 -2.4563
  142OSM   H13C15440   4.859   5.741   2.834 -2.7666  1.8584  0.6703
  142OSM    C1215441   4.802   5.837   3.078  0.3170  0.0724  0.3954
  142OSM   H12A15442   4.824   5.908   2.999 -1.9904 -0.5660 -0.9182
  142OSM   H12B15443   4.849   5.879   3.166  0.6768  0.5482 -0.0147
  142OSM    C1115444   4.646   5.842   3.106 -0.3550 -0.4601  0.2913
  142OSM   H11A15445   4.625   5.945   3.140  0.9394 -0.3006  0.6631
  142OSM   H11B15446   4.621   5.769   3.187 -0.4517 -1.4025 -0.5605
  142OSM      P15447   4.411   5.817   2.996 -0.0443  0.7384  0.3660
  142OSM    O1315448   4.352   5.921   2.914 -0.5795 -0.2063  0.7603
  142OSM    O1415449   4.359   5.677   2.974 -0.3354 -0.4604  0.0621
  142OSM    O1115450   4.380   5.850   3.150  0.2735  0.7322 -0.8482
  142OSM    O1215451   4.570   5.820   2.987  0.2983  0.3838  0.2496
  142OSM    C1S15452   4.243   5.865   3.192  0.0590 -0.5624  0.4310
  142OSM    H1S15453   4.174   5.792   3.146 -1.4982  0.3887  1.1315
  142OSM    H1T15454   4.198   5.961   3.158 -0.8024 -0.5570  1.5110
  142OSM     NF15455   4.071   5.840   3.372  0.4756  0.2172  0.4009
  142OSM    HNF15456   4.017   5.919   3.400  1.0914  1.0778 -0.7399
  142OSM    C2S15457   4.210   5.859   3.344  0.0372 -0.2647  0.0539
  142OSM    H2S15458   4.261   5.768   3.382 -0.3878  0.0093  1.3261
  142OSM    C3S15459   4.275   5.983   3.416 -0.1222 -0.2301  0.4890
  142OSM    H3S15460   4.219   6.078   3.406  1.2391  0.5225 -0.2738
  142OSM     O315461   4.398   6.018   3.362 -0.4430 -0.8238  0.4861
  142OSM    HO315462   4.397   5.978   3.275  3.0585  0.6071 -0.3928
  142OSM    C4S15463   4.277   5.968   3.567 -0.9244 -0.0026 -0.1353
  142OSM    H4S15464   4.191   6.003   3.626  0.2056  0.0783  1.5235
  142OSM    C5S15465   4.381   5.911   3.633  0.8700 -0.1237  0.5559
  142OSM    H5S15466   4.462   5.858   3.580  1.0932  0.5241  0.2419
  142OSM    C6S15467   4.384   5.875   3.778  0.0469  0.4194  0.5192
  142OSM    H6S15468   4.441   5.957   3.826 -1.0013  0.8796  1.0180
  142OSM    H6T15469   4.438   5.781   3.800  0.8899  0.7199 -0.2267
  142OSM    C7S15470   4.253   5.867   3.856 -0.2460  0.1717  0.0570
  142OSM    H7S15471   4.213   5.765   3.837 -0.8476  0.2138  1.0510
  142OSM    H7T15472   4.180   5.949   3.841 -2.0768 -1.3418  0.2674
  142OSM    C8S15473   4.275   5.862   4.008  1.2949 -0.1093  0.3768
  142OSM    H8S15474   4.333   5.950   4.044  0.7217  1.5190 -2.4056
  142OSM    H8T15475   4.336   5.773   4.032  1.0865 -0.0839  1.0218
  142OSM    C9S15476   4.147   5.865   4.092  0.3211 -0.4395 -0.3794
  142OSM    H9S15477   4.069   5.797   4.052  2.3528 -1.3123 -3.1649
  142OSM    H9T15478   4.097   5.965   4.082 -0.9050 -0.7969  1.5550
  142OSM   C10S15479   4.166   5.827   4.242 -0.0643 -0.4599 -0.3265
  142OSM   H10S15480   4.250   5.890   4.278 -1.7516  0.9441  1.3818
  142OSM   H10T15481   4.197   5.720   4.243 -0.9285 -0.7550 -1.8637
  142OSM   C11S15482   4.038   5.850   4.324  0.1788 -0.3746 -0.5506
  142OSM   H11S15483   3.957   5.776   4.312  1.4955 -2.3237  1.6930
  142OSM   H11T15484   3.985   5.942   4.292 -1.4451 -1.0730  0.0481
  142OSM   C12S15485   4.082   5.883   4.474  0.1134  0.1537  0.2577
  142OSM   H12S15486   4.152   5.969   4.478  1.2380 -0.7614  0.5280
  142OSM   H12T15487   4.133   5.791   4.509  0.4172 -0.5230 -1.8144
  142OSM   C13S15488   3.969   5.889   4.574  0.3620  0.8872 -0.5770
  142OSM   H13S15489   3.901   5.803   4.555 -0.7667  1.0297  2.4139
  142OSM   H13T15490   3.911   5.980   4.548 -3.0354 -1.7012 -2.9349
  142OSM   C14S15491   4.029   5.885   4.725  0.0458 -0.7107 -0.1669
  142OSM   H14S15492   4.104   5.964   4.745 -1.4309  0.2587  1.9689
  142OSM   H14T15493   4.081   5.788   4.735 -0.8369 -1.0717  1.0913
  142OSM   C15S15494   3.919   5.903   4.822 -0.6619  0.8901 -0.3161
  142OSM   H15S15495   3.847   5.822   4.797  0.3718 -0.4532  0.8695
  142OSM   H15T15496   3.873   6.003   4.808 -0.2671  0.9410 -1.4044
  142OSM   C16S15497   3.956   5.894   4.980  0.4574  0.0442 -0.4775
  142OSM   H16S15498   4.001   5.993   4.999  0.0296  0.4073 -1.2940
  142OSM   H16T15499   4.023   5.808   5.001  0.5626  0.2061 -0.1362
  142OSM   C17S15500   3.830   5.869   5.070 -0.1275 -0.3414  0.4525
  142OSM   H17S15501   3.770   5.960   5.050 -1.3388 -1.5082 -1.4481
  142OSM   H17T15502   3.873   5.861   5.172  0.7927 -0.9908  0.0318
  142OSM   C18S15503   3.742   5.743   5.040  0.6802 -0.9489  0.1177
  142OSM   H18S15504   3.661   5.734   5.115  0.5768  0.2736  0.1776
  142OSM   H18T15505   3.791   5.644   5.036 -1.2015 -1.9366  0.5825
  142OSM   H18U15506   3.683   5.759   4.946  0.3302 -0.4362  0.4164
  142OSM    C1F15507   3.999   5.731   3.333  0.2658  0.0277 -0.4465
  142OSM     OF15508   4.056   5.638   3.276 -0.0905 -0.4691 -0.2010
  142OSM    C2F15509   3.853   5.725   3.366  0.9622 -0.1402 -0.6189
  142OSM    H2F15510   3.797   5.672   3.286 -0.6195  0.5766 -0.0380
  142OSM    H2G15511   3.826   5.833   3.365  3.1643  0.4447 -1.8768
  142OSM    C3F15512   3.820   5.645   3.503 -0.0758  0.0994  0.1209
  142OSM    H3F15513   3.898   5.673   3.577  0.4049  0.3933 -0.4909
  142OSM    H3G15514   3.828   5.536   3.483  0.6434  0.1468  0.1165
  142OSM    C4F15515   3.688   5.685   3.571  0.0046  0.2192  0.5139
  142OSM    H4F15516   3.633   5.725   3.483 -0.2516  1.2138  1.0978
  142OSM    H4G15517   3.695   5.766   3.647 -2.5389  0.4969  0.5423
  142OSM    C5F15518   3.613   5.565   3.635 -0.0645  0.6062  0.2909
  142OSM    H5F15519   3.604   5.475   3.570  0.7533  0.8529 -0.1731
  142OSM    H5G15520   3.512   5.610   3.652 -0.1861  0.0613  1.0667
  142OSM    C6F15521   3.669   5.514   3.770 -0.3026 -0.0864  0.0910
  142OSM    H6F15522   3.780   5.505   3.773  0.1896  4.0700  0.4351
  142OSM    H6G15523   3.624   5.416   3.795  0.5844  0.0233  2.4328
  142OSM    C7F15524   3.635   5.601   3.897  0.0807  0.1661  0.7544
  142OSM    H7F15525   3.525   5.620   3.896  0.3408  1.9863 -1.6503
  142OSM    H7G15526   3.667   5.705   3.878  1.3844 -0.1401  1.2070
  142OSM    C8F15527   3.675   5.540   4.032 -0.7793  0.2988  0.1292
  142OSM    H8F15528   3.782   5.517   4.012 -0.1764  2.5875  0.4853
  142OSM    H8G15529   3.625   5.443   4.054  1.6454 -1.1450 -0.2332
  142OSM    C9F15530   3.652   5.637   4.144  0.8007 -0.8306  0.1999
  142OSM    H9F15531   3.694   5.736   4.122 -1.4168  0.2868  0.7524
  142OSM   C10F15532   3.585   5.621   4.258  0.4490 -0.2370  0.0950
  142OSM   H10F15533   3.577   5.709   4.323  2.4014  0.1031 -0.0559
  142OSM   C11F15534   3.541   5.487   4.313  0.4811  0.3590  0.6105
  142OSM   H11F15535   3.531   5.405   4.238  0.9434  0.8560 -0.0049
  142OSM   H11G15536   3.437   5.495   4.350  0.4323 -1.8563  1.0923
  142OSM   C12F15537   3.652   5.442   4.407  0.3585 -0.3728 -0.2202
  142OSM   H12F15538   3.744   5.443   4.345 -0.3506  0.2397 -1.2842
  142OSM   H12G15539   3.625   5.338   4.435 -0.3542  0.2443  1.5521
  142OSM   C13F15540   3.665   5.519   4.544 -0.8517  0.4146 -0.0320
  142OSM   H13F15541   3.663   5.627   4.521 -0.7466  0.1148 -1.5961
  142OSM   H13G15542   3.752   5.487   4.604  1.0145  1.7521 -1.9028
  142OSM   C14F15543   3.544   5.494   4.630  0.8284 -0.1090 -0.2091
  142OSM   H14F15544   3.534   5.383   4.628 -1.2806  0.0553 -2.2528
  142OSM   H14G15545   3.446   5.534   4.596  0.5291  0.2128  0.9630
  142OSM   C15F15546   3.565   5.538   4.776  0.2743  0.7687  0.4052
  142OSM   H15F15547   3.586   5.646   4.761 -0.0470  0.9564  1.2506
  142OSM   H15G15548   3.647   5.488   4.831 -0.6289  0.2231  1.2880
  142OSM   C16F15549   3.429   5.523   4.854 -0.0813  0.1524  0.5320
  142OSM   H16F15550   3.400   5.416   4.852 -0.1683  0.1695 -1.3300
  142OSM   H16G15551   3.354   5.570   4.786 -0.1758 -0.2893  0.3290
  142OSM   C17F15552   3.431   5.589   4.984  0.8916 -0.4916  0.2442
  142OSM   H17F15553   3.441   5.699   4.970 -1.8890 -0.2585 -0.6621
  142OSM   H17G15554   3.514   5.548   5.045 -0.2816 -4.5135 -0.6086
  142OSM   C18F15555   3.287   5.560   5.054  0.3442  0.1572 -0.3597
  142OSM   H18F15556   3.270   5.452   5.075 -0.6259  0.9374  3.6207
  142OSM   H18G15557   3.207   5.598   4.987 -0.0109  2.2153  1.1394
  142OSM   H18H15558   3.279   5.626   5.142  0.0356 -0.2874 -0.0512
  143OSM      N15559   3.512   5.162   2.807  0.1800  0.2921  0.3668
  143OSM    C1515560   3.612   5.059   2.833  0.1361 -0.2895 -0.0568
  143OSM   H15A15561   3.623   4.992   2.749  1.3752 -1.2835  0.8648
  143OSM   H15B15562   3.578   5.007   2.921  1.2183  0.5375  0.8677
  143OSM   H15C15563   3.708   5.095   2.864 -0.6337  0.9122  1.0231
  143OSM    C1415564   3.519   5.264   2.909 -0.3788  0.5492 -0.3477
  143OSM   H14A15565   3.439   5.336   2.900 -0.1293  0.7249 -1.2449
  143OSM   H14B15566   3.612   5.318   2.921 -0.5391  0.9857 -0.9916
  143OSM   H14C15567   3.515   5.204   2.999 -0.0569  0.2930 -0.5033
  143OSM    C1315568   3.558   5.221   2.680 -0.1909 -0.3833  0.4345
  143OSM   H13A15569   3.572   5.154   2.596 -0.5266  1.2292 -0.9694
  143OSM   H13B15570   3.654   5.270   2.688 -0.6501  0.6788 -0.2296
  143OSM   H13C15571   3.482   5.294   2.653  0.2942 -0.4649 -1.3228
  143OSM    C1215572   3.367   5.097   2.793  0.4990 -0.1309 -0.5431
  143OSM   H12A15573   3.360   5.043   2.700 -3.6723  0.6046 -0.8530
  143OSM   H12B15574   3.298   5.181   2.796  1.5033  0.7028  1.7781
  143OSM    C1115575   3.324   5.011   2.915 -0.1339  1.0392 -0.1922
  143OSM   H11A15576   3.217   4.984   2.918  0.4421 -1.6468 -0.6596
  143OSM   H11B15577   3.335   5.072   3.007 -1.5580  1.7575 -0.4815
  143OSM      P15578   3.410   4.778   2.829  0.0594  0.3467 -0.0382
  143OSM    O1315579   3.334   4.803   2.704 -0.6165  0.0067 -0.0203
  143OSM    O1415580   3.541   4.714   2.809 -0.1698 -0.3213 -0.1594
  143OSM    O1115581   3.322   4.665   2.906  0.2436 -0.0807  0.3571
  143OSM    O1215582   3.416   4.896   2.934  0.0951 -0.0855 -0.3809
  143OSM    C1S15583   3.340   4.629   3.044 -0.2257 -0.2344  0.6883
  143OSM    H1S15584   3.443   4.648   3.079 -0.4460  0.8530  0.7677
  143OSM    H1T15585   3.328   4.519   3.054 -1.9059  0.1163  4.1245
  143OSM     NF15586   3.263   4.665   3.272  0.1338 -0.1708 -0.5760
  143OSM    HNF15587   3.210   4.594   3.317  0.0750 -1.6319 -2.7770
  143OSM    C2S15588   3.232   4.696   3.128  0.7710  0.1592 -0.7118
  143OSM    H2S15589   3.241   4.805   3.107 -0.1902  1.3953  4.0025
  143OSM    C3S15590   3.096   4.648   3.086  0.1259  0.7143 -0.4154
  143OSM    H3S15591   3.092   4.540   3.109  3.2656  0.2601 -1.4373
  143OSM     O315592   3.071   4.660   2.940 -0.6936  0.2265 -0.5145
  143OSM    HO315593   3.157   4.674   2.901 -0.6054 -0.4800 -0.5831
  143OSM    C4S15594   2.984   4.707   3.178 -0.2641 -0.0123 -0.0765
  143OSM    H4S15595   2.981   4.661   3.278  3.3132  3.4047  1.9071
  143OSM    C5S15596   2.923   4.820   3.160  0.1182  0.4370 -0.0370
  143OSM    H5S15597   2.925   4.871   3.063  0.6431 -2.0719 -1.4346
  143OSM    C6S15598   2.828   4.879   3.263 -0.5360  0.1518  0.3426
  143OSM    H6S15599   2.722   4.851   3.245 -0.7311  1.8787 -1.6090
  143OSM    H6T15600   2.823   4.990   3.251 -1.1758  0.3141  1.8871
  143OSM    C7S15601   2.873   4.846   3.408 -0.2748 -0.0921 -0.3962
  143OSM    H7S15602   2.980   4.872   3.423 -0.1655 -0.8834  0.2644
  143OSM    H7T15603   2.856   4.740   3.436 -0.2032  0.2091  0.8379
  143OSM    C8S15604   2.795   4.929   3.516  0.3530 -0.4332 -0.3208
  143OSM    H8S15605   2.686   4.910   3.509  0.5397 -2.0502  0.6653
  143OSM    H8T15606   2.815   5.036   3.495  0.4790 -0.3428  0.2380
  143OSM    C9S15607   2.846   4.885   3.654 -0.2033 -0.1495  0.0457
  143OSM    H9S15608   2.956   4.900   3.653 -0.0194 -1.2916  0.8879
  143OSM    H9T15609   2.809   4.780   3.652 -2.5014  0.6139 -1.1771
  143OSM   C10S15610   2.781   4.950   3.773 -0.0274  0.1782 -0.3127
  143OSM   H10S15611   2.671   4.936   3.766 -0.2782  1.1972  1.2195
  143OSM   H10T15612   2.805   5.058   3.774  0.0221  0.1676  0.4643
  143OSM   C11S15613   2.822   4.871   3.901 -0.7081  0.0186  0.0968
  143OSM   H11S15614   2.932   4.859   3.903 -0.6151  0.5469 -1.1231
  143OSM   H11T15615   2.771   4.773   3.897 -0.6471  0.0222 -1.8443
  143OSM   C12S15616   2.789   4.962   4.028  0.0734  0.3366  0.3346
  143OSM   H12S15617   2.689   5.006   4.009 -0.3723 -0.8189 -0.1348
  143OSM   H12T15618   2.868   5.040   4.032  1.4961 -0.7415 -2.9362
  143OSM   C13S15619   2.793   4.887   4.162 -0.1057  0.5575  0.4394
  143OSM   H13S15620   2.893   4.838   4.164 -0.9073 -1.1742  1.1095
  143OSM   H13T15621   2.727   4.798   4.173 -0.0023  0.5476  1.0708
  143OSM   C14S15622   2.775   4.979   4.284  0.6419 -1.0299  0.0775
  143OSM   H14S15623   2.688   5.043   4.260  1.4326  0.0918  0.1338
  143OSM   H14T15624   2.846   5.060   4.309  0.0176  0.4352 -2.5075
  143OSM   C15S15625   2.763   4.896   4.412 -0.9662 -0.3737 -0.0630
  143OSM   H15S15626   2.855   4.835   4.427  0.2497  1.0184 -1.5321
  143OSM   H15T15627   2.695   4.811   4.386 -0.2064 -0.7842 -0.7646
  143OSM   C16S15628   2.732   4.961   4.538 -0.1563  0.0235 -0.2469
  143OSM   H16S15629   2.645   5.029   4.522 -0.3008 -0.3367 -1.0404
  143OSM   H16T15630   2.820   5.021   4.569  2.1027 -3.4571  0.6111
  143OSM   C17S15631   2.694   4.871   4.661 -0.0545 -0.2242 -0.0397
  143OSM   H17S15632   2.672   4.934   4.749  2.4749  3.1114 -1.5814
  143OSM   H17T15633   2.781   4.809   4.693  0.6356 -0.4553 -2.1912
  143OSM   C18S15634   2.575   4.774   4.645  0.5335  0.5397  0.8192
  143OSM   H18S15635   2.529   4.747   4.742 -1.9544 -1.5546 -0.7952
  143OSM   H18T15636   2.604   4.687   4.582 -1.1982 -0.4364  1.3016
  143OSM   H18U15637   2.497   4.828   4.588 -1.1317 -1.8580  0.6607
  143OSM    C1F15638   3.370   4.729   3.323 -0.4756  0.3535 -0.3384
  143OSM     OF15639   3.424   4.824   3.264  0.4224 -0.3146 -0.2383
  143OSM    C2F15640   3.408   4.673   3.457 -0.1825 -0.5721 -0.6541
  143OSM    H2F15641   3.506   4.712   3.492 -0.1628 -0.8043 -0.4438
  143OSM    H2G15642   3.433   4.565   3.446  0.8136 -0.1395 -3.4316
  143OSM    C3F15643   3.295   4.703   3.566  0.6856 -0.5386 -0.2152
  143OSM    H3F15644   3.206   4.639   3.544 -0.1869  1.2631 -2.3571
  143OSM    H3G15645   3.254   4.805   3.552 -0.4714 -0.8752  0.5223
  143OSM    C4F15646   3.338   4.680   3.707 -0.2521 -0.7706  0.1562
  143OSM    H4F15647   3.427   4.745   3.723  1.0424 -1.7989 -2.4151
  143OSM    H4G15648   3.361   4.574   3.733 -1.2963 -0.6592  1.7498
  143OSM    C5F15649   3.213   4.706   3.789 -0.3652 -0.3687  0.3317
  143OSM    H5F15650   3.124   4.654   3.748 -0.5694  1.5812 -1.9115
  143OSM    H5G15651   3.183   4.813   3.782  0.5608 -0.1529 -0.7241
  143OSM    C6F15652   3.235   4.675   3.936 -0.7696 -0.3079 -0.0642
  143OSM    H6F15653   3.258   4.566   3.947 -0.5779 -0.2621 -0.0114
  143OSM    H6G15654   3.137   4.700   3.981 -0.3939  0.0707  0.5600
  143OSM    C7F15655   3.332   4.769   4.010  0.1669  0.0722  0.9206
  143OSM    H7F15656   3.285   4.869   3.996 -2.0145 -0.6769  2.3503
  143OSM    H7G15657   3.438   4.772   3.978  0.2399 -0.5572  1.0964
  143OSM    C8F15658   3.338   4.747   4.159 -0.2464 -0.4010 -0.5333
  143OSM    H8F15659   3.419   4.812   4.197 -0.0351 -1.0552  0.1537
  143OSM    H8G15660   3.380   4.645   4.174 -0.4198 -0.4512 -0.3812
  143OSM    C9F15661   3.215   4.774   4.240  0.2673 -0.7018  0.4681
  143OSM    H9F15662   3.124   4.759   4.181 -0.2721 -1.5051  1.4735
  143OSM   C10F15663   3.200   4.804   4.372  0.1696  0.6474 -0.1197
  143OSM   H10F15664   3.103   4.814   4.422  0.1496  0.5613 -0.1413
  143OSM   C11F15665   3.319   4.820   4.459  0.5722 -0.5030  0.1010
  143OSM   H11F15666   3.332   4.929   4.480 -0.6031  0.6677 -4.2309
  143OSM   H11G15667   3.407   4.781   4.403 -1.1867 -2.2987 -1.5567
  143OSM   C12F15668   3.317   4.741   4.585  0.3104 -0.1307 -0.2185
  143OSM   H12F15669   3.409   4.759   4.646  0.2470  1.2717 -0.5173
  143OSM   H12G15670   3.314   4.632   4.561 -0.4004 -0.1378 -0.1046
  143OSM   C13F15671   3.195   4.765   4.669 -0.3748  0.2847  0.3500
  143OSM   H13F15672   3.109   4.717   4.618  2.3393 -2.3053 -2.1342
  143OSM   H13G15673   3.184   4.874   4.685  0.3587  0.7431 -1.9207
  143OSM   C14F15674   3.194   4.691   4.804  0.1333 -0.6475 -1.2282
  143OSM   H14F15675   3.267   4.756   4.857 -1.9674  1.2684 -0.5212
  143OSM   H14G15676   3.233   4.587   4.800 -1.3125 -1.2399 -0.4821
  143OSM   C15F15677   3.058   4.706   4.876  0.6705  0.2553 -0.9431
  143OSM   H15F15678   3.047   4.638   4.964  0.6466 -0.8304 -1.7656
  143OSM   H15G15679   2.973   4.670   4.814 -0.8353 -0.8450  1.5680
  143OSM   C16F15680   3.033   4.851   4.921 -0.1127 -0.0744 -0.2610
  143OSM   H16F15681   3.041   4.919   4.833  2.6638  2.3537  1.6520
  143OSM   H16G15682   3.110   4.885   4.994 -0.4033 -0.4546  0.2290
  143OSM   C17F15683   2.892   4.874   4.986 -0.0043 -0.4705  0.3309
  143OSM   H17F15684   2.868   4.820   5.080 -1.4111 -1.0909 -0.3506
  143OSM   H17G15685   2.813   4.850   4.912 -2.0629  2.8765  1.2089
  143OSM   C18F15686   2.870   5.026   5.017  0.2222 -0.2335  0.6817
  143OSM   H18F15687   2.782   5.056   5.078  0.9289  3.2540  0.1785
  143OSM   H18G15688   2.865   5.074   4.917  0.3729  0.7589  1.1372
  143OSM   H18H15689   2.961   5.063   5.069  1.8018 -2.0244 -0.6814
  144OSM      N15690   2.298   6.002   2.754  0.3679  0.0189  0.4778
  144OSM    C1515691   2.268   5.869   2.703  0.6026  0.3106 -0.0013
  144OSM   H15A15692   2.233   5.889   2.603  0.8071  0.1942 -0.0966
  144OSM   H15B15693   2.193   5.817   2.760  1.9556 -0.3544  1.2410
  144OSM   H15C15694   2.361   5.817   2.689  0.4842  0.1256 -0.1081
  144OSM    C1415695   2.391   6.077   2.667 -0.0434 -0.0431  0.3439
  144OSM   H14A15696   2.396   6.179   2.701 -1.8245  0.6172 -1.2019
  144OSM   H14B15697   2.361   6.085   2.564 -0.1055  0.3888  0.3931
  144OSM   H14C15698   2.493   6.044   2.677  0.6405  1.7563 -0.2673
  144OSM    C1315699   2.167   6.076   2.760  0.0796 -0.5859 -0.1892
  144OSM   H13A15700   2.118   6.058   2.666  0.5729  1.1945 -0.8401
  144OSM   H13B15701   2.182   6.183   2.763  1.3566 -0.7577  0.3538
  144OSM   H13C15702   2.108   6.038   2.842  2.0866 -0.4210  1.4164
  144OSM    C1215703   2.350   5.986   2.902  0.1796 -1.0431  0.1880
  144OSM   H12A15704   2.274   5.965   2.975 -1.4868 -1.5560 -1.6227
  144OSM   H12B15705   2.399   6.079   2.927 -0.5732 -1.0384  1.7202
  144OSM    C1115706   2.462   5.881   2.917  0.0412 -0.3107 -0.0022
  144OSM   H11A15707   2.422   5.779   2.899  0.7031 -0.7144  0.7465
  144OSM   H11B15708   2.505   5.877   3.019  1.5636  0.1022 -0.6126
  144OSM      P15709   2.657   5.798   2.749  0.5108  0.1009  0.1357
  144OSM    O1315710   2.558   5.703   2.684  0.2766 -0.4511 -1.0773
  144OSM    O1415711   2.757   5.863   2.662 -0.4623  0.2831  0.1457
  144OSM    O1115712   2.731   5.712   2.858 -0.1004 -1.1825  0.6103
  144OSM    O1215713   2.577   5.909   2.829  0.4768 -0.2992  0.2600
  144OSM    C1S15714   2.820   5.775   2.953 -0.3698 -0.0798 -0.2062
  144OSM    H1S15715   2.804   5.884   2.940 -2.9083 -0.0552  2.1157
  144OSM    H1T15716   2.924   5.741   2.937 -0.3781 -0.6607  0.8802
  144OSM     NF15717   2.832   5.802   3.208  0.6356  0.3695 -0.3853
  144OSM    HNF15718   2.904   5.763   3.265 -0.3021 -1.4273 -0.3584
  144OSM    C2S15719   2.780   5.723   3.094 -0.7562  0.6564 -0.0274
  144OSM    H2S15720   2.669   5.727   3.101 -0.9325 -1.5571 -0.6956
  144OSM    C3S15721   2.814   5.572   3.100  0.4452 -0.3745 -0.7066
  144OSM    H3S15722   2.919   5.571   3.065  0.1154 -0.9369 -1.7333
  144OSM     O315723   2.744   5.490   3.002  0.0410 -0.1396 -0.1084
  144OSM    HO315724   2.693   5.551   2.948 -2.2580 -1.0018  0.9308
  144OSM    C4S15725   2.790   5.521   3.237 -0.4005  0.4938  0.4928
  144OSM    H4S15726   2.871   5.563   3.298 -0.0163  0.6018 -0.0922
  144OSM    C5S15727   2.694   5.446   3.288  0.0893 -0.7541  0.1392
  144OSM    H5S15728   2.628   5.400   3.214  0.3890 -0.2356 -0.4634
  144OSM    C6S15729   2.681   5.392   3.426 -0.2019 -0.7931 -0.2731
  144OSM    H6S15730   2.686   5.281   3.426  1.5986 -0.7469 -1.1047
  144OSM    H6T15731   2.578   5.421   3.455  0.3310  0.7418  0.1756
  144OSM    C7S15732   2.781   5.439   3.536 -0.3023 -0.5303 -0.0139
  144OSM    H7S15733   2.772   5.549   3.546 -1.0188 -0.7492  2.5366
  144OSM    H7T15734   2.883   5.409   3.505  0.1187 -1.0438  1.7822
  144OSM    C8S15735   2.746   5.369   3.672 -0.0759  0.5730  0.1659
  144OSM    H8S15736   2.781   5.263   3.671  1.4090  1.0388  0.1554
  144OSM    H8T15737   2.635   5.373   3.682 -0.3822  0.0443 -2.3836
  144OSM    C9S15738   2.807   5.422   3.799 -0.8610  0.2389  0.7215
  144OSM    H9S15739   2.838   5.528   3.811  1.5524 -0.6350  3.3477
  144OSM    H9T15740   2.907   5.376   3.810 -0.0180  0.6995 -3.3288
  144OSM   C10S15741   2.714   5.408   3.919 -0.7825 -0.2135 -0.9347
  144OSM   H10S15742   2.694   5.301   3.940  0.7993 -0.4422 -0.4882
  144OSM   H10T15743   2.619   5.465   3.910 -1.0104  0.1786  2.4446
  144OSM   C11S15744   2.776   5.455   4.050  0.3579  1.4518 -0.0938
  144OSM   H11S15745   2.778   5.566   4.050 -1.3525  1.4985 -0.0236
  144OSM   H11T15746   2.880   5.417   4.058 -0.6259 -1.5733 -0.6166
  144OSM   C12S15747   2.700   5.415   4.175  0.2625  0.1285 -1.3628
  144OSM   H12S15748   2.707   5.306   4.197  2.0238  0.4516 -0.1181
  144OSM   H12T15749   2.591   5.435   4.171 -0.3785 -2.1961  1.2878
  144OSM   C13S15750   2.757   5.491   4.298  0.0684  0.0279 -0.3044
  144OSM   H13S15751   2.761   5.600   4.275  0.8279 -0.3112 -1.9199
  144OSM   H13T15752   2.862   5.458   4.312 -0.5884 -2.2954 -0.5218
  144OSM   C14S15753   2.672   5.466   4.426 -0.5944 -0.8288  0.1795
  144OSM   H14S15754   2.565   5.492   4.408 -0.1324 -0.4752 -2.4443
  144OSM   H14T15755   2.713   5.525   4.510 -1.8900 -1.2869  1.1749
  144OSM   C15S15756   2.679   5.317   4.469  0.5324  0.1236 -0.1197
  144OSM   H15S15757   2.778   5.266   4.466  0.1660 -0.5948 -2.0237
  144OSM   H15T15758   2.634   5.266   4.381  3.0900 -1.2154 -0.7724
  144OSM   C16S15759   2.596   5.289   4.594  0.0306 -0.0129  0.6598
  144OSM   H16S15760   2.540   5.194   4.581 -1.7478  0.7827  2.0972
  144OSM   H16T15761   2.516   5.366   4.605 -0.1822  0.0199 -0.8970
  144OSM   C17S15762   2.670   5.291   4.729  0.0352  0.0045  0.2457
  144OSM   H17S15763   2.700   5.397   4.740 -0.6500  0.0815  1.6476
  144OSM   H17T15764   2.761   5.227   4.726  2.1972  2.9393 -0.9403
  144OSM   C18S15765   2.572   5.261   4.839  0.8831  0.3305 -0.0402
  144OSM   H18S15766   2.622   5.255   4.938 -0.6977  0.7971  0.8335
  144OSM   H18T15767   2.515   5.166   4.829  0.4897  0.6376 -0.8203
  144OSM   H18U15768   2.498   5.342   4.856  0.3832  0.6543 -3.0902
  144OSM    C1F15769   2.799   5.934   3.225 -0.2900 -0.0321 -0.5806
  144OSM     OF15770   2.722   6.005   3.156  0.2505 -0.1016  0.0010
  144OSM    C2F15771   2.883   5.996   3.334 -0.6272 -1.2575  0.5243
  144OSM    H2F15772   2.899   6.102   3.306 -1.5918 -0.9265  1.1715
  144OSM    H2G15773   2.983   5.948   3.322 -0.4523 -0.8111  0.1567
  144OSM    C3F15774   2.813   5.992   3.473 -0.0496 -0.1254 -0.7837
  144OSM    H3F15775   2.722   6.055   3.461  0.6322  0.7778 -1.3657
  144OSM    H3G15776   2.884   6.040   3.543  0.5160  1.2570 -2.2367
  144OSM    C4F15777   2.769   5.854   3.524 -0.5151 -0.2391 -0.1077
  144OSM    H4F15778   2.859   5.799   3.561 -0.3575  0.1108  0.0322
  144OSM    H4G15779   2.729   5.791   3.441 -0.1287 -1.2022  0.4200
  144OSM    C5F15780   2.659   5.851   3.630  0.1722  0.2529 -0.0821
  144OSM    H5F15781   2.577   5.787   3.590  1.0135  0.3729 -2.0578
  144OSM    H5G15782   2.610   5.949   3.650  0.1590  0.3907 -0.7915
  144OSM    C6F15783   2.711   5.812   3.772 -0.3603 -0.6548 -0.3998
  144OSM    H6F15784   2.762   5.715   3.753 -1.2964 -1.1197 -0.5908
  144OSM    H6G15785   2.624   5.795   3.840 -1.2374  2.6290 -0.5630
  144OSM    C7F15786   2.806   5.918   3.828 -0.2056 -0.3572  0.7830
  144OSM    H7F15787   2.760   6.015   3.803 -0.4081 -0.4333  0.8577
  144OSM    H7G15788   2.896   5.902   3.764 -0.8082  0.5713 -0.3232
  144OSM    C8F15789   2.823   5.889   3.978 -0.1962  0.1355  0.2268
  144OSM    H8F15790   2.927   5.915   4.009 -0.3809  2.6952 -0.9767
  144OSM    H8G15791   2.825   5.781   4.000  2.1496  0.1482  0.3074
  144OSM    C9F15792   2.716   5.971   4.054  0.4100 -0.0304  0.5773
  144OSM    H9F15793   2.628   5.988   3.989  3.4425  0.5591 -3.8751
  144OSM   C10F15794   2.736   6.038   4.163  0.3455  0.0292  0.2346
  144OSM   H10F15795   2.658   6.100   4.210  0.9564  0.1982  1.0621
  144OSM   C11F15796   2.849   6.046   4.258  0.1448  0.3090  0.0607
  144OSM   H11F15797   2.880   6.152   4.273  1.9298 -0.1953  0.0524
  144OSM   H11G15798   2.937   6.009   4.203 -0.0255  1.7223 -1.2287
  144OSM   C12F15799   2.805   5.986   4.386  0.2597  1.2676 -0.5167
  144OSM   H12F15800   2.891   5.976   4.455  0.0422  0.1611 -0.3834
  144OSM   H12G15801   2.774   5.879   4.378  1.4901  0.5554  2.5890
  144OSM   C13F15802   2.697   6.061   4.465  0.1442 -0.3032 -0.1654
  144OSM   H13F15803   2.608   6.079   4.401  0.6292  0.2874 -0.6895
  144OSM   H13G15804   2.748   6.157   4.488  2.2620 -2.1597  4.0683
  144OSM   C14F15805   2.659   5.973   4.581  1.0903 -0.0427  0.0152
  144OSM   H14F15806   2.742   5.941   4.647 -0.6610 -1.9215  1.4313
  144OSM   H14G15807   2.625   5.879   4.533  1.1491  0.1505 -0.4031
  144OSM   C15F15808   2.535   6.022   4.661 -0.1679 -0.4330  0.5422
  144OSM   H15F15809   2.491   5.926   4.695 -0.2578 -1.2982 -1.8813
  144OSM   H15G15810   2.467   6.057   4.581  0.0517  0.3353  0.6891
  144OSM   C16F15811   2.573   6.122   4.772 -0.5005 -0.4277  0.2765
  144OSM   H16F15812   2.633   6.208   4.735  2.0546 -1.9442  0.6414
  144OSM   H16G15813   2.643   6.062   4.835  2.0122  1.6779 -0.3591
  144OSM   C17F15814   2.454   6.169   4.860  0.3960 -0.1976  0.3218
  144OSM   H17F15815   2.396   6.089   4.910 -0.3385  0.6414  0.8380
  144OSM   H17G15816   2.383   6.232   4.802 -1.8536 -1.0836  1.9617
  144OSM   C18F15817   2.509   6.265   4.963  0.4135 -0.0631  0.4307
  144OSM   H18F15818   2.571   6.209   5.037 -0.3297  0.3449  1.3743
  144OSM   H18G15819   2.429   6.327   5.007  1.6131  0.5991  1.7506
  144OSM   H18H15820   2.576   6.340   4.916  2.3587 -0.2343  2.7624
  145SAPE     N15821   3.770   5.415   7.077 -0.0860 -0.8247 -0.5112
  145SAPE   HN115822   3.685   5.443   7.024  0.2293  1.5465  0.0979
  145SAPE   HN215823   3.741   5.359   7.159 -1.6933  1.3526  0.5171
  145SAPE   HN315824   3.809   5.504   7.114  0.6226 -1.4266  0.2227
  145SAPE   C1215825   3.879   5.342   7.004 -0.0480 -0.4505 -0.1325
  145SAPE  H12A15826   3.836   5.257   6.946  1.4671 -1.2460 -0.1498
  145SAPE  H12B15827   3.955   5.301   7.074 -1.2546 -0.6855  1.0919
  145SAPE   C1115828   3.927   5.436   6.893  0.0760  0.3813 -0.4542
  145SAPE  H11A15829   3.841   5.463   6.829 -1.7898 -0.9359  1.3870
  145SAPE  H11B15830   4.008   5.387   6.834  0.2790 -1.1644  1.0519
  145SAPE     P15831   4.124   5.576   6.984 -0.2380  0.3212  0.0025
  145SAPE   O1315832   4.154   5.716   7.020 -0.1544  0.0550  0.3273
  145SAPE   O1415833   4.164   5.482   7.087  0.3145 -0.4395 -0.4641
  145SAPE   O1215834   3.972   5.559   6.951 -0.1314  0.5625 -0.5671
  145SAPE   O1115835   4.200   5.534   6.850  0.9895 -0.8379 -0.1436
  145SAPE    C115836   4.245   5.639   6.767 -0.2791  0.2945 -0.3583
  145SAPE    HA15837   4.263   5.741   6.808 -2.1007  1.2882 -1.8621
  145SAPE    HB15838   4.347   5.613   6.730  0.9414  2.2914  1.3670
  145SAPE    C215839   4.158   5.664   6.637 -0.1474 -0.3233 -0.5913
  145SAPE    HS15840   4.051   5.655   6.669  0.0678 -2.4168 -0.3041
  145SAPE   O2115841   4.197   5.561   6.543  0.2158 -0.3386 -0.0619
  145SAPE   C2115842   4.100   5.503   6.467  0.3637 -0.1616  0.3267
  145SAPE   O2215843   3.982   5.532   6.471  0.6751  0.2057  0.2936
  145SAPE   C2215844   4.155   5.392   6.384  0.3315  0.1373 -0.3168
  145SAPE   H2R15845   4.264   5.386   6.404 -0.0130 -0.3117  1.6239
  145SAPE   H2S15846   4.123   5.292   6.421 -0.7248  0.4502 -0.3643
  145SAPE    C315847   4.182   5.798   6.573  0.4145 -0.0344 -1.1115
  145SAPE    HX15848   4.291   5.811   6.588 -0.1462  0.5053  5.5477
  145SAPE    HY15849   4.134   5.878   6.635  1.5655 -1.4833  1.8529
  145SAPE   O3115850   4.133   5.798   6.438 -0.2945 -0.4981  0.4776
  145SAPE   C3115851   4.006   5.835   6.418 -1.1150  0.0502 -0.1251
  145SAPE   O3215852   3.928   5.863   6.506 -0.0452  0.5298 -0.6155
  145SAPE   C3215853   3.973   5.825   6.268 -0.6297  0.0415  0.2310
  145SAPE   H2X15854   3.993   5.719   6.242 -1.3815 -0.6222  2.2062
  145SAPE   H2Y15855   4.052   5.876   6.210  0.0895 -2.5068 -1.1755
  145SAPE   C2315856   4.122   5.411   6.236 -0.1527  0.0761 -0.0445
  145SAPE   H3R15857   4.013   5.427   6.217 -0.9653 -2.2968  2.1300
  145SAPE   H3S15858   4.130   5.309   6.192 -0.2092 -0.5545  1.3583
  145SAPE   C2415859   4.198   5.521   6.159  0.0571 -0.8967  0.1907
  145SAPE   H4R15860   4.306   5.506   6.177 -0.4130 -4.2478  0.8748
  145SAPE   H4S15861   4.188   5.622   6.202  0.2628 -1.0305  0.5567
  145SAPE   C2515862   4.183   5.521   6.008 -0.7262  0.4908 -0.0506
  145SAPE   H5R15863   4.139   5.433   5.960  2.5986 -0.5022 -1.6500
  145SAPE   C2615864   4.213   5.625   5.925  0.1017 -0.4710  0.1676
  145SAPE   H6R15865   4.203   5.611   5.816 -1.0028  2.5019 -0.2153
  145SAPE   C2715866   4.245   5.774   5.963 -0.8175 -0.2592  0.5002
  145SAPE   H7R15867   4.206   5.791   6.066 -1.2233  2.6059 -0.0566
  145SAPE   H7S15868   4.189   5.845   5.898 -0.4018  0.8411  1.3281
  145SAPE   C2815869   4.396   5.796   5.952 -0.2107  0.2702 -0.4075
  145SAPE   H8R15870   4.449   5.796   6.049 -0.5498  1.8675 -0.1871
  145SAPE   C2915871   4.463   5.806   5.839 -0.6855 -0.6524  0.3705
  145SAPE   H9R15872   4.571   5.824   5.839  0.1364 -3.7319 -4.4555
  145SAPE  C21015873   4.396   5.803   5.704 -0.1334  0.4235  0.2751
  145SAPE  H10R15874   4.290   5.836   5.715 -0.5723 -1.6100  3.0666
  145SAPE  H10S15875   4.392   5.696   5.675 -0.6193  0.9558 -1.8294
  145SAPE  C21115876   4.484   5.875   5.597 -0.0671  0.3654  0.0199
  145SAPE  H11R15877   4.589   5.842   5.602  0.2212  1.0812 -1.0154
  145SAPE  C21215878   4.460   5.959   5.496 -0.1624 -0.2057 -0.0680
  145SAPE  H12R15879   4.544   5.996   5.435 -0.5797  1.9375  0.5774
  145SAPE  C21315880   4.321   5.999   5.451  0.5095 -0.4001  1.0555
  145SAPE  H13R15881   4.318   6.108   5.429  2.4178 -0.4243  0.5142
  145SAPE  H13S15882   4.250   5.986   5.535 -0.2890  2.9951  1.0685
  145SAPE  C21415883   4.259   5.915   5.341  0.1406 -0.1638  0.5297
  145SAPE  H14R15884   4.187   5.848   5.390  0.8583 -0.1057  1.7048
  145SAPE  C21515885   4.262   5.932   5.203  0.3341  0.0646  0.1295
  145SAPE  H15R15886   4.179   5.901   5.138  0.6540  1.8077 -1.1841
  145SAPE  C21615887   4.347   6.035   5.134  0.1423  0.4408  0.1684
  145SAPE  H16R15888   4.451   6.040   5.174  0.3178 -0.7911 -0.0761
  145SAPE  H16S15889   4.296   6.131   5.157  1.5340  1.3106 -0.2468
  145SAPE  C21715890   4.357   6.020   4.980  0.0182  0.7254  0.0018
  145SAPE  H17R15891   4.411   6.114   4.956  3.4048 -1.3792 -1.4798
  145SAPE  H17S15892   4.254   6.009   4.939  0.5071  1.4377 -1.4891
  145SAPE  C21815893   4.447   5.909   4.936  0.4094  0.1681 -0.6556
  145SAPE  H18R15894   4.438   5.893   4.827  1.1202 -0.9461 -0.5638
  145SAPE  H18S15895   4.406   5.822   4.992  2.2539 -0.1461  0.2911
  145SAPE  C21915896   4.594   5.928   4.972 -0.6621  0.4941 -0.5439
  145SAPE  H19R15897   4.625   5.822   4.977 -1.5032  0.2985  0.9257
  145SAPE  H19S15898   4.602   5.961   5.078 -0.4947 -0.2303 -0.3309
  145SAPE  C22015899   4.673   6.015   4.875 -0.1880  0.1871  0.6879
  145SAPE  H20R15900   4.767   6.054   4.919 -0.0774  0.1623  0.4719
  145SAPE  H20S15901   4.616   6.104   4.841 -0.1117  0.0292  0.1355
  145SAPE  H20T15902   4.689   5.953   4.784 -1.9376  1.8754 -0.8569
  145SAPE   C3315903   3.838   5.883   6.218  0.0944 -0.3771 -0.4580
  145SAPE   H3X15904   3.827   5.980   6.271 -0.9906  0.5709 -2.2944
  145SAPE   H3Y15905   3.757   5.819   6.259 -0.5378 -1.2378 -2.8970
  145SAPE   C3415906   3.828   5.916   6.063  0.5352  0.4729  0.8360
  145SAPE   H4X15907   3.912   5.983   6.034 -0.2734  0.1387 -2.7416
  145SAPE   H4Y15908   3.733   5.965   6.035  0.0239 -1.3070 -0.8167
  145SAPE   C3515909   3.842   5.792   5.981  0.2910  0.0880  0.1493
  145SAPE   H5X15910   3.750   5.731   5.986 -1.4581  2.6049  0.2626
  145SAPE   H5Y15911   3.929   5.731   6.013  0.3811  0.1801  0.0825
  145SAPE   C3615912   3.856   5.822   5.833 -0.5167  0.2479  0.5629
  145SAPE   H6X15913   3.951   5.873   5.807 -1.5251  1.5082 -0.8159
  145SAPE   H6Y15914   3.779   5.900   5.815 -0.6212  0.2209  0.8866
  145SAPE   C3715915   3.813   5.706   5.735 -0.5877 -0.1528  0.2740
  145SAPE   H7X15916   3.709   5.670   5.753 -0.1511 -1.8228 -0.4191
  145SAPE   H7Y15917   3.885   5.624   5.750  1.7586  1.0903 -3.0251
  145SAPE   C3815918   3.821   5.773   5.595 -0.6739 -0.0268 -0.6182
  145SAPE   H8X15919   3.760   5.865   5.603 -1.5010 -0.5567 -0.7819
  145SAPE   H8Y15920   3.773   5.708   5.519 -1.2729 -1.0846  0.6189
  145SAPE   C3915921   3.958   5.795   5.535 -0.1674  0.7415  0.6168
  145SAPE   H9X15922   4.012   5.864   5.603  0.7242  0.3278  0.3434
  145SAPE   H9Y15923   3.947   5.857   5.444  1.1724  0.9449  0.5720
  145SAPE  C31015924   4.046   5.668   5.512 -0.1405  0.1924 -0.1799
  145SAPE  H10X15925   4.033   5.583   5.582  0.9015 -0.6009 -0.9059
  145SAPE  H10Y15926   4.156   5.686   5.509 -0.2859  1.3256  0.5812
  145SAPE  C31115927   4.022   5.595   5.374  0.7198 -0.5548 -0.3057
  145SAPE  H11X15928   4.039   5.662   5.287  1.2038 -1.9914 -1.3387
  145SAPE  H11Y15929   3.912   5.578   5.372  0.9062 -1.8196 -0.2829
  145SAPE  C31215930   4.093   5.474   5.340  0.1467 -0.0596 -0.0042
  145SAPE  H12X15931   4.054   5.438   5.242  0.6718 -1.6354  0.3362
  145SAPE  H12Y15932   4.072   5.393   5.413  1.9257  0.2167  0.8629
  145SAPE  C31315933   4.240   5.495   5.303  0.0153 -0.0427 -0.3109
  145SAPE  H13X15934   4.302   5.521   5.391  1.4611 -1.6160 -0.7836
  145SAPE  H13Y15935   4.248   5.576   5.228 -0.5916 -0.4290 -0.8057
  145SAPE  C31415936   4.291   5.373   5.222  0.3265  0.4658  0.2040
  145SAPE  H14X15937   4.227   5.377   5.131  1.0480  0.6633 -0.3071
  145SAPE  H14Y15938   4.267   5.281   5.280 -0.1766  0.2550 -0.3284
  145SAPE  C31515939   4.444   5.386   5.181 -0.4352 -0.3477 -0.6120
  145SAPE  H15X15940   4.489   5.398   5.282 -1.1121 -0.5597 -0.2851
  145SAPE  H15Y15941   4.456   5.483   5.128  0.4682  0.8995  1.7251
  145SAPE  C31615942   4.508   5.276   5.100  0.5618  0.2466  0.0425
  145SAPE  H16X15943   4.471   5.259   4.996  0.1796 -2.0013  0.5117
  145SAPE  H16Y15944   4.481   5.181   5.151  0.2356  0.3998  0.1597
  145SAPE  C31715945   4.664   5.280   5.100  0.8013  0.0882  0.8413
  145SAPE  H17X15946   4.688   5.377   5.051  0.4389 -0.4393 -0.4376
  145SAPE  H17Y15947   4.700   5.203   5.028  0.0579  0.4724  0.0390
  145SAPE  C31815948   4.721   5.254   5.237 -0.2766  0.1362 -0.0165
  145SAPE  H18X15949   4.704   5.148   5.268  0.2787  0.3321  1.0104
  145SAPE  H18Y15950   4.668   5.309   5.318  1.5357  0.5831  0.9157
  145SAPE  H18Z15951   4.831   5.262   5.250 -0.0722 -1.9353 -0.0864
  146SAPE     N15952   0.678   5.843   7.309  0.6765 -0.1304  0.6680
  146SAPE   HN115953   0.634   5.748   7.313 -0.7567  0.1981 -3.2216
  146SAPE   HN215954   0.728   5.870   7.396  0.5478  1.1310  0.3626
  146SAPE   HN315955   0.607   5.918   7.293  0.2990 -0.8652 -1.4680
  146SAPE   C1215956   0.773   5.851   7.194  0.2804  0.6812  0.1589
  146SAPE  H12A15957   0.794   5.958   7.172 -0.7311  0.5712 -1.5319
  146SAPE  H12B15958   0.722   5.799   7.111 -0.2055  0.0714  0.8252
  146SAPE   C1115959   0.897   5.773   7.237  0.2894  0.3895 -0.4632
  146SAPE  H11A15960   0.945   5.825   7.323  0.3482 -1.1656  0.4776
  146SAPE  H11B15961   0.973   5.777   7.155  1.0248 -0.9638  0.1177
  146SAPE     P15962   0.824   5.523   7.178  0.1093 -0.0435  0.1019
  146SAPE   O1315963   0.911   5.401   7.192  0.7865  0.3274  0.1030
  146SAPE   O1415964   0.678   5.499   7.190  0.1003 -0.4541 -0.1023
  146SAPE   O1215965   0.873   5.629   7.276 -0.9611  0.0911 -0.2455
  146SAPE   O1115966   0.856   5.588   7.039 -0.6916  0.0310 -0.2236
  146SAPE    C115967   0.777   5.562   6.927 -0.1848  0.0302  1.2001
  146SAPE    HA15968   0.673   5.582   6.960 -0.7534 -0.5846 -0.1430
  146SAPE    HB15969   0.802   5.640   6.851 -1.6713  1.3866  2.0288
  146SAPE    C215970   0.793   5.427   6.864 -0.0413 -0.2128  0.1360
  146SAPE    HS15971   0.786   5.349   6.942  0.4338  0.5779  0.9860
  146SAPE   O2115972   0.925   5.424   6.804  0.3306 -0.3412  0.0273
  146SAPE   C2115973   0.955   5.307   6.749  0.0565 -0.7919 -0.0619
  146SAPE   O2215974   0.907   5.195   6.779  0.3946 -0.6711  0.4882
  146SAPE   C2215975   1.073   5.330   6.653  0.0113 -0.0195  0.9108
  146SAPE   H2R15976   1.081   5.438   6.628  0.8661  0.2587  2.3227
  146SAPE   H2S15977   1.162   5.293   6.708 -0.9534  0.4181  2.8698
  146SAPE    C315978   0.679   5.390   6.767  0.5189 -0.7139 -0.4559
  146SAPE    HX15979   0.590   5.373   6.832 -0.0163  2.3149 -0.2613
  146SAPE    HY15980   0.681   5.295   6.709 -3.1850 -1.6467  0.6554
  146SAPE   O3115981   0.660   5.499   6.675  0.4300  0.1730 -0.5991
  146SAPE   C3115982   0.540   5.516   6.630 -1.1058 -0.1773  0.2957
  146SAPE   O3215983   0.449   5.438   6.633  0.1538 -0.4958 -0.2142
  146SAPE   C3215984   0.532   5.657   6.569  0.0157 -0.5429  0.1697
  146SAPE   H2X15985   0.628   5.713   6.574 -0.2912  0.3014 -2.0696
  146SAPE   H2Y15986   0.458   5.710   6.633  0.5756  0.3623  0.0821
  146SAPE   C2315987   1.057   5.259   6.516 -0.3233 -0.1538  0.4251
  146SAPE   H3R15988   1.077   5.150   6.528  1.9819  0.2446  0.7087
  146SAPE   H3S15989   1.134   5.300   6.447  1.2966 -0.7467  1.8025
  146SAPE   C2415990   0.920   5.283   6.457  0.5244 -1.0241 -0.2946
  146SAPE   H4R15991   0.843   5.246   6.528  0.7376 -0.0995  0.4505
  146SAPE   H4S15992   0.899   5.220   6.368 -3.0974  1.1926 -1.2053
  146SAPE   C2515993   0.903   5.428   6.420 -1.2146  0.1180  0.5951
  146SAPE   H5R15994   0.855   5.489   6.498 -0.5640  2.4864 -0.7271
  146SAPE   C2615995   0.935   5.479   6.300 -0.2555 -0.0542  0.1957
  146SAPE   H6R15996   0.912   5.587   6.296 -0.0696  0.1562  2.8078
  146SAPE   C2715997   1.013   5.424   6.186 -0.2045  0.0192  0.8713
  146SAPE   H7R15998   0.943   5.392   6.106  0.4456 -2.3558  1.1587
  146SAPE   H7S15999   1.061   5.324   6.197  1.8046  0.6359 -1.3765
  146SAPE   C2816000   1.129   5.514   6.145 -0.3703  0.5748  0.3460
  146SAPE   H8R16001   1.183   5.562   6.228  0.0278  0.0550  0.3936
  146SAPE   C2916002   1.183   5.540   6.018  0.3367  0.1467 -0.4864
  146SAPE   H9R16003   1.278   5.596   6.014  1.1669 -1.1826 -0.0140
  146SAPE  C21016004   1.140   5.493   5.884  0.3543 -0.3670  0.5061
  146SAPE  H10R16005   1.108   5.586   5.834  2.3090  0.5881  0.9073
  146SAPE  H10S16006   1.056   5.422   5.892  0.6294 -0.8474 -0.6700
  146SAPE  C21116007   1.249   5.425   5.797  0.3674 -0.2432  0.0964
  146SAPE  H11R16008   1.309   5.357   5.859 -1.3864  1.2043  3.6164
  146SAPE  C21216009   1.277   5.460   5.671  0.0279  0.0015  0.3137
  146SAPE  H12R16010   1.363   5.413   5.622 -1.0668 -0.2078 -1.4979
  146SAPE  C21316011   1.190   5.548   5.588  0.2074  0.3838  0.0373
  146SAPE  H13R16012   1.159   5.638   5.645 -2.7883 -1.0544  0.8678
  146SAPE  H13S16013   1.091   5.498   5.588  0.0862  0.5058  2.2213
  146SAPE  C21416014   1.253   5.583   5.452  0.0251  0.7179  0.1470
  146SAPE  H14R16015   1.311   5.675   5.434  3.8823 -1.8202 -1.7093
  146SAPE  C21516016   1.235   5.512   5.337 -0.6011  0.2531 -0.5840
  146SAPE  H15R16017   1.279   5.546   5.242 -0.8991  0.1286 -0.7712
  146SAPE  C21616018   1.153   5.385   5.334  0.7016 -0.2415 -0.3370
  146SAPE  H16R16019   1.098   5.367   5.429  1.9200 -1.9786  0.0936
  146SAPE  H16S16020   1.226   5.302   5.337 -0.0236 -0.8790 -0.0295
  146SAPE  C21716021   1.049   5.356   5.223 -0.4078  0.0433  0.5329
  146SAPE  H17R16022   0.964   5.428   5.232  1.6700  2.6443  0.7056
  146SAPE  H17S16023   1.009   5.253   5.235 -1.9001  0.3810 -1.1076
  146SAPE  C21816024   1.102   5.372   5.080 -0.6583 -0.0241 -0.2765
  146SAPE  H18R16025   1.189   5.303   5.078 -0.6946 -0.1655  1.5616
  146SAPE  H18S16026   1.150   5.472   5.080  1.3804 -0.9039  1.4554
  146SAPE  C21916027   0.998   5.360   4.962  0.1852  0.1755 -0.2561
  146SAPE  H19R16028   0.923   5.441   4.975 -2.4731 -2.0780 -0.6664
  146SAPE  H19S16029   0.940   5.266   4.966  1.5745 -0.6880  1.1421
  146SAPE  C22016030   1.059   5.360   4.818 -0.3333 -0.0613 -0.6778
  146SAPE  H20R16031   1.085   5.465   4.790 -1.2886  0.4359  0.2520
  146SAPE  H20S16032   0.985   5.328   4.742 -0.3735  1.1941 -1.1949
  146SAPE  H20T16033   1.149   5.297   4.798  0.8691  1.8044 -1.4923
  146SAPE   C3316034   0.478   5.663   6.422  0.1333 -0.8329 -0.8838
  146SAPE   H3X16035   0.438   5.765   6.400 -0.8852 -0.7182  1.2481
  146SAPE   H3Y16036   0.393   5.594   6.406 -2.8320  2.3495 -0.1555
  146SAPE   C3416037   0.581   5.621   6.319  0.3476  0.3593  0.7484
  146SAPE   H4X16038   0.602   5.513   6.332  0.6284  0.0811 -1.4800
  146SAPE   H4Y16039   0.673   5.676   6.346 -0.9062  2.6864  0.5730
  146SAPE   C3516040   0.542   5.653   6.172  0.4627 -0.5920  0.0786
  146SAPE   H5X16041   0.525   5.762   6.164 -1.2429 -0.9319 -1.4788
  146SAPE   H5Y16042   0.449   5.603   6.138  0.0170  0.2712  0.0056
  146SAPE   C3616043   0.664   5.610   6.094  0.4986 -0.4016  0.1672
  146SAPE   H6X16044   0.684   5.502   6.111  1.1251 -0.2498  0.3893
  146SAPE   H6Y16045   0.755   5.662   6.129  1.1309 -2.4238  1.7272
  146SAPE   C3716046   0.648   5.640   5.939 -0.0073  0.5632 -0.1251
  146SAPE   H7X16047   0.612   5.745   5.934 -2.3586 -0.1766  0.1458
  146SAPE   H7Y16048   0.560   5.577   5.911  1.1068 -1.1731  0.0935
  146SAPE   C3816049   0.771   5.612   5.851  0.1863  0.0559  0.9889
  146SAPE   H8X16050   0.778   5.501   5.855 -4.0373 -0.3508  2.3251
  146SAPE   H8Y16051   0.868   5.659   5.878 -0.1420  1.7245 -0.5432
  146SAPE   C3916052   0.735   5.647   5.707 -0.5737 -0.2260  0.3447
  146SAPE   H9X16053   0.666   5.734   5.713 -1.1763 -0.7912  1.8609
  146SAPE   H9Y16054   0.673   5.570   5.656 -2.7055  2.0393 -0.7129
  146SAPE  C31016055   0.854   5.696   5.619 -0.1794 -0.3512  0.1734
  146SAPE  H10X16056   0.935   5.619   5.610 -0.3390 -0.3790 -1.2666
  146SAPE  H10Y16057   0.908   5.782   5.663  0.1908 -0.7093  0.4362
  146SAPE  C31116058   0.812   5.731   5.477  1.0158 -0.2644  0.3514
  146SAPE  H11X16059   0.735   5.812   5.478  0.3812 -0.8330 -0.6092
  146SAPE  H11Y16060   0.760   5.646   5.428  0.0510 -0.4619  1.6660
  146SAPE  C31216061   0.929   5.769   5.387 -0.7375 -0.5672 -0.3207
  146SAPE  H12X16062   0.996   5.681   5.377 -0.7203 -0.7806  1.3233
  146SAPE  H12Y16063   0.986   5.849   5.439  0.2029 -1.6243  0.3178
  146SAPE  C31316064   0.885   5.814   5.245 -0.1966  0.3342 -0.6449
  146SAPE  H13X16065   0.835   5.913   5.246  1.2769  1.1361 -2.3685
  146SAPE  H13Y16066   0.814   5.741   5.199 -0.1996 -0.1291  0.0773
  146SAPE  C31416067   1.004   5.825   5.146 -0.0777 -0.0427  0.4428
  146SAPE  H14X16068   1.053   5.725   5.147 -3.3993 -1.8059  2.3148
  146SAPE  H14Y16069   1.079   5.897   5.186  0.8289 -0.2969 -0.7524
  146SAPE  C31516070   0.966   5.853   5.002 -0.9255  0.0955 -0.0912
  146SAPE  H15X16071   0.970   5.962   4.980 -1.2905  0.2204  0.4350
  146SAPE  H15Y16072   0.859   5.830   4.985 -0.6069  0.7887 -3.9241
  146SAPE  C31616073   1.057   5.784   4.902  0.2821  0.0891  0.3700
  146SAPE  H16X16074   1.032   5.676   4.899 -1.0649  0.3942 -0.7972
  146SAPE  H16Y16075   1.162   5.787   4.937  0.3775  0.6306  0.0498
  146SAPE  C31716076   1.044   5.848   4.765 -0.0206 -0.3137 -0.1962
  146SAPE  H17X16077   1.083   5.952   4.766  1.2412 -0.7779  1.1560
  146SAPE  H17Y16078   0.936   5.857   4.738  0.1179  2.3051 -0.1991
  146SAPE  C31816079   1.120   5.763   4.664 -0.3115 -0.3828 -0.6298
  146SAPE  H18X16080   1.071   5.663   4.661 -0.6143 -0.2891  0.6629
  146SAPE  H18Y16081   1.226   5.756   4.697 -0.6740 -0.5434  0.5189
  146SAPE  H18Z16082   1.133   5.826   4.573  1.3739  2.1152  1.2065
  147SAPE     N16083   5.316   2.666   7.541 -0.3094 -0.3483 -0.1252
  147SAPE   HN116084   5.238   2.610   7.501  0.9365 -1.6114 -0.8737
  147SAPE   HN216085   5.404   2.632   7.498 -1.1288 -0.8910 -1.4507
  147SAPE   HN316086   5.324   2.642   7.642  3.1232 -2.1041 -0.6714
  147SAPE   C1216087   5.297   2.806   7.523  0.1744  0.4765  0.1517
  147SAPE  H12A16088   5.390   2.857   7.558  1.1743 -0.4948 -0.9683
  147SAPE  H12B16089   5.202   2.836   7.571 -0.7765  0.0126 -1.3894
  147SAPE   C1116090   5.291   2.830   7.370  0.3825 -0.0170 -0.6944
  147SAPE  H11A16091   5.389   2.793   7.331  0.8637  0.6331 -0.1261
  147SAPE  H11B16092   5.275   2.936   7.341 -4.0505 -0.2751  0.1165
  147SAPE     P16093   5.048   2.800   7.259  0.1739 -0.0789 -0.1459
  147SAPE   O1316094   4.988   2.705   7.164  0.0169  0.3127  0.4729
  147SAPE   O1416095   4.958   2.830   7.372 -0.1886  0.0847 -0.4608
  147SAPE   O1216096   5.190   2.748   7.305  0.2680 -0.7842 -0.2789
  147SAPE   O1116097   5.078   2.938   7.183 -0.4179  0.2939 -0.3152
  147SAPE    C116098   5.156   2.916   7.062  0.1727 -0.4209  1.2486
  147SAPE    HA16099   5.217   3.006   7.040  2.7987 -2.0664  1.2736
  147SAPE    HB16100   5.233   2.836   7.069  1.9597  0.8743 -1.7165
  147SAPE    C216101   5.076   2.895   6.930  0.4909 -0.2054 -0.5013
  147SAPE    HS16102   5.040   2.790   6.934 -1.7083  0.4903  3.6081
  147SAPE   O2116103   5.171   2.923   6.825  0.1167 -0.4192 -0.2890
  147SAPE   C2116104   5.163   2.848   6.715 -0.4367 -0.1721  0.1450
  147SAPE   O2216105   5.065   2.774   6.694  0.0791  0.7387  0.3881
  147SAPE   C2216106   5.280   2.872   6.625 -0.1578  0.2502  0.2414
  147SAPE   H2R16107   5.321   2.974   6.640 -1.1001  0.6821 -0.0763
  147SAPE   H2S16108   5.353   2.789   6.639  0.3525  0.2604 -1.9328
  147SAPE    C316109   4.960   3.000   6.921 -0.2929  0.6408  0.0145
  147SAPE    HX16110   5.009   3.097   6.946 -0.2631  0.5763  0.2086
  147SAPE    HY16111   4.879   2.985   6.996 -0.5791  0.7441 -0.2741
  147SAPE   O3116112   4.905   2.998   6.788  0.1747 -0.4351  0.0335
  147SAPE   C3116113   4.803   2.917   6.765  0.2067  0.0747  0.2107
  147SAPE   O3216114   4.750   2.839   6.841 -0.3843  0.0039 -0.1944
  147SAPE   C3216115   4.748   2.953   6.631  0.2177  0.2291  0.6413
  147SAPE   H2X16116   4.740   3.063   6.618 -3.6572 -0.0116 -0.2498
  147SAPE   H2Y16117   4.640   2.927   6.636  0.0472 -0.0217 -2.2691
  147SAPE   C2316118   5.235   2.856   6.473  0.4787  0.1378 -0.4531
  147SAPE   H3R16119   5.160   2.932   6.441 -1.7079 -1.4141  0.7841
  147SAPE   H3S16120   5.177   2.762   6.468 -4.0094  2.6991 -2.7814
  147SAPE   C2416121   5.348   2.836   6.374  0.3591 -0.4971 -0.0448
  147SAPE   H4R16122   5.306   2.790   6.282 -1.8840  2.6180 -0.7322
  147SAPE   H4S16123   5.416   2.760   6.419 -1.1117 -1.8759 -0.0646
  147SAPE   C2516124   5.415   2.972   6.349 -0.4716  0.7118  0.1324
  147SAPE   H5R16125   5.496   2.996   6.419  1.3621  1.0918 -2.0290
  147SAPE   C2616126   5.420   3.049   6.240  0.4804 -0.3862  0.7336
  147SAPE   H6R16127   5.495   3.129   6.247  1.4672 -1.2743  0.5819
  147SAPE   C2716128   5.347   3.022   6.111 -0.6828  0.1245 -0.0046
  147SAPE   H7R16129   5.351   3.116   6.052 -0.3050  1.1600  1.6345
  147SAPE   H7S16130   5.240   3.008   6.136 -0.9641 -0.5681 -1.4588
  147SAPE   C2816131   5.395   2.905   6.035  0.4044  0.5160 -0.4860
  147SAPE   H8R16132   5.447   2.832   6.098  0.3216 -0.7579 -1.8358
  147SAPE   C2916133   5.382   2.895   5.900 -0.1384  0.6888 -0.4069
  147SAPE   H9R16134   5.420   2.803   5.852 -0.6745  0.7112 -0.8809
  147SAPE  C21016135   5.340   2.999   5.796 -0.3457 -0.0838  0.2092
  147SAPE  H10R16136   5.422   3.065   5.759 -0.1155 -1.0225 -1.0368
  147SAPE  H10S16137   5.288   3.083   5.845 -1.6641  1.5526 -3.5810
  147SAPE  C21116138   5.250   2.940   5.689  0.1610 -0.2996 -0.6062
  147SAPE  H11R16139   5.143   2.965   5.694 -0.2133 -1.6608 -1.1425
  147SAPE  C21216140   5.288   2.840   5.613 -0.0741  0.5124  0.2220
  147SAPE  H12R16141   5.223   2.809   5.531  1.0974  1.8721 -1.2849
  147SAPE  C21316142   5.430   2.796   5.595 -0.0781 -0.7882 -0.3706
  147SAPE  H13R16143   5.434   2.686   5.578  3.9077 -0.6308 -1.4691
  147SAPE  H13S16144   5.498   2.813   5.681 -0.3587  0.2030 -0.3267
  147SAPE  C21416145   5.488   2.866   5.475 -0.3254  0.3442  0.0903
  147SAPE  H14R16146   5.486   2.976   5.481 -0.6524  0.3561 -0.2476
  147SAPE  C21516147   5.531   2.816   5.359 -0.0309 -0.7211  0.0386
  147SAPE  H15R16148   5.575   2.888   5.288 -0.0095 -2.1105 -1.4286
  147SAPE  C21616149   5.540   2.671   5.317 -0.2583  0.0927  0.7359
  147SAPE  H16R16150   5.528   2.604   5.406  3.4390 -1.6328  0.0985
  147SAPE  H16S16151   5.644   2.650   5.287 -0.4668 -1.0946  0.7891
  147SAPE  C21716152   5.435   2.618   5.216 -0.2480  0.1404 -0.3301
  147SAPE  H17R16153   5.454   2.511   5.191 -2.6493 -0.2923 -0.5200
  147SAPE  H17S16154   5.431   2.684   5.127 -0.2813  1.4873  0.6465
  147SAPE  C21816155   5.290   2.606   5.271 -0.6990 -0.5203  0.0968
  147SAPE  H18R16156   5.257   2.707   5.303  0.2589 -0.3530  0.5944
  147SAPE  H18S16157   5.275   2.539   5.358 -0.3172  0.4053  0.9005
  147SAPE  C21916158   5.184   2.564   5.167 -0.0998  0.2848  0.4544
  147SAPE  H19R16159   5.210   2.467   5.119  2.0865 -0.3194  2.6702
  147SAPE  H19S16160   5.179   2.633   5.080 -0.9567  1.3105  1.2988
  147SAPE  C22016161   5.050   2.558   5.224  0.0083  0.3289  0.1724
  147SAPE  H20R16162   4.994   2.650   5.200  0.2360  0.4975  0.2877
  147SAPE  H20S16163   5.058   2.550   5.335 -2.6996 -1.1100  0.3591
  147SAPE  H20T16164   4.981   2.482   5.181 -0.4303  1.0235 -0.3609
  147SAPE   C3316165   4.797   2.873   6.513  0.1389  0.0894 -0.4906
  147SAPE   H3X16166   4.790   2.764   6.534 -1.8362 -0.3302 -2.8581
  147SAPE   H3Y16167   4.904   2.890   6.490 -0.2559  0.7475 -1.9046
  147SAPE   C3416168   4.701   2.901   6.394 -0.3857 -0.3884 -0.0426
  147SAPE   H4X16169   4.678   3.009   6.385  0.7805 -0.1132  0.2110
  147SAPE   H4Y16170   4.607   2.856   6.433 -0.1581  1.1118  2.4377
  147SAPE   C3516171   4.755   2.844   6.268 -0.2906 -0.1562  1.0322
  147SAPE   H5X16172   4.674   2.845   6.191  1.1106  1.4542 -0.5133
  147SAPE   H5Y16173   4.784   2.741   6.298 -0.3761  0.2503  2.5578
  147SAPE   C3616174   4.870   2.921   6.205  0.3992  0.0738 -0.1968
  147SAPE   H6X16175   4.950   2.941   6.279 -0.0228 -0.3025  0.3689
  147SAPE   H6Y16176   4.816   3.011   6.170  0.3925  0.9740  2.0186
  147SAPE   C3716177   4.932   2.841   6.087  0.0771  0.5095  0.7271
  147SAPE   H7X16178   4.920   2.731   6.085  0.6199  0.4191  1.8311
  147SAPE   H7Y16179   5.041   2.850   6.071  0.1575 -1.9022 -0.4346
  147SAPE   C3816180   4.879   2.892   5.942 -0.1070 -0.0358  0.5538
  147SAPE   H8X16181   4.913   2.998   5.931  0.7561 -0.0973  2.3090
  147SAPE   H8Y16182   4.768   2.898   5.950 -0.1754 -1.8682  1.2834
  147SAPE   C3916183   4.924   2.804   5.821  0.3424  0.0997 -0.4161
  147SAPE   H9X16184   4.907   2.702   5.862  1.2116  1.4374  3.7248
  147SAPE   H9Y16185   5.034   2.808   5.811  0.2833  0.0108 -1.1547
  147SAPE  C31016186   4.864   2.832   5.685  0.2557 -0.6176 -0.4782
  147SAPE  H10X16187   4.873   2.941   5.663 -1.5014 -0.0686  1.2900
  147SAPE  H10Y16188   4.754   2.826   5.698  0.3198  2.0801  2.4882
  147SAPE  C31116189   4.908   2.742   5.571 -0.9475  0.0249 -0.1773
  147SAPE  H11X16190   4.945   2.641   5.597 -2.9972 -0.7206  0.0055
  147SAPE  H11Y16191   5.000   2.787   5.527 -0.8395  1.2415  1.2186
  147SAPE  C31216192   4.795   2.732   5.468  0.2576  0.7531 -0.6732
  147SAPE  H12X16193   4.703   2.688   5.513  0.6811 -0.5118 -0.9932
  147SAPE  H12Y16194   4.820   2.658   5.389 -0.1140 -0.4082  0.2678
  147SAPE  C31316195   4.745   2.855   5.386  0.0410  0.8856 -0.1501
  147SAPE  H13X16196   4.832   2.892   5.326  0.2241  0.2725 -0.2689
  147SAPE  H13Y16197   4.710   2.926   5.463  1.4198  0.6416  0.7285
  147SAPE  C31416198   4.624   2.819   5.305 -0.0711  0.4435 -0.2210
  147SAPE  H14X16199   4.542   2.790   5.374  0.4845 -3.2240 -0.9310
  147SAPE  H14Y16200   4.650   2.727   5.250  0.0310 -0.0614  0.6565
  147SAPE  C31516201   4.585   2.938   5.216 -0.2913  0.2658 -0.6972
  147SAPE  H15X16202   4.567   3.027   5.280  3.3567  0.3267  0.5364
  147SAPE  H15Y16203   4.490   2.906   5.169 -1.2530 -0.8241  1.7850
  147SAPE  C31616204   4.686   2.984   5.107 -0.2252  0.4990 -0.2138
  147SAPE  H16X16205   4.782   3.028   5.141  1.1787 -1.1466 -1.8276
  147SAPE  H16Y16206   4.641   3.055   5.035  1.1835  1.0685 -0.5570
  147SAPE  C31716207   4.714   2.859   5.016  0.6890 -0.1482 -0.1084
  147SAPE  H17X16208   4.634   2.783   5.029  0.1017  0.5480  0.4292
  147SAPE  H17Y16209   4.796   2.800   5.062 -0.9660 -0.4261  2.6881
  147SAPE  C31816210   4.733   2.877   4.867  0.2924 -0.4982 -0.9111
  147SAPE  H18X16211   4.804   2.961   4.851  0.4771 -0.6218 -0.7368
  147SAPE  H18Y16212   4.641   2.920   4.820 -0.1709 -1.4666 -0.9123
  147SAPE  H18Z16213   4.766   2.785   4.814  0.6023  0.1613 -1.9003
  148SAPE     N16214   2.610   3.994   7.424 -0.5825  0.0950 -0.6614
  148SAPE   HN116215   2.708   3.966   7.401 -0.9745 -0.7781 -1.2773
  148SAPE   HN216216   2.572   4.059   7.353  0.0891 -0.5078 -1.6016
  148SAPE   HN316217   2.616   4.042   7.517 -0.7965 -1.0538 -0.0425
  148SAPE   C1216218   2.525   3.869   7.402 -0.6354 -0.2701 -0.4061
  148SAPE  H12A16219   2.423   3.898   7.369 -0.6653 -1.0794 -1.0321
  148SAPE  H12B16220   2.525   3.806   7.494  1.9229  0.4426  0.1864
  148SAPE   C1116221   2.594   3.791   7.289 -0.0463  0.1898  0.7055
  148SAPE  H11A16222   2.582   3.845   7.192 -0.6468 -0.2100  0.5546
  148SAPE  H11B16223   2.531   3.704   7.263 -0.0022 -0.5202  2.8202
  148SAPE     P16224   2.769   3.605   7.352  0.0110 -0.1111  0.2006
  148SAPE   O1316225   2.885   3.620   7.443  0.4728  0.5199 -0.5152
  148SAPE   O1416226   2.641   3.545   7.394  0.5483 -0.3555 -0.5346
  148SAPE   O1216227   2.735   3.757   7.314  0.7478  0.0990  0.5039
  148SAPE   O1116228   2.823   3.541   7.216 -0.4407 -0.6752  0.7727
  148SAPE    C116229   2.918   3.604   7.129  0.1066 -0.2852 -0.4457
  148SAPE    HA16230   2.899   3.713   7.123  2.0529  0.3248  2.5770
  148SAPE    HB16231   3.020   3.589   7.170  1.0188 -2.5633 -3.2482
  148SAPE    C216232   2.916   3.558   6.978  0.8567 -0.9744  0.0248
  148SAPE    HS16233   2.966   3.460   6.962 -0.5870 -2.0719  1.8099
  148SAPE   O2116234   2.974   3.672   6.898 -0.1477  0.1809  0.9255
  148SAPE   C2116235   3.101   3.660   6.887  0.0236 -0.1039 -0.1278
  148SAPE   O2216236   3.167   3.575   6.944 -0.3164  0.3342  1.0607
  148SAPE   C2216237   3.167   3.769   6.798  1.1924 -0.4529 -0.7320
  148SAPE   H2R16238   3.095   3.853   6.785  0.3822 -1.1722 -0.9411
  148SAPE   H2S16239   3.249   3.796   6.869  1.3850 -1.4595 -0.5653
  148SAPE    C316240   2.770   3.547   6.920  0.0434 -0.0561  0.1275
  148SAPE    HX16241   2.702   3.623   6.964  1.3238  1.9917 -1.2729
  148SAPE    HY16242   2.731   3.455   6.968 -1.0580 -0.3695 -1.3133
  148SAPE   O3116243   2.768   3.540   6.775 -0.8683  0.3385 -0.0063
  148SAPE   C3116244   2.639   3.547   6.731  0.4071  0.2640  0.2771
  148SAPE   O3216245   2.540   3.554   6.797 -0.2929  0.1685 -0.1577
  148SAPE   C3216246   2.642   3.533   6.585 -0.4685  0.0194  1.0418
  148SAPE   H2X16247   2.578   3.452   6.544  0.6050 -0.7079  0.7463
  148SAPE   H2Y16248   2.741   3.512   6.540  1.2427  0.8823  4.1034
  148SAPE   C2316249   3.226   3.719   6.665  0.3967  0.3772  0.6248
  148SAPE   H3R16250   3.265   3.616   6.681 -0.1166  0.1024  0.1294
  148SAPE   H3S16251   3.313   3.773   6.620  0.4541 -3.5227 -4.8241
  148SAPE   C2416252   3.114   3.729   6.561 -0.4920  0.8078  0.0625
  148SAPE   H4R16253   3.108   3.834   6.527  0.8514  1.2904  1.2383
  148SAPE   H4S16254   3.021   3.698   6.614  0.4585 -1.1512  0.6754
  148SAPE   C2516255   3.130   3.628   6.455  0.2556 -0.0775  0.3121
  148SAPE   H5R16256   3.109   3.527   6.493  1.9010 -0.6089 -0.0943
  148SAPE   C2616257   3.166   3.652   6.327  0.4022  0.6346  0.3538
  148SAPE   H6R16258   3.152   3.567   6.259 -1.9044 -0.3870  1.9571
  148SAPE   C2716259   3.208   3.784   6.272  0.3254 -0.5251  0.8961
  148SAPE   H7R16260   3.216   3.859   6.353  1.1981  1.4970 -0.9560
  148SAPE   H7S16261   3.130   3.829   6.207  0.3454 -0.6644  0.7745
  148SAPE   C2816262   3.337   3.773   6.194  0.1359 -0.4152 -0.5616
  148SAPE   H8R16263   3.428   3.770   6.256  1.0451 -1.3928 -1.8705
  148SAPE   C2916264   3.360   3.784   6.062 -0.0215  0.3344 -0.1961
  148SAPE   H9R16265   3.463   3.775   6.024 -0.6840 -4.2359 -1.5250
  148SAPE  C21016266   3.253   3.786   5.960  0.1084 -0.7544  0.8988
  148SAPE  H10R16267   3.231   3.891   5.933  3.0517 -0.4900 -0.9678
  148SAPE  H10S16268   3.158   3.737   5.989 -2.3345  2.6674 -0.6203
  148SAPE  C21116269   3.299   3.721   5.839 -0.1717  0.1072 -0.1574
  148SAPE  H11R16270   3.282   3.613   5.829  0.7526 -0.0308 -0.3964
  148SAPE  C21216271   3.340   3.789   5.728 -0.4341  0.1506  0.1610
  148SAPE  H12R16272   3.369   3.736   5.637 -1.3034 -0.7074  0.3684
  148SAPE  C21316273   3.353   3.940   5.719 -0.4759 -0.7156  0.1924
  148SAPE  H13R16274   3.436   3.963   5.790  0.1597 -1.1087 -0.4197
  148SAPE  H13S16275   3.264   4.000   5.750  0.0508  0.3381 -0.2833
  148SAPE  C21416276   3.371   4.009   5.580 -0.5243 -0.3326 -0.3461
  148SAPE  H14R16277   3.286   4.055   5.528  0.2742  1.6352  0.0280
  148SAPE  C21516278   3.477   3.990   5.498 -0.2835 -0.2254  0.2684
  148SAPE  H15R16279   3.477   4.050   5.406 -1.1102  0.4368  0.6873
  148SAPE  C21616280   3.608   3.918   5.531  0.1719  1.1464  1.0004
  148SAPE  H16R16281   3.600   3.846   5.616  0.0926  0.3973  0.3651
  148SAPE  H16S16282   3.693   3.983   5.560  0.5761 -0.3387  3.4287
  148SAPE  C21716283   3.654   3.837   5.405  0.4536  0.4339  0.3751
  148SAPE  H17R16284   3.749   3.795   5.446  0.1168 -2.6371 -1.6863
  148SAPE  H17S16285   3.664   3.902   5.315 -2.8563 -0.9123 -1.1499
  148SAPE  C21816286   3.568   3.727   5.368 -0.0693  0.2321 -0.1739
  148SAPE  H18R16287   3.471   3.770   5.333  0.2370  1.7636  0.7458
  148SAPE  H18S16288   3.532   3.680   5.461  0.8026  1.6364  0.9131
  148SAPE  C21916289   3.622   3.625   5.271 -0.1056 -0.1001 -0.0932
  148SAPE  H19R16290   3.546   3.547   5.251 -0.2936  0.1293 -0.2964
  148SAPE  H19S16291   3.709   3.576   5.318 -1.1418  2.0699  4.7212
  148SAPE  C22016292   3.666   3.680   5.140  0.5558  0.9765 -0.0416
  148SAPE  H20R16293   3.612   3.770   5.102  0.6446  0.0109 -2.6019
  148SAPE  H20S16294   3.655   3.608   5.057  2.4997  0.5252  0.0445
  148SAPE  H20T16295   3.775   3.702   5.140  0.8344 -0.3222 -0.3313
  148SAPE   C3316296   2.601   3.664   6.518 -0.7911 -0.7560  0.0665
  148SAPE   H3X16297   2.663   3.739   6.571 -0.2597 -2.4249  1.9060
  148SAPE   H3Y16298   2.496   3.690   6.542 -0.3780  1.4586 -0.3095
  148SAPE   C3416299   2.623   3.679   6.367  0.0809  0.3141 -0.0409
  148SAPE   H4X16300   2.726   3.647   6.342  0.8311  0.7967  2.2203
  148SAPE   H4Y16301   2.605   3.781   6.328 -2.1414 -1.7394 -5.3108
  148SAPE   C3516302   2.519   3.594   6.288  0.3810  0.2798  0.0545
  148SAPE   H5X16303   2.420   3.611   6.334  0.3246 -0.5112  0.2365
  148SAPE   H5Y16304   2.570   3.497   6.303  0.2968  0.2018 -0.1627
  148SAPE   C3616305   2.524   3.620   6.133  0.1358 -0.3501  0.5707
  148SAPE   H6X16306   2.625   3.585   6.100  0.0018 -1.2909  1.1441
  148SAPE   H6Y16307   2.522   3.729   6.108  0.6508 -0.3943  0.3195
  148SAPE   C3716308   2.416   3.547   6.047 -0.4513 -0.0391 -0.3288
  148SAPE   H7X16309   2.323   3.597   6.082 -0.6694 -1.2990  0.9758
  148SAPE   H7Y16310   2.408   3.443   6.084 -0.6682  0.1583  0.1953
  148SAPE   C3816311   2.450   3.539   5.899 -0.1456  0.2142 -0.1719
  148SAPE   H8X16312   2.542   3.477   5.890  0.2364  0.7436  0.0234
  148SAPE   H8Y16313   2.470   3.641   5.861 -0.4514  0.5058  0.4491
  148SAPE   C3916314   2.339   3.476   5.824  0.4124  0.2370 -0.5693
  148SAPE   H9X16315   2.246   3.535   5.837  0.4693  0.2640 -0.2751
  148SAPE   H9Y16316   2.326   3.373   5.863  1.6898  0.0112 -0.6924
  148SAPE  C31016317   2.378   3.471   5.678  0.2624  0.0713  0.6943
  148SAPE  H10X16318   2.479   3.427   5.669  0.3204 -0.0465  1.7894
  148SAPE  H10Y16319   2.390   3.573   5.634 -0.1849  0.3597  1.2200
  148SAPE  C31116320   2.272   3.400   5.594 -0.1080  0.7973 -0.8430
  148SAPE  H11X16321   2.165   3.420   5.612 -0.8158 -2.2489 -1.1172
  148SAPE  H11Y16322   2.277   3.292   5.620  1.1129  1.2581  1.0022
  148SAPE  C31216323   2.306   3.419   5.443  0.5536  0.2070  0.4375
  148SAPE  H12X16324   2.414   3.394   5.434  0.3935 -1.0011  1.4842
  148SAPE  H12Y16325   2.288   3.520   5.402 -0.1491  0.3594  1.0960
  148SAPE  C31316326   2.217   3.321   5.366  0.1475  0.5588 -0.4111
  148SAPE  H13X16327   2.108   3.323   5.386  0.0264  0.6765 -1.0576
  148SAPE  H13Y16328   2.254   3.222   5.402  0.3022  0.5378 -0.6297
  148SAPE  C31416329   2.231   3.332   5.216 -0.0502  0.2724  0.0285
  148SAPE  H14X16330   2.199   3.237   5.169  2.4123 -0.7380  0.2304
  148SAPE  H14Y16331   2.339   3.313   5.199 -0.7258 -1.8544 -2.4519
  148SAPE  C31516332   2.165   3.457   5.166 -0.0762 -0.0660  0.7656
  148SAPE  H15X16333   2.190   3.555   5.211 -2.5538  0.9619  0.0968
  148SAPE  H15Y16334   2.055   3.459   5.183 -0.1400  1.8736  0.2960
  148SAPE  C31616335   2.195   3.480   5.013  0.2760  0.6870  0.2560
  148SAPE  H16X16336   2.134   3.414   4.948  2.3408  0.9291 -2.0727
  148SAPE  H16Y16337   2.300   3.450   4.994 -0.1691 -0.1956 -0.9367
  148SAPE  C31716338   2.172   3.625   4.976  0.2727 -0.3284  0.2263
  148SAPE  H17X16339   2.253   3.684   5.023  0.9523  0.4621 -1.8428
  148SAPE  H17Y16340   2.082   3.675   5.019  0.8028  1.0713 -0.2402
  148SAPE  C31816341   2.187   3.663   4.823 -0.2516 -0.1434 -1.1895
  148SAPE  H18X16342   2.278   3.623   4.773 -0.6581  0.3876 -2.3888
  148SAPE  H18Y16343   2.198   3.773   4.821 -2.6036  0.4046  3.1686
  148SAPE  H18Z16344   2.097   3.631   4.766 -1.2207 -0.6261  0.5197
  149SAPE     N16345   3.476   0.895   7.470 -0.1611  0.2464  0.0407
  149SAPE   HN116346   3.447   0.991   7.442 -1.4192  1.2446  4.1083
  149SAPE   HN216347   3.411   0.828   7.424 -0.8236  1.8066 -1.3714
  149SAPE   HN316348   3.467   0.889   7.573 -0.1210  2.1601  0.1756
  149SAPE   C1216349   3.616   0.865   7.429  0.3207  0.0274  0.3323
  149SAPE  H12A16350   3.626   0.763   7.471 -1.1687 -0.0477  0.5409
  149SAPE  H12B16351   3.680   0.943   7.477  0.0502  1.8142 -2.0461
  149SAPE   C1116352   3.643   0.879   7.274 -0.4901 -0.2835 -0.6187
  149SAPE  H11A16353   3.748   0.846   7.262  0.2580  1.6138  0.4612
  149SAPE  H11B16354   3.646   0.986   7.243  0.4027 -0.9175 -2.9246
  149SAPE     P16355   3.541   0.658   7.172 -0.2478  0.2821 -0.4126
  149SAPE   O1316356   3.509   0.599   7.306 -0.5440 -0.7821  0.1639
  149SAPE   O1416357   3.442   0.625   7.067  0.2433  0.8201 -1.0246
  149SAPE   O1216358   3.543   0.816   7.193 -0.0664 -0.3794 -0.1300
  149SAPE   O1116359   3.682   0.622   7.134  0.1374  0.3266  0.2740
  149SAPE    C116360   3.727   0.646   6.994  0.4060  0.5684 -0.4358
  149SAPE    HA16361   3.692   0.742   6.950  1.5967  1.0864 -0.3098
  149SAPE    HB16362   3.838   0.659   6.991  0.7211 -1.7740 -0.4295
  149SAPE    C216363   3.690   0.523   6.898  0.3712  0.2333 -0.5660
  149SAPE    HS16364   3.587   0.488   6.919  0.0969  0.5482 -1.3570
  149SAPE   O2116365   3.793   0.432   6.917  0.2090 -0.1415 -0.1761
  149SAPE   C2116366   3.759   0.301   6.910 -0.0449  0.1750  0.2534
  149SAPE   O2216367   3.646   0.258   6.878 -0.0907 -0.1936 -0.0407
  149SAPE   C2216368   3.864   0.213   6.977 -0.4196 -0.0547 -0.5977
  149SAPE   H2R16369   3.942   0.272   7.030  1.4017 -0.6893 -2.4711
  149SAPE   H2S16370   3.817   0.141   7.048 -0.7332  1.3669  0.6972
  149SAPE    C316371   3.687   0.578   6.751  0.9342 -0.0534  0.2655
  149SAPE    HX16372   3.790   0.600   6.716  1.4321  0.0274  1.7280
  149SAPE    HY16373   3.623   0.668   6.741  0.1572 -0.3506  2.0992
  149SAPE   O3116374   3.621   0.483   6.663  0.7691 -0.0398 -0.0506
  149SAPE   C3116375   3.703   0.392   6.601 -0.3472 -0.4375  0.7113
  149SAPE   O3216376   3.825   0.385   6.620  0.2156 -0.3372  0.0435
  149SAPE   C3216377   3.616   0.307   6.509  0.2144  0.2551 -0.2972
  149SAPE   H2X16378   3.523   0.360   6.479 -0.5612  0.7038  2.5970
  149SAPE   H2Y16379   3.593   0.226   6.583  0.6998 -0.0259 -0.4494
  149SAPE   C2316380   3.940   0.135   6.871  0.7004  0.3325  0.2032
  149SAPE   H3R16381   4.021   0.084   6.928  0.2597 -0.0485  0.4950
  149SAPE   H3S16382   3.996   0.188   6.791  1.7022 -0.2988  0.4624
  149SAPE   C2416383   3.856   0.031   6.792 -0.2573  0.4671  0.6093
  149SAPE   H4R16384   3.803   0.080   6.707 -0.3725  1.8116  1.4310
  149SAPE   H4S16385   3.774  -0.010   6.853 -0.3517  0.0364  0.2019
  149SAPE   C2516386   3.937  -0.082   6.738 -0.2318 -0.2048 -0.5454
  149SAPE   H5R16387   3.960  -0.155   6.817  0.8942 -0.6144 -1.2355
  149SAPE   C2616388   3.980  -0.101   6.610  0.3454 -0.1216  0.5438
  149SAPE   H6R16389   4.045  -0.187   6.589 -0.3546 -0.6563  0.5724
  149SAPE   C2716390   3.963  -0.002   6.493  0.6506  0.0795  0.3489
  149SAPE   H7R16391   3.929   0.096   6.531  3.3028  1.2378 -0.0318
  149SAPE   H7S16392   3.879  -0.041   6.432  1.7974  0.4719 -1.5345
  149SAPE   C2816393   4.097   0.035   6.423  0.6674 -0.1819 -0.2086
  149SAPE   H8R16394   4.143   0.112   6.486 -1.7631 -0.0531  1.5735
  149SAPE   C2916395   4.158   0.001   6.307  0.5235 -0.2561  0.1761
  149SAPE   H9R16396   4.259   0.041   6.292  1.9727 -3.4979  0.5944
  149SAPE  C21016397   4.105  -0.096   6.207 -0.6026  0.2933  0.4158
  149SAPE  H10R16398   4.024  -0.153   6.259 -0.7928 -0.4650 -0.6781
  149SAPE  H10S16399   4.180  -0.169   6.170 -2.7253 -0.4363 -2.8251
  149SAPE  C21116400   4.035  -0.023   6.097 -0.1716 -0.0921  0.1182
  149SAPE  H11R16401   3.945   0.034   6.123 -0.1053  0.4039 -0.6882
  149SAPE  C21216402   4.070  -0.024   5.966  0.1858  0.1528  0.3308
  149SAPE  H12R16403   4.005   0.012   5.885  1.2963 -0.6239 -0.9517
  149SAPE  C21316404   4.189  -0.107   5.917  0.5590 -0.2030 -0.4515
  149SAPE  H13R16405   4.165  -0.209   5.881  2.8215 -0.6592 -0.7982
  149SAPE  H13S16406   4.271  -0.117   5.991 -0.8807 -2.4892  0.9785
  149SAPE  C21416407   4.247  -0.023   5.807  0.5976 -0.4928 -0.3834
  149SAPE  H14R16408   4.309   0.059   5.848  0.1616 -0.4399  0.1769
  149SAPE  C21516409   4.216  -0.031   5.676  0.6185  0.0807  0.3610
  149SAPE  H15R16410   4.265   0.038   5.606 -0.0098 -0.6144 -0.7965
  149SAPE  C21616411   4.107  -0.119   5.606 -0.3308  0.5736  0.2428
  149SAPE  H16R16412   4.067  -0.206   5.664  0.6222 -0.0807 -0.0602
  149SAPE  H16S16413   4.160  -0.155   5.516 -0.4304  3.4357 -1.0639
  149SAPE  C21716414   3.998  -0.037   5.533  0.1372 -0.1196 -0.0986
  149SAPE  H17R16415   4.051   0.046   5.481  2.7767 -2.1262 -0.8802
  149SAPE  H17S16416   3.923   0.007   5.603  1.1304 -0.8410  1.4974
  149SAPE  C21816417   3.926  -0.112   5.429  0.1760  0.6888  0.5691
  149SAPE  H18R16418   3.880  -0.204   5.471  0.5549  0.7699  1.1874
  149SAPE  H18S16419   3.995  -0.151   5.352 -0.5707  2.0042 -0.8080
  149SAPE  C21916420   3.823  -0.025   5.358 -0.8889 -0.4586 -0.7275
  149SAPE  H19R16421   3.749   0.009   5.434 -3.3552 -3.2064 -1.6979
  149SAPE  H19S16422   3.761  -0.107   5.316 -0.2908 -0.5276 -1.4710
  149SAPE  C22016423   3.870   0.068   5.235 -0.4245 -0.1123  0.1282
  149SAPE  H20R16424   3.790   0.105   5.168  1.1034  1.4895 -0.9120
  149SAPE  H20S16425   3.943   0.010   5.174  0.7881  1.7575 -0.2787
  149SAPE  H20T16426   3.913   0.163   5.274 -0.9665  0.0480  0.3504
  149SAPE   C3316427   3.690   0.252   6.380 -0.3958 -0.1079 -0.0267
  149SAPE   H3X16428   3.625   0.166   6.352 -2.0167  1.1802 -0.4077
  149SAPE   H3Y16429   3.792   0.222   6.412 -0.2933 -0.2532 -0.4778
  149SAPE   C3416430   3.696   0.372   6.275 -0.2979 -0.4175 -0.2776
  149SAPE   H4X16431   3.799   0.413   6.282  0.1797 -1.6945  0.4645
  149SAPE   H4Y16432   3.629   0.457   6.300 -0.5986 -1.2861  2.0214
  149SAPE   C3516433   3.676   0.342   6.126  0.0556  0.2912 -0.4714
  149SAPE   H5X16434   3.648   0.429   6.063 -0.5973  1.2424  1.0530
  149SAPE   H5Y16435   3.586   0.278   6.130  1.6740 -2.1212 -0.8268
  149SAPE   C3616436   3.786   0.260   6.060  0.1605  0.4074 -1.1243
  149SAPE   H6X16437   3.791   0.162   6.112  2.3933  1.1303  0.1587
  149SAPE   H6Y16438   3.887   0.308   6.062  0.7922 -0.8531 -1.5162
  149SAPE   C3716439   3.758   0.236   5.905 -0.1036 -0.6604  0.1862
  149SAPE   H7X16440   3.667   0.175   5.887  0.8951 -1.9239 -0.7188
  149SAPE   H7Y16441   3.839   0.169   5.869 -0.8062 -1.3097 -0.2069
  149SAPE   C3816442   3.782   0.358   5.819 -0.1256 -0.1051  1.3087
  149SAPE   H8X16443   3.883   0.399   5.836  0.4844 -0.1802 -1.5327
  149SAPE   H8Y16444   3.716   0.445   5.842  1.4714  1.2139  1.0722
  149SAPE   C3916445   3.759   0.333   5.669  0.2369 -0.1936 -0.3486
  149SAPE   H9X16446   3.813   0.243   5.633  0.7810 -0.1177  0.2520
  149SAPE   H9Y16447   3.805   0.418   5.615 -0.4278  0.0533 -0.5337
  149SAPE  C31016448   3.607   0.329   5.644 -0.1279  0.2828 -0.2791
  149SAPE  H10X16449   3.568   0.417   5.699 -0.5436  0.0412 -0.1774
  149SAPE  H10Y16450   3.570   0.236   5.693 -1.9788  0.3859 -1.3853
  149SAPE  C31116451   3.573   0.320   5.496 -0.3638  0.8053  0.4417
  149SAPE  H11X16452   3.464   0.301   5.488 -0.4425  1.4821 -0.1655
  149SAPE  H11Y16453   3.625   0.238   5.441 -2.5742 -0.7661  0.5715
  149SAPE  C31216454   3.604   0.446   5.416  0.1466 -0.5683  0.3933
  149SAPE  H12X16455   3.709   0.473   5.441 -0.1210  0.2047  0.7323
  149SAPE  H12Y16456   3.545   0.533   5.452  1.2824 -1.4227  4.8750
  149SAPE  C31316457   3.604   0.431   5.265 -0.3373  0.0228 -0.1239
  149SAPE  H13X16458   3.696   0.379   5.231  0.1972  1.6071 -1.2258
  149SAPE  H13Y16459   3.616   0.532   5.219  1.6760 -0.5692 -0.9796
  149SAPE  C31416460   3.485   0.371   5.194  0.3823  0.0183  0.2666
  149SAPE  H14X16461   3.463   0.280   5.252  0.5284 -0.5693 -0.5832
  149SAPE  H14Y16462   3.513   0.345   5.090 -0.2547 -0.2531  0.1644
  149SAPE  C31516463   3.362   0.460   5.194 -0.2383  0.4284 -0.2409
  149SAPE  H15X16464   3.338   0.496   5.296 -0.2428 -1.1475  0.3350
  149SAPE  H15Y16465   3.275   0.406   5.152  0.4502  1.0892 -2.7246
  149SAPE  C31616466   3.371   0.589   5.113  0.1319  0.8819  0.6550
  149SAPE  H16X16467   3.383   0.557   5.007 -1.3881  1.0623  0.3958
  149SAPE  H16Y16468   3.468   0.635   5.142  0.7137  0.3921 -0.4558
  149SAPE  C31716469   3.254   0.682   5.118  0.3975 -0.4744  0.3569
  149SAPE  H17X16470   3.273   0.748   5.031 -0.6571 -1.9924 -1.1174
  149SAPE  H17Y16471   3.247   0.753   5.202  0.7109  0.4611 -0.3861
  149SAPE  C31816472   3.109   0.616   5.094 -0.2977  0.6375 -0.7836
  149SAPE  H18X16473   3.045   0.697   5.052  1.9517  2.8153 -0.2093
  149SAPE  H18Y16474   3.063   0.571   5.185  0.7557 -0.6429 -0.8586
  149SAPE  H18Z16475   3.121   0.535   5.019 -0.8924 -2.0742  1.8358
  150SAPE     N16476   1.135   1.070   7.335  0.3055 -0.6107 -0.4574
  150SAPE   HN116477   1.104   1.007   7.412  2.2795  0.0823  0.9792
  150SAPE   HN216478   1.164   1.018   7.250  1.2710  0.7487 -1.0037
  150SAPE   HN316479   1.223   1.112   7.371 -0.6207  1.4204 -0.4115
  150SAPE   C1216480   1.023   1.171   7.319 -0.2080  0.6936  0.2201
  150SAPE  H12A16481   1.063   1.274   7.326 -0.2256  0.6685  0.6605
  150SAPE  H12B16482   0.946   1.153   7.396  0.3562 -0.4151  0.5516
  150SAPE   C1116483   0.972   1.164   7.178  0.2900  0.0885  1.1058
  150SAPE  H11A16484   1.051   1.194   7.106 -0.5901 -1.8490 -0.7812
  150SAPE  H11B16485   0.905   1.253   7.181  0.4329  0.2767 -0.4927
  150SAPE     P16486   0.753   1.024   7.124 -0.1183 -0.5017  0.0541
  150SAPE   O1316487   0.727   0.885   7.078  0.0986 -0.4118 -0.3180
  150SAPE   O1416488   0.701   1.072   7.253  0.2124  0.5671  0.5460
  150SAPE   O1216489   0.913   1.041   7.135  0.4765  0.0493  0.8292
  150SAPE   O1116490   0.714   1.128   7.014  0.2773 -0.0830 -0.3047
  150SAPE    C116491   0.574   1.139   6.979 -0.3208  0.4521  0.1854
  150SAPE    HA16492   0.506   1.093   7.054  1.2372 -1.3998  0.5501
  150SAPE    HB16493   0.549   1.247   6.985  2.2498  1.0328  3.4316
  150SAPE    C216494   0.547   1.097   6.831  0.5446  0.1498  0.4774
  150SAPE    HS16495   0.444   1.128   6.803  0.0930 -1.3591  0.3800
  150SAPE   O2116496   0.551   0.959   6.799 -0.0864  0.4344  0.4959
  150SAPE   C2116497   0.458   0.892   6.861 -0.4782  0.4654 -0.7935
  150SAPE   O2216498   0.363   0.938   6.929 -0.7360 -0.4603  0.6325
  150SAPE   C2216499   0.495   0.739   6.864 -0.2234  0.0842  0.1696
  150SAPE   H2R16500   0.557   0.715   6.775  0.7991  1.9006  0.3280
  150SAPE   H2S16501   0.550   0.736   6.960  0.3976 -1.8744 -0.2139
  150SAPE    C316502   0.638   1.176   6.731  0.6364  0.3777 -0.7009
  150SAPE    HX16503   0.742   1.153   6.764  1.1096  1.0946 -1.6487
  150SAPE    HY16504   0.633   1.285   6.754 -2.0269  0.2989 -0.6151
  150SAPE   O3116505   0.601   1.153   6.591 -0.7171 -0.0382  0.0921
  150SAPE   C3116506   0.489   1.223   6.552  0.1886  0.5188 -0.0347
  150SAPE   O3216507   0.443   1.312   6.620 -0.1378 -0.4447 -0.6012
  150SAPE   C3216508   0.432   1.172   6.412  0.0469 -0.6478  0.5943
  150SAPE   H2X16509   0.356   1.094   6.433 -0.9276  0.0227 -0.2534
  150SAPE   H2Y16510   0.519   1.130   6.358  1.3047  0.3554  1.7639
  150SAPE   C2316511   0.369   0.654   6.862 -0.9660 -0.1976  0.2812
  150SAPE   H3R16512   0.298   0.683   6.943  0.7464 -1.4166  2.3159
  150SAPE   H3S16513   0.389   0.551   6.897 -1.7940  0.0385  1.5236
  150SAPE   C2416514   0.295   0.664   6.727 -0.3787  0.0866 -0.2027
  150SAPE   H4R16515   0.298   0.771   6.696 -3.0108  0.6583  1.1852
  150SAPE   H4S16516   0.189   0.647   6.754  0.2474 -1.2187  1.6043
  150SAPE   C2516517   0.344   0.576   6.620 -0.9203 -0.0435 -0.0005
  150SAPE   H5R16518   0.401   0.484   6.639  0.8360  0.9984  0.0051
  150SAPE   C2616519   0.359   0.617   6.488 -0.2622  0.1402 -1.7436
  150SAPE   H6R16520   0.394   0.545   6.412 -0.1101  2.2277 -3.7602
  150SAPE   C2716521   0.315   0.752   6.430  0.7236 -0.8196 -0.3403
  150SAPE   H7R16522   0.394   0.801   6.368 -0.1973 -0.7705 -1.5173
  150SAPE   H7S16523   0.302   0.829   6.508  0.5985  0.4989 -1.6166
  150SAPE   C2816524   0.197   0.732   6.340  0.5724  0.5144  0.0075
  150SAPE   H8R16525   0.102   0.744   6.394 -0.2481 -0.4186 -1.1953
  150SAPE   C2916526   0.189   0.685   6.215 -0.1059 -0.2320  0.6108
  150SAPE   H9R16527   0.090   0.663   6.174  0.7057 -2.3443 -0.3145
  150SAPE  C21016528   0.304   0.642   6.119 -0.6903 -0.5074 -0.9541
  150SAPE  H10R16529   0.400   0.627   6.174 -0.9444  1.0148 -0.0291
  150SAPE  H10S16530   0.333   0.718   6.043  0.7254  0.5985  0.6142
  150SAPE  C21116531   0.271   0.525   6.032  0.2504 -0.6063  0.3890
  150SAPE  H11R16532   0.234   0.557   5.934  0.2967 -1.5631  0.0500
  150SAPE  C21216533   0.256   0.400   6.078  0.6079 -0.1804  0.2959
  150SAPE  H12R16534   0.232   0.319   6.009 -0.7796 -1.0375  1.7187
  150SAPE  C21316535   0.301   0.348   6.213  0.7261 -0.1350 -0.3505
  150SAPE  H13R16536   0.383   0.414   6.247  0.4675  0.4307 -0.8084
  150SAPE  H13S16537   0.348   0.250   6.189 -2.6662 -2.2189  0.8992
  150SAPE  C21416538   0.178   0.327   6.297  0.0536  0.7307 -0.2518
  150SAPE  H14R16539   0.082   0.370   6.265  1.3840  2.3950 -2.2982
  150SAPE  C21516540   0.169   0.247   6.404  0.5044  0.6176  0.6777
  150SAPE  H15R16541   0.068   0.237   6.445 -0.0617  0.2905 -0.7510
  150SAPE  C21616542   0.270   0.174   6.485  0.5196 -0.5268 -0.2195
  150SAPE  H16R16543   0.356   0.244   6.497 -0.6937  0.9180  0.4049
  150SAPE  H16S16544   0.294   0.077   6.437  1.5787 -1.4333  1.9977
  150SAPE  C21716545   0.206   0.133   6.621  0.8510 -0.5144 -0.7564
  150SAPE  H17R16546   0.276   0.056   6.661  0.2313 -0.3526  0.6831
  150SAPE  H17S16547   0.104   0.091   6.608  0.2993  0.8483 -0.9493
  150SAPE  C21816548   0.215   0.237   6.736  0.2622 -0.4328 -0.1665
  150SAPE  H18R16549   0.127   0.305   6.732 -0.4374 -1.3281 -0.3875
  150SAPE  H18S16550   0.308   0.293   6.712  1.2139 -0.8504  2.2167
  150SAPE  C21916551   0.222   0.174   6.876 -0.2241 -0.3624 -0.7086
  150SAPE  H19R16552   0.300   0.095   6.875 -0.9545 -1.1140 -1.4687
  150SAPE  H19S16553   0.128   0.118   6.897  0.7303 -1.5240  0.7457
  150SAPE  C22016554   0.251   0.263   6.996  0.4666  0.3191 -0.0821
  150SAPE  H20R16555   0.194   0.358   6.993 -1.0056 -0.5147 -2.7636
  150SAPE  H20S16556   0.360   0.284   7.003  0.3712  0.9590 -0.4534
  150SAPE  H20T16557   0.225   0.205   7.087  1.7173  0.2833  0.2687
  150SAPE   C3316558   0.379   1.288   6.320  0.4669  0.3682 -0.2386
  150SAPE   H3X16559   0.357   1.377   6.382 -4.7404 -0.8536  0.1429
  150SAPE   H3Y16560   0.280   1.262   6.276  0.7628  0.5412 -1.0322
  150SAPE   C3416561   0.474   1.328   6.211 -0.0488 -0.7183 -0.2406
  150SAPE   H4X16562   0.565   1.346   6.273  0.0975 -2.6297  0.1862
  150SAPE   H4Y16563   0.448   1.426   6.166 -0.3692 -1.2750 -1.3202
  150SAPE   C3516564   0.497   1.217   6.108  0.1378 -0.4293  0.2603
  150SAPE   H5X16565   0.568   1.139   6.143  0.6002 -0.9897 -1.8090
  150SAPE   H5Y16566   0.540   1.251   6.012  3.3149  0.4202  1.8460
  150SAPE   C3616567   0.361   1.149   6.072 -0.5912  0.2219 -0.6254
  150SAPE   H6X16568   0.280   1.224   6.054 -1.6441 -0.7377 -0.0440
  150SAPE   H6Y16569   0.321   1.093   6.160 -0.7502  1.1258 -0.1060
  150SAPE   C3716570   0.366   1.045   5.954  0.8227 -0.5203  0.4600
  150SAPE   H7X16571   0.449   0.972   5.955  0.8564 -0.4783  1.2355
  150SAPE   H7Y16572   0.380   1.106   5.861 -1.0766  1.4671  1.3866
  150SAPE   C3816573   0.237   0.977   5.936  0.2472 -0.2995  0.5698
  150SAPE   H8X16574   0.152   1.043   5.963  2.3038  2.5120  0.5142
  150SAPE   H8Y16575   0.224   0.898   6.013 -1.8896 -2.1594 -1.5427
  150SAPE   C3916576   0.224   0.898   5.800 -0.7261  0.0374  0.1597
  150SAPE   H9X16577   0.305   0.823   5.798 -1.3375 -0.6577  0.8345
  150SAPE   H9Y16578   0.237   0.977   5.723  1.9968 -0.5780 -0.0996
  150SAPE  C31016579   0.091   0.825   5.786 -0.1674 -0.6463 -0.7408
  150SAPE  H10X16580   0.018   0.905   5.811  0.5781  0.0395 -0.7367
  150SAPE  H10Y16581   0.074   0.745   5.862  1.1269  0.4631  0.8076
  150SAPE  C31116582   0.080   0.762   5.646 -0.4625 -0.5896 -0.5420
  150SAPE  H11X16583   0.097   0.830   5.560 -0.3892  2.1838  1.5299
  150SAPE  H11Y16584  -0.020   0.714   5.636  0.0397 -2.6430  2.8036
  150SAPE  C31216585   0.174   0.650   5.616 -0.0181  0.2591  0.1877
  150SAPE  H12X16586   0.182   0.568   5.690  0.2894  0.5397  0.4694
  150SAPE  H12Y16587   0.280   0.683   5.612  0.7571 -1.6561  2.5783
  150SAPE  C31316588   0.147   0.578   5.481  0.4459 -0.0083  0.0196
  150SAPE  H13X16589   0.119   0.657   5.409 -1.4603 -2.4528 -2.1251
  150SAPE  H13Y16590   0.063   0.507   5.495  0.8686 -0.2898  1.2010
  150SAPE  C31416591   0.269   0.504   5.431 -0.3873  0.1216 -0.1503
  150SAPE  H14X16592   0.356   0.573   5.432 -0.3366  0.0596  0.3868
  150SAPE  H14Y16593   0.246   0.482   5.325 -0.1745  1.5422 -0.5071
  150SAPE  C31516594   0.297   0.374   5.505 -0.1457 -0.4734 -0.1435
  150SAPE  H15X16595   0.322   0.289   5.438  0.3235 -1.7889  1.6394
  150SAPE  H15Y16596   0.201   0.337   5.547 -0.2276 -0.7041 -0.5293
  150SAPE  C31616597   0.397   0.393   5.616 -0.5273 -0.2997  0.0873
  150SAPE  H16X16598   0.388   0.481   5.683 -0.6166  0.2769 -0.6676
  150SAPE  H16Y16599   0.494   0.403   5.563 -0.4693 -2.2111 -0.2115
  150SAPE  C31716600   0.423   0.271   5.707 -0.1669 -0.6298 -0.3423
  150SAPE  H17X16601   0.449   0.192   5.633 -1.7745 -0.5622 -1.0227
  150SAPE  H17Y16602   0.331   0.217   5.740 -2.3162  0.2581 -4.1978
  150SAPE  C31816603   0.529   0.293   5.820  0.4994 -0.1618 -0.6800
  150SAPE  H18X16604   0.523   0.205   5.888 -1.9192  0.5510  0.1076
  150SAPE  H18Y16605   0.500   0.384   5.877 -1.4415  0.9746 -3.3073
  150SAPE  H18Z16606   0.631   0.317   5.783  0.9775 -0.5452  0.3304
  151SAPE     N16607   0.668   4.420   7.113 -0.3509 -0.5634 -1.1013
  151SAPE   HN116608   0.771   4.428   7.102 -0.1512 -1.2833  0.0478
  151SAPE   HN216609   0.641   4.323   7.140  1.9771 -0.6608  1.3973
  151SAPE   HN316610   0.625   4.429   7.019 -1.7251 -0.8847 -0.5168
  151SAPE   C1216611   0.620   4.528   7.210 -0.1952  0.4737  0.1329
  151SAPE  H12A16612   0.680   4.518   7.303 -0.9069  1.8219  0.7682
  151SAPE  H12B16613   0.512   4.510   7.229 -0.6183  0.7943 -1.7746
  151SAPE   C1116614   0.647   4.664   7.146  0.2816  0.6103 -0.8413
  151SAPE  H11A16615   0.613   4.674   7.041 -0.3085  0.2665 -0.6849
  151SAPE  H11B16616   0.758   4.670   7.150  0.2534  0.4704  1.1751
  151SAPE     P16617   0.563   4.917   7.191 -0.5264  0.0408 -0.4682
  151SAPE   O1316618   0.419   4.946   7.201 -0.4910 -0.3697 -0.1791
  151SAPE   O1416619   0.645   4.999   7.278  0.0441 -0.2523  0.1754
  151SAPE   O1216620   0.589   4.763   7.235  0.0546 -0.3314  0.4159
  151SAPE   O1116621   0.610   4.915   7.038  0.1853  0.5453 -0.1276
  151SAPE    C116622   0.568   5.031   6.961 -0.1966  0.3901  0.2882
  151SAPE    HA16623   0.570   5.125   7.020 -4.4996  0.8709 -0.0066
  151SAPE    HB16624   0.636   5.049   6.876 -0.1239  2.2297  0.7028
  151SAPE    C216625   0.422   5.019   6.912 -0.1084  0.1668 -0.4390
  151SAPE    HS16626   0.353   5.048   6.994  0.2720  0.9902 -0.4012
  151SAPE   O2116627   0.410   4.880   6.875 -0.0770 -0.0940  0.0918
  151SAPE   C2116628   0.289   4.843   6.871  0.7604  0.4274 -0.4701
  151SAPE   O2216629   0.186   4.917   6.887 -0.7664 -0.2644  0.0046
  151SAPE   C2216630   0.289   4.688   6.852 -0.5019  0.1777  0.1824
  151SAPE   H2R16631   0.355   4.654   6.935  2.7446  0.7271 -1.9773
  151SAPE   H2S16632   0.184   4.658   6.867 -0.4318  0.7211  1.9874
  151SAPE    C316633   0.393   5.120   6.792 -0.4369 -0.8309  0.2841
  151SAPE    HX16634   0.391   5.226   6.826  1.8527 -0.6022 -0.0992
  151SAPE    HY16635   0.290   5.097   6.760 -0.1673 -1.4667 -0.1507
  151SAPE   O3116636   0.493   5.105   6.690 -0.6098  0.1345  0.6123
  151SAPE   C3116637   0.452   5.141   6.570  0.2617 -0.5757  0.2855
  151SAPE   O3216638   0.336   5.181   6.543 -0.0352  0.2190  0.6836
  151SAPE   C3216639   0.570   5.122   6.470 -0.2868 -0.0217 -0.0240
  151SAPE   H2X16640   0.654   5.167   6.527 -2.3579  2.4303  1.3028
  151SAPE   H2Y16641   0.537   5.183   6.383  1.8893 -0.5200 -1.2706
  151SAPE   C2316642   0.354   4.628   6.725 -0.2153 -0.1519  0.1390
  151SAPE   H3R16643   0.369   4.518   6.732  0.2256 -0.0059  2.1043
  151SAPE   H3S16644   0.450   4.680   6.707 -1.0438  0.6222 -2.5516
  151SAPE   C2416645   0.265   4.649   6.597  0.3643  0.0382  0.2351
  151SAPE   H4R16646   0.256   4.759   6.592 -1.1753 -0.0918 -0.9752
  151SAPE   H4S16647   0.166   4.600   6.616  0.1841  0.0152 -0.7044
  151SAPE   C2516648   0.311   4.605   6.464 -0.4450 -0.1492  0.1057
  151SAPE   H5R16649   0.400   4.541   6.450 -0.6663  0.1302 -3.2698
  151SAPE   C2616650   0.265   4.647   6.346  0.6133  0.0547 -0.3735
  151SAPE   H6R16651   0.316   4.607   6.257  2.1909 -0.3919  0.6929
  151SAPE   C2716652   0.160   4.752   6.311 -0.6359  0.2425 -0.4059
  151SAPE   H7R16653   0.093   4.765   6.399  2.1656 -0.6524  2.0181
  151SAPE   H7S16654   0.091   4.714   6.233 -1.6034 -1.4360  1.1872
  151SAPE   C2816655   0.220   4.886   6.276  0.5703  0.2107  0.3637
  151SAPE   H8R16656   0.225   4.951   6.365  1.2694 -0.5711  0.9106
  151SAPE   C2916657   0.271   4.930   6.161  0.1638  0.3550  0.1557
  151SAPE   H9R16658   0.314   5.031   6.153  0.1506  0.5446  2.0874
  151SAPE  C21016659   0.267   4.848   6.031  0.0091 -0.1178 -0.0302
  151SAPE  H10R16660   0.241   4.742   6.048  3.0369 -0.9442  0.0033
  151SAPE  H10S16661   0.374   4.848   5.998 -0.0280  1.3469 -0.2257
  151SAPE  C21116662   0.178   4.919   5.936 -0.7589 -0.8371  1.3496
  151SAPE  H11R16663   0.093   4.976   5.975 -0.4668  0.3323  0.3280
  151SAPE  C21216664   0.194   4.909   5.802 -0.2756  0.6147  0.6102
  151SAPE  H12R16665   0.108   4.931   5.737 -1.9378 -2.5183  1.5136
  151SAPE  C21316666   0.312   4.832   5.732  0.3221 -0.0236 -0.1226
  151SAPE  H13R16667   0.296   4.827   5.623 -0.7119 -1.7021  0.0802
  151SAPE  H13S16668   0.303   4.728   5.771 -0.0361 -0.5832 -1.6455
  151SAPE  C21416669   0.453   4.876   5.742 -0.1895 -0.0856  0.0193
  151SAPE  H14R16670   0.466   4.967   5.803 -2.4310  0.5848 -0.4079
  151SAPE  C21516671   0.561   4.810   5.697  0.0446 -0.4794  0.2812
  151SAPE  H15R16672   0.665   4.848   5.698  1.2856 -3.5607 -0.6666
  151SAPE  C21616673   0.538   4.689   5.608  0.1198  0.0753  0.2862
  151SAPE  H16R16674   0.437   4.644   5.599  0.0410  0.6299 -2.7364
  151SAPE  H16S16675   0.594   4.609   5.661 -0.1694 -0.1449  0.2643
  151SAPE  C21716676   0.592   4.704   5.465 -0.4171  0.1447  0.3366
  151SAPE  H17R16677   0.610   4.598   5.437  0.3196 -0.0962  1.6454
  151SAPE  H17S16678   0.686   4.762   5.477 -0.4934  0.0791  1.3803
  151SAPE  C21816679   0.480   4.746   5.377 -0.2741  0.0506 -0.0925
  151SAPE  H18R16680   0.424   4.833   5.418 -1.5458 -0.9023  0.2640
  151SAPE  H18S16681   0.413   4.657   5.379  2.8707 -2.5071  1.9538
  151SAPE  C21916682   0.529   4.782   5.232  0.7445  0.1718 -0.3148
  151SAPE  H19R16683   0.560   4.683   5.191 -0.3151 -1.0355  1.6494
  151SAPE  H19S16684   0.617   4.849   5.227  1.6482 -0.9487  0.1206
  151SAPE  C22016685   0.407   4.833   5.149  0.0198 -0.3246  0.2133
  151SAPE  H20R16686   0.374   4.931   5.189 -0.2397  0.4748 -1.8512
  151SAPE  H20S16687   0.325   4.758   5.148  0.4967 -0.8713  0.7880
  151SAPE  H20T16688   0.438   4.850   5.044  0.4887 -1.6370  0.1175
  151SAPE   C3316689   0.588   4.975   6.430  0.0143  0.0829  0.3617
  151SAPE   H3X16690   0.498   4.931   6.382 -0.4379  0.6942  0.6299
  151SAPE   H3Y16691   0.609   4.921   6.525 -1.0652 -0.7289  0.1583
  151SAPE   C3416692   0.699   4.954   6.309  0.0590 -0.2802 -0.1572
  151SAPE   H4X16693   0.729   4.847   6.312  2.0649  0.2044 -0.9637
  151SAPE   H4Y16694   0.783   5.023   6.335  0.2447 -0.6865  0.3300
  151SAPE   C3516695   0.647   5.006   6.170 -0.2144 -0.7716 -0.3604
  151SAPE   H5X16696   0.562   5.074   6.193  0.2586  1.0532 -3.3826
  151SAPE   H5Y16697   0.594   4.929   6.109 -3.3129  1.4052 -0.6318
  151SAPE   C3616698   0.756   5.072   6.089 -0.3147 -0.5600  0.3231
  151SAPE   H6X16699   0.844   5.005   6.098 -1.2428 -1.6763  1.5198
  151SAPE   H6Y16700   0.778   5.174   6.126  0.9071 -0.0183 -1.7233
  151SAPE   C3716701   0.711   5.092   5.947  0.1996  0.1276  1.0037
  151SAPE   H7X16702   0.610   5.139   5.952  0.7324  1.5460 -0.5322
  151SAPE   H7Y16703   0.706   5.001   5.884  1.7598  1.6649 -1.4848
  151SAPE   C3816704   0.807   5.179   5.867 -0.6364  0.2246  0.2274
  151SAPE   H8X16705   0.906   5.130   5.852 -0.3375  0.3691  1.5874
  151SAPE   H8Y16706   0.825   5.272   5.925  2.1205 -1.0095  1.5167
  151SAPE   C3916707   0.742   5.198   5.730  0.1743  0.5287  0.5828
  151SAPE   H9X16708   0.641   5.244   5.738  0.4087  1.3275 -0.6653
  151SAPE   H9Y16709   0.726   5.095   5.691  0.4118  1.3676 -1.9351
  151SAPE  C31016710   0.825   5.272   5.623  0.6985  0.3226  0.2356
  151SAPE  H10X16711   0.916   5.211   5.604  0.2348  0.1423 -1.6366
  151SAPE  H10Y16712   0.854   5.373   5.659 -2.8561  0.5435  3.2091
  151SAPE  C31116713   0.751   5.278   5.486 -0.5617 -0.1783 -0.4589
  151SAPE  H11X16714   0.823   5.329   5.419  0.2820  0.4559  0.8778
  151SAPE  H11Y16715   0.658   5.339   5.485 -0.8568 -0.5707  0.9434
  151SAPE  C31216716   0.703   5.150   5.424 -0.3660  0.2261 -0.5346
  151SAPE  H12X16717   0.612   5.121   5.480  0.1916 -3.2335 -1.2269
  151SAPE  H12Y16718   0.780   5.071   5.437 -0.4855  0.4450  2.0172
  151SAPE  C31316719   0.671   5.158   5.272 -0.1223  0.0459 -0.3362
  151SAPE  H13X16720   0.607   5.071   5.247 -0.1031 -0.0359 -0.1062
  151SAPE  H13Y16721   0.767   5.167   5.216  0.9132  3.1562  1.6783
  151SAPE  C31416722   0.580   5.285   5.232 -0.9034 -0.1147 -0.2768
  151SAPE  H14X16723   0.631   5.383   5.229 -0.8488 -0.1523 -0.6377
  151SAPE  H14Y16724   0.500   5.293   5.308  0.7454 -1.6259  1.7376
  151SAPE  C31516725   0.510   5.286   5.093  0.0042 -0.0858  0.2469
  151SAPE  H15X16726   0.417   5.347   5.090 -0.5180 -0.9062 -1.6482
  151SAPE  H15Y16727   0.481   5.187   5.052 -1.3911  0.3941  0.0048
  151SAPE  C31616728   0.600   5.347   4.988 -0.1992  0.2724 -0.2206
  151SAPE  H16X16729   0.697   5.296   5.010 -0.0577  0.9180  0.7521
  151SAPE  H16Y16730   0.621   5.454   5.011  1.4899  0.0703 -0.6854
  151SAPE  C31716731   0.552   5.329   4.851  0.6952  0.8846  0.4184
  151SAPE  H17X16732   0.523   5.224   4.834  0.9457  0.8166  0.3992
  151SAPE  H17Y16733   0.639   5.350   4.785  0.6039  2.1354  0.6575
  151SAPE  C31816734   0.434   5.424   4.825  0.3531  0.8461 -0.3548
  151SAPE  H18X16735   0.397   5.421   4.721 -3.0008  0.1126  0.7426
  151SAPE  H18Y16736   0.475   5.526   4.844  1.6168  0.3301 -0.1835
  151SAPE  H18Z16737   0.347   5.394   4.887 -0.2484  0.5897 -1.3161
  152SAPE     N16738   2.734   0.078   7.494  0.2132  0.1881  0.2196
  152SAPE   HN116739   2.719   0.115   7.399  1.2660  0.0111 -0.0300
  152SAPE   HN216740   2.753   0.160   7.555 -2.3455  1.4125 -0.5009
  152SAPE   HN316741   2.815   0.012   7.494 -0.8911 -1.2240  0.4948
  152SAPE   C1216742   2.614   0.006   7.551  1.1739 -0.0504  0.2595
  152SAPE  H12A16743   2.652  -0.035   7.647  2.3398 -0.2000 -0.2515
  152SAPE  H12B16744   2.577  -0.061   7.471 -0.2020  0.6555  0.2534
  152SAPE   C1116745   2.511   0.118   7.577 -0.2866  0.0202 -0.2599
  152SAPE  H11A16746   2.563   0.209   7.612  0.6967 -1.2900  1.9118
  152SAPE  H11B16747   2.440   0.081   7.655  1.6999 -2.7793  0.3614
  152SAPE     P16748   2.324   0.262   7.452  0.6480  0.0118 -0.3964
  152SAPE   O1316749   2.241   0.233   7.574  0.2276  0.0752  0.5451
  152SAPE   O1416750   2.374   0.402   7.447 -0.5930 -0.1153 -0.3084
  152SAPE   O1216751   2.441   0.158   7.455  0.1797 -0.1617  0.0195
  152SAPE   O1116752   2.236   0.216   7.325 -0.0783  0.4183 -0.0422
  152SAPE    C116753   2.127   0.308   7.297 -0.9641  0.5881 -0.4243
  152SAPE    HA16754   2.059   0.316   7.385 -1.2377 -1.2533 -0.4312
  152SAPE    HB16755   2.171   0.406   7.267  3.0195 -0.4984  1.1770
  152SAPE    C216756   2.052   0.258   7.159 -0.1595  0.1606  0.2842
  152SAPE    HS16757   1.989   0.171   7.187  0.0827 -1.0774 -2.6962
  152SAPE   O2116758   2.143   0.214   7.050  1.2069  0.3970  0.1895
  152SAPE   C2116759   2.179   0.091   7.055  0.1877  0.4250  0.1947
  152SAPE   O2216760   2.146   0.007   7.139 -0.1382 -0.6767 -0.0748
  152SAPE   C2216761   2.270   0.057   6.936  0.5475 -0.1214  0.0004
  152SAPE   H2R16762   2.244   0.106   6.841  1.2821 -0.7145 -0.5221
  152SAPE   H2S16763   2.374   0.083   6.968  0.3106  0.1659  0.5504
  152SAPE    C316764   1.961   0.365   7.102  0.0841  0.0462  0.5688
  152SAPE    HX16765   2.020   0.458   7.093 -0.8591  0.7130  1.1109
  152SAPE    HY16766   1.881   0.376   7.179 -0.8562 -1.3429 -0.1733
  152SAPE   O3116767   1.909   0.314   6.980  0.0342  0.5598  0.2694
  152SAPE   C3116768   1.922   0.386   6.868  0.0880  0.0063 -0.3461
  152SAPE   O3216769   1.981   0.496   6.858  0.1995 -0.3237  0.1699
  152SAPE   C3216770   1.846   0.316   6.759 -0.2430  0.4357  0.8314
  152SAPE   H2X16771   1.742   0.294   6.793 -1.3216  0.3306 -2.1918
  152SAPE   H2Y16772   1.899   0.220   6.737  0.9397  0.8851  1.6407
  152SAPE   C2316773   2.278  -0.094   6.895  0.6349 -0.2730 -0.3696
  152SAPE   H3R16774   2.267  -0.152   6.989 -1.3986 -1.1808 -1.1091
  152SAPE   H3S16775   2.380  -0.121   6.860  1.8812 -0.7199  3.2047
  152SAPE   C2416776   2.162  -0.150   6.815  0.1400 -0.1778  0.2695
  152SAPE   H4R16777   2.067  -0.137   6.871 -0.1395 -2.9051  0.5478
  152SAPE   H4S16778   2.159  -0.259   6.792 -2.1715 -0.2051  0.4829
  152SAPE   C2516779   2.159  -0.074   6.686  1.7118  0.0733  0.3484
  152SAPE   H5R16780   2.257  -0.031   6.659  1.6631 -0.7778 -1.3175
  152SAPE   C2616781   2.054  -0.056   6.598  0.5514  0.6560 -0.8615
  152SAPE   H6R16782   2.071   0.000   6.505  2.3568  2.0445  0.2468
  152SAPE   C2716783   1.919  -0.119   6.601  0.1258  0.3564  0.1369
  152SAPE   H7R16784   1.897  -0.152   6.705  0.1302  0.6546  0.2348
  152SAPE   H7S16785   1.923  -0.213   6.541  1.3408  0.3072  0.2841
  152SAPE   C2816786   1.815  -0.027   6.543  0.6241 -0.7506  0.2972
  152SAPE   H8R16787   1.774   0.046   6.615  0.2693 -1.6173  0.9998
  152SAPE   C2916788   1.756  -0.042   6.424  0.5030 -0.3551 -0.1521
  152SAPE   H9R16789   1.673   0.029   6.408  0.1411 -1.0853 -1.7063
  152SAPE  C21016790   1.777  -0.141   6.302  0.6028 -0.2087 -0.3568
  152SAPE  H10R16791   1.844  -0.221   6.339  1.4120  1.0895  1.0411
  152SAPE  H10S16792   1.826  -0.099   6.211  2.1815  0.2702  0.6768
  152SAPE  C21116793   1.643  -0.209   6.270  0.1480 -0.4539 -0.2105
  152SAPE  H11R16794   1.600  -0.262   6.356 -0.2089  2.4814  1.5822
  152SAPE  C21216795   1.587  -0.224   6.145  0.2378 -0.6105 -0.2019
  152SAPE  H12R16796   1.491  -0.278   6.135  0.1559 -0.1261 -2.9716
  152SAPE  C21316797   1.642  -0.159   6.021 -0.7129 -0.5062  0.4118
  152SAPE  H13R16798   1.674  -0.061   6.063 -2.5835  0.7158 -0.8349
  152SAPE  H13S16799   1.553  -0.129   5.961 -0.7446  0.8178  1.0686
  152SAPE  C21416800   1.743  -0.211   5.930 -0.6576 -0.1059  0.2339
  152SAPE  H14R16801   1.830  -0.259   5.978 -0.3873 -0.3255 -0.4590
  152SAPE  C21516802   1.741  -0.227   5.797  0.5116  0.3927  0.7022
  152SAPE  H15R16803   1.839  -0.241   5.750  0.2364  1.2768 -0.1626
  152SAPE  C21616804   1.639  -0.178   5.692  0.0068 -0.2988 -0.8479
  152SAPE  H16R16805   1.673  -0.081   5.650 -1.0881 -0.2063 -1.5600
  152SAPE  H16S16806   1.543  -0.154   5.743 -0.1718 -0.9361 -0.8718
  152SAPE  C21716807   1.607  -0.273   5.578  0.8990 -0.6536 -0.5655
  152SAPE  H17R16808   1.589  -0.378   5.609 -2.5251 -0.2428 -0.8571
  152SAPE  H17S16809   1.706  -0.278   5.527  1.3070  0.6118  0.0666
  152SAPE  C21816810   1.507  -0.214   5.481  0.1942 -0.5225  0.1838
  152SAPE  H18R16811   1.537  -0.111   5.452  0.0258  0.0877  2.0447
  152SAPE  H18S16812   1.412  -0.204   5.538  0.7697  1.1019  0.9089
  152SAPE  C21916813   1.482  -0.301   5.358 -0.8831  0.9289  0.2673
  152SAPE  H19R16814   1.377  -0.290   5.324 -1.1595  0.2450  0.8699
  152SAPE  H19S16815   1.488  -0.407   5.393 -0.7742  0.9891  0.4343
  152SAPE  C22016816   1.595  -0.278   5.256 -0.4961  0.2545 -0.2023
  152SAPE  H20R16817   1.581  -0.334   5.161 -0.8692  0.3197 -0.1860
  152SAPE  H20S16818   1.691  -0.282   5.311 -0.5487 -0.6259 -0.1615
  152SAPE  H20T16819   1.596  -0.170   5.231  1.1760  0.1303 -0.8412
  152SAPE   C3316820   1.825   0.396   6.630  0.5088 -0.1013  0.1462
  152SAPE   H3X16821   1.850   0.332   6.544  0.2891 -0.4271  0.3247
  152SAPE   H3Y16822   1.899   0.478   6.618 -1.4957  2.3661  2.9633
  152SAPE   C3416823   1.679   0.433   6.592  0.3022 -0.7942 -0.0446
  152SAPE   H4X16824   1.625   0.504   6.659  0.1540 -0.3031 -0.6728
  152SAPE   H4Y16825   1.628   0.335   6.578  0.5207 -0.9066 -0.0444
  152SAPE   C3516826   1.667   0.498   6.447 -0.0246  0.2920 -0.9747
  152SAPE   H5X16827   1.559   0.500   6.421  0.2819 -1.4820 -2.5675
  152SAPE   H5Y16828   1.717   0.425   6.380  0.5290  0.2977 -0.5773
  152SAPE   C3616829   1.733   0.637   6.442  0.3570  0.0357  0.1525
  152SAPE   H6X16830   1.844   0.623   6.446  0.3500  0.2612  2.0180
  152SAPE   H6Y16831   1.703   0.688   6.536  2.1786 -1.0761  1.4121
  152SAPE   C3716832   1.694   0.717   6.316 -0.3424 -0.6497 -0.6997
  152SAPE   H7X16833   1.716   0.825   6.329 -1.0534 -0.5257 -0.5151
  152SAPE   H7Y16834   1.585   0.698   6.314 -0.2688 -1.5152  1.1530
  152SAPE   C3816835   1.759   0.664   6.192  0.1350  0.5173 -0.1179
  152SAPE   H8X16836   1.733   0.556   6.198 -1.2044  0.8959  1.4504
  152SAPE   H8Y16837   1.869   0.679   6.182 -0.1926  1.7702 -2.6164
  152SAPE   C3916838   1.703   0.723   6.066  0.4629  0.1106  0.1480
  152SAPE   H9X16839   1.718   0.833   6.064 -1.6301  0.5896  3.5701
  152SAPE   H9Y16840   1.596   0.706   6.088  0.3845 -0.9250 -0.9535
  152SAPE  C31016841   1.752   0.654   5.938  0.6774  0.4267  0.5510
  152SAPE  H10X16842   1.734   0.545   5.950 -3.9847  0.9801  0.4121
  152SAPE  H10Y16843   1.861   0.673   5.938  0.7783 -0.1138  1.1976
  152SAPE  C31116844   1.694   0.695   5.804  0.0964 -0.0584  0.1817
  152SAPE  H11X16845   1.739   0.796   5.790  4.0588 -1.8494 -1.2426
  152SAPE  H11Y16846   1.583   0.695   5.807  0.1089  0.1330  1.8683
  152SAPE  C31216847   1.748   0.609   5.696 -0.1500 -0.3975  0.6271
  152SAPE  H12X16848   1.718   0.504   5.718 -0.2236 -0.3785  0.6180
  152SAPE  H12Y16849   1.857   0.620   5.714 -0.3703 -0.7520  2.3300
  152SAPE  C31316850   1.713   0.660   5.554  0.1055 -0.1230  0.4326
  152SAPE  H13X16851   1.767   0.755   5.534  2.4828 -1.4167  0.3013
  152SAPE  H13Y16852   1.604   0.681   5.551 -0.0211 -0.7887 -0.0760
  152SAPE  C31416853   1.752   0.550   5.453  0.5366 -0.2578 -0.4672
  152SAPE  H14X16854   1.707   0.453   5.481  1.4682 -0.6642 -0.3608
  152SAPE  H14Y16855   1.861   0.531   5.456  0.3593 -1.4275 -0.8705
  152SAPE  C31516856   1.709   0.590   5.313 -0.4967  0.2528 -0.1016
  152SAPE  H15X16857   1.780   0.671   5.285 -1.8216  0.7197 -2.3603
  152SAPE  H15Y16858   1.605   0.628   5.302 -0.0769  1.1358 -1.3682
  152SAPE  C31616859   1.730   0.468   5.212 -0.0678  0.0048  0.6983
  152SAPE  H16X16860   1.822   0.410   5.238  0.1235 -0.6665 -1.3001
  152SAPE  H16Y16861   1.745   0.516   5.113 -2.3494  1.7886  1.1310
  152SAPE  C31716862   1.608   0.372   5.210 -0.4429 -0.2853  0.4915
  152SAPE  H17X16863   1.513   0.426   5.228  0.5451  1.2611  1.3520
  152SAPE  H17Y16864   1.630   0.299   5.291 -0.0813 -1.0250 -0.2618
  152SAPE  C31816865   1.604   0.288   5.083  0.7235  0.3836 -0.2623
  152SAPE  H18X16866   1.529   0.209   5.108 -0.2082  1.4043  0.2951
  152SAPE  H18Y16867   1.701   0.242   5.057  0.1060 -0.7653 -0.6137
  152SAPE  H18Z16868   1.564   0.333   4.989 -0.7056  0.0603  0.1678
  153SAPE     N16869   0.637   0.674   7.225 -0.2319 -0.3521  0.2058
  153SAPE   HN116870   0.547   0.649   7.181  0.6057 -0.0583 -1.7665
  153SAPE   HN216871   0.671   0.757   7.172 -0.3863 -1.8337 -2.3750
  153SAPE   HN316872   0.709   0.600   7.212  0.7070  0.6778 -0.6752
  153SAPE   C1216873   0.645   0.708   7.374  0.3383  0.1417  0.0113
  153SAPE  H12A16874   0.596   0.631   7.436 -3.0003  2.0419 -0.0051
  153SAPE  H12B16875   0.587   0.802   7.384 -0.1180 -0.0196 -1.0525
  153SAPE   C1116876   0.793   0.727   7.410 -0.0217 -0.1837  0.0092
  153SAPE  H11A16877   0.790   0.761   7.516 -2.0309 -1.6986  0.4994
  153SAPE  H11B16878   0.842   0.811   7.356  0.7148  0.0427  1.0106
  153SAPE     P16879   0.957   0.531   7.486 -0.1493 -0.1560 -0.4466
  153SAPE   O1316880   1.049   0.638   7.542 -0.1018 -0.4165  0.0970
  153SAPE   O1416881   0.898   0.433   7.582 -0.4393 -0.1860 -0.4093
  153SAPE   O1216882   0.854   0.604   7.389  0.4945  0.4659 -0.5514
  153SAPE   O1116883   1.036   0.440   7.380  0.1550 -0.3913  0.2010
  153SAPE    C116884   1.070   0.494   7.250  0.2442  0.3309 -0.4611
  153SAPE    HA16885   1.063   0.603   7.234 -2.1907  0.5031  1.2506
  153SAPE    HB16886   1.171   0.452   7.228  0.0438 -1.1455  1.1635
  153SAPE    C216887   0.989   0.414   7.147 -0.3042  0.4609  0.0408
  153SAPE    HS16888   0.885   0.423   7.187 -1.8063  0.6127 -3.5168
  153SAPE   O2116889   1.041   0.278   7.138  0.1591 -0.1893  0.3896
  153SAPE   C2116890   0.951   0.190   7.097 -0.4268 -0.2863 -0.0710
  153SAPE   O2216891   0.832   0.210   7.087  0.2043 -0.3367 -0.5619
  153SAPE   C2216892   1.023   0.055   7.063 -0.1978  0.1427  0.3114
  153SAPE   H2R16893   1.129   0.076   7.086 -0.3121 -0.0170  1.0122
  153SAPE   H2S16894   0.985  -0.029   7.124  1.1161  0.1404  1.1582
  153SAPE    C316895   1.002   0.490   7.016 -0.1136  0.8641 -0.3472
  153SAPE    HX16896   1.108   0.485   6.982  0.5770 -3.2309  1.6930
  153SAPE    HY16897   0.990   0.598   7.038  0.4265  0.6564  1.0605
  153SAPE   O3116898   0.919   0.438   6.908 -0.5722 -0.1898  0.0626
  153SAPE   C3116899   0.789   0.478   6.932 -0.6398  0.0443  0.2202
  153SAPE   O3216900   0.752   0.555   7.015  0.3689 -0.2214 -0.1473
  153SAPE   C3216901   0.687   0.401   6.846  0.2299  0.0056 -0.0529
  153SAPE   H2X16902   0.635   0.466   6.772 -2.4949 -2.2135 -0.2694
  153SAPE   H2Y16903   0.606   0.351   6.904 -0.2077  0.9000  0.1260
  153SAPE   C2316904   1.000   0.026   6.911 -0.9119  0.2984 -0.3762
  153SAPE   H3R16905   0.892   0.007   6.889 -0.6856  0.6548 -1.8685
  153SAPE   H3S16906   1.058  -0.065   6.887  0.8107  0.0817  3.7894
  153SAPE   C2416907   1.060   0.128   6.808 -0.4402  0.4952 -0.2329
  153SAPE   H4R16908   1.027   0.232   6.832 -1.7548  0.1426 -0.4087
  153SAPE   H4S16909   1.017   0.101   6.709  0.1979 -0.4577 -0.2590
  153SAPE   C2516910   1.213   0.139   6.812 -0.2810  0.4641 -0.6721
  153SAPE   H5R16911   1.264   0.136   6.909 -3.8844  2.0013  1.5178
  153SAPE   C2616912   1.285   0.165   6.699 -0.0654  0.7756  0.1235
  153SAPE   H6R16913   1.393   0.187   6.702 -0.3879  2.4196  0.7312
  153SAPE   C2716914   1.237   0.167   6.555  0.0720 -0.6642 -0.4001
  153SAPE   H7R16915   1.199   0.270   6.540  1.5975  0.0141  0.2596
  153SAPE   H7S16916   1.152   0.096   6.543  1.9221 -3.1712  0.5116
  153SAPE   C2816917   1.340   0.128   6.458 -0.4210  0.1400  0.3394
  153SAPE   H8R16918   1.390   0.034   6.486  0.3968  0.5547  0.3028
  153SAPE   C2916919   1.382   0.205   6.357  0.2043  0.5816 -0.0537
  153SAPE   H9R16920   1.458   0.159   6.293  0.6646 -0.0368  0.9192
  153SAPE  C21016921   1.337   0.345   6.310 -0.8642 -0.0852 -0.1230
  153SAPE  H10R16922   1.435   0.379   6.270  0.8592 -0.1693  3.6609
  153SAPE  H10S16923   1.318   0.418   6.391 -0.0941  0.9121 -0.8216
  153SAPE  C21116924   1.233   0.343   6.204 -0.2942  0.2233 -0.1340
  153SAPE  H11R16925   1.132   0.359   6.244 -1.5485 -0.2401 -2.8813
  153SAPE  C21216926   1.250   0.302   6.080  0.4015  0.0557 -0.2564
  153SAPE  H12R16927   1.166   0.316   6.011 -2.1042  0.4151  2.6234
  153SAPE  C21316928   1.379   0.256   6.021  0.2737  0.6108  0.2264
  153SAPE  H13R16929   1.356   0.190   5.934 -0.7052  3.3003 -1.7159
  153SAPE  H13S16930   1.442   0.196   6.089 -0.2201  0.1547  0.2794
  153SAPE  C21416931   1.457   0.371   5.961 -0.8041  0.0531  0.2007
  153SAPE  H14R16932   1.484   0.451   6.030 -2.8664  0.3601  0.7177
  153SAPE  C21516933   1.505   0.374   5.836 -0.2754 -0.0961  0.2300
  153SAPE  H15R16934   1.512   0.476   5.796 -3.0855 -0.2999 -1.0132
  153SAPE  C21616935   1.511   0.272   5.726 -0.0390 -0.1098 -0.2122
  153SAPE  H16R16936   1.526   0.174   5.777 -0.9285  0.6632  1.6182
  153SAPE  H16S16937   1.601   0.273   5.661 -1.2238  1.4807 -1.9291
  153SAPE  C21716938   1.382   0.257   5.637  0.6080 -0.3684 -0.4328
  153SAPE  H17R16939   1.289   0.297   5.681  1.1432 -0.4145  0.7825
  153SAPE  H17S16940   1.356   0.152   5.612  3.7484 -1.6310  1.0723
  153SAPE  C21816941   1.397   0.330   5.500  0.6401  0.3602 -0.9533
  153SAPE  H18R16942   1.375   0.263   5.414  1.0048 -0.9742 -0.0290
  153SAPE  H18S16943   1.506   0.352   5.491  0.7201  0.0199 -0.8341
  153SAPE  C21916944   1.307   0.455   5.482 -0.2596  0.3746  0.2201
  153SAPE  H19R16945   1.202   0.423   5.500 -0.2985  2.1953  4.1499
  153SAPE  H19S16946   1.330   0.492   5.380  0.6763  1.8054  0.9160
  153SAPE  C22016947   1.332   0.577   5.578 -0.4052 -0.1639  0.2700
  153SAPE  H20R16948   1.245   0.646   5.582 -1.3007 -1.3147  2.0362
  153SAPE  H20S16949   1.423   0.627   5.540 -0.4077 -0.8912 -0.7616
  153SAPE  H20T16950   1.347   0.543   5.683 -0.3285 -1.3207 -0.0973
  153SAPE   C3316951   0.765   0.280   6.767  0.1382  0.0543  0.9377
  153SAPE   H3X16952   0.796   0.211   6.848 -1.1966 -3.0897 -0.9942
  153SAPE   H3Y16953   0.851   0.328   6.717  0.1918 -0.2240  0.7549
  153SAPE   C3416954   0.659   0.210   6.666 -0.0172 -0.0293  0.1130
  153SAPE   H4X16955   0.594   0.289   6.621  1.2390  1.6513  1.1499
  153SAPE   H4Y16956   0.590   0.149   6.729 -0.6271  0.5005 -0.0240
  153SAPE   C3516957   0.724   0.138   6.549 -0.3296 -0.0478 -1.3736
  153SAPE   H5X16958   0.645   0.083   6.494 -0.7947 -1.6448  0.7875
  153SAPE   H5Y16959   0.806   0.073   6.585 -0.5106  0.8203  0.7679
  153SAPE   C3616960   0.776   0.239   6.447 -0.0678  0.0586 -0.2670
  153SAPE   H6X16961   0.868   0.192   6.408 -0.7722 -0.8418 -0.8939
  153SAPE   H6Y16962   0.803   0.334   6.497 -1.4259  1.0408 -1.3143
  153SAPE   C3716963   0.685   0.274   6.326  0.4277  0.3811  0.6920
  153SAPE   H7X16964   0.722   0.369   6.282 -0.1006  0.9198  1.3944
  153SAPE   H7Y16965   0.581   0.288   6.361 -0.1586  1.1272 -1.2351
  153SAPE   C3816966   0.672   0.160   6.223 -1.1224 -1.1071  0.7480
  153SAPE   H8X16967   0.584   0.184   6.160 -2.0698 -0.6570  2.1933
  153SAPE   H8Y16968   0.662   0.060   6.268  0.5553 -1.2666  0.8266
  153SAPE   C3916969   0.801   0.165   6.128  0.4034  0.5252 -0.0345
  153SAPE   H9X16970   0.881   0.121   6.190  1.3153  1.7466 -0.2977
  153SAPE   H9Y16971   0.830   0.267   6.094 -0.5317  0.5532 -0.8161
  153SAPE  C31016972   0.788   0.086   6.002  0.4231  0.1110  0.3858
  153SAPE  H10X16973   0.716   0.134   5.932 -0.3659 -1.5836 -0.0142
  153SAPE  H10Y16974   0.772  -0.019   6.033  0.8887 -0.1461 -0.2139
  153SAPE  C31116975   0.917   0.084   5.915  0.5598  0.0618 -0.4837
  153SAPE  H11X16976   1.010   0.057   5.970  2.0251  0.4385 -2.6553
  153SAPE  H11Y16977   0.939   0.192   5.904 -0.4994  0.3177 -0.1764
  153SAPE  C31216978   0.898   0.012   5.784  0.2376 -0.0607 -0.2370
  153SAPE  H12X16979   0.798   0.045   5.750 -0.8794  0.4711  3.1351
  153SAPE  H12Y16980   0.899  -0.098   5.800  2.8617 -0.0839 -0.0343
  153SAPE  C31316981   0.991   0.053   5.671 -0.1157 -0.5543  1.1779
  153SAPE  H13X16982   1.097   0.058   5.703  0.0856 -0.3853  0.4969
  153SAPE  H13Y16983   0.953   0.156   5.650 -0.2340 -0.8519 -0.1661
  153SAPE  C31416984   1.002  -0.040   5.550  0.6114  0.1833  0.1288
  153SAPE  H14X16985   0.900  -0.064   5.515  0.8455 -1.1923  0.2977
  153SAPE  H14Y16986   1.053  -0.137   5.573 -0.4299 -0.1399  1.1606
  153SAPE  C31516987   1.084   0.025   5.437  0.7368 -0.4950  0.1564
  153SAPE  H15X16988   1.190   0.025   5.468  1.4128  0.9725 -1.9470
  153SAPE  H15Y16989   1.050   0.131   5.435 -0.3273 -0.8054  1.0889
  153SAPE  C31616990   1.074  -0.045   5.307  0.4674 -0.2872 -0.1386
  153SAPE  H16X16991   1.058  -0.154   5.323 -1.6620 -0.1041 -0.8345
  153SAPE  H16Y16992   1.169  -0.031   5.251 -0.1075 -0.6200 -1.2221
  153SAPE  C31716993   0.954   0.006   5.228  0.2833 -0.3945  0.2091
  153SAPE  H17X16994   0.965   0.114   5.208 -1.9583 -0.1058  0.3024
  153SAPE  H17Y16995   0.863  -0.005   5.291 -0.4529  2.3188 -0.2527
  153SAPE  C31816996   0.927  -0.075   5.101  0.4713 -0.0585 -0.0371
  153SAPE  H18X16997   0.851  -0.021   5.042  2.0691  2.1554 -0.1619
  153SAPE  H18Y16998   0.893  -0.177   5.132  2.3099 -0.8367 -0.4370
  153SAPE  H18Z16999   1.020  -0.085   5.041  0.3226 -0.5567 -0.1902
  154SAPE     N17000   6.439   4.208   7.127 -0.2443 -0.8505 -0.3264
  154SAPE   HN117001   6.481   4.119   7.163  0.4169 -0.2799  0.3590
  154SAPE   HN217002   6.366   4.230   7.197  0.1183 -3.0041  0.8487
  154SAPE   HN317003   6.388   4.185   7.039  0.4443  0.3182 -1.0605
  154SAPE   C1217004   6.526   4.338   7.122 -0.0857 -0.3364  0.4417
  154SAPE  H12A17005   6.514   4.378   7.019  0.7474 -0.1247  0.4221
  154SAPE  H12B17006   6.634   4.315   7.132  0.0508  1.1089  3.1083
  154SAPE   C1117007   6.480   4.440   7.227 -0.0823  0.2275  0.1995
  154SAPE  H11A17008   6.561   4.514   7.246  0.6249 -0.2977 -0.6847
  154SAPE  H11B17009   6.484   4.387   7.324  0.3839  0.2170  0.1809
  154SAPE     P17010   6.218   4.435   7.274  0.3543  0.6722 -0.3137
  154SAPE   O1317011   6.220   4.285   7.254 -0.3182  0.4287  0.0752
  154SAPE   O1417012   6.210   4.487   7.409  0.0084  0.4933 -0.3117
  154SAPE   O1217013   6.346   4.488   7.198 -0.4266  0.0987  0.0536
  154SAPE   O1117014   6.100   4.491   7.189 -0.5992 -0.0891 -0.2198
  154SAPE    C117015   6.078   4.629   7.169  0.4029 -0.2656 -0.2791
  154SAPE    HA17016   5.985   4.646   7.228  0.1882 -1.4800 -0.2301
  154SAPE    HB17017   6.148   4.701   7.216 -0.2156  0.2200 -0.0862
  154SAPE    C217018   6.066   4.653   7.017 -0.3110  0.0166 -0.0036
  154SAPE    HS17019   6.042   4.762   7.009 -0.3449  0.0920  1.0375
  154SAPE   O2117020   5.960   4.573   6.961 -0.1737  0.1772 -0.3766
  154SAPE   C2117021   5.844   4.617   7.010 -0.2345  0.4669  0.0170
  154SAPE   O2217022   5.816   4.720   7.067  0.8526 -0.4325 -0.1210
  154SAPE   C2217023   5.741   4.511   6.969  0.6019 -0.2464  0.3776
  154SAPE   H2R17024   5.790   4.417   6.934  1.1411 -0.2230  1.0420
  154SAPE   H2S17025   5.667   4.496   7.051  0.7074  0.1020  0.5373
  154SAPE    C317026   6.198   4.621   6.935 -0.7680  0.1972  0.1393
  154SAPE    HX17027   6.212   4.511   6.938 -2.8574 -0.1044  0.9089
  154SAPE    HY17028   6.287   4.669   6.982 -0.2805 -0.0066 -0.5620
  154SAPE   O3117029   6.178   4.662   6.800  0.2620 -0.0892 -0.4266
  154SAPE   C3117030   6.214   4.774   6.761  0.0178 -0.3459  0.3954
  154SAPE   O3217031   6.287   4.850   6.825 -0.3313  0.8362 -0.3203
  154SAPE   C3217032   6.140   4.814   6.635 -1.1501 -0.3653 -0.5236
  154SAPE   H2X17033   6.037   4.854   6.650 -0.4327  1.9967 -1.3843
  154SAPE   H2Y17034   6.122   4.726   6.570 -0.4253 -0.8450 -0.0842
  154SAPE   C2317035   5.642   4.562   6.859 -0.4623  0.1698 -0.3309
  154SAPE   H3R17036   5.580   4.640   6.907  1.8790  1.3207  1.0306
  154SAPE   H3S17037   5.576   4.479   6.824 -2.5849  1.2519  0.9314
  154SAPE   C2417038   5.723   4.623   6.737 -0.2715 -0.1946 -0.2493
  154SAPE   H4R17039   5.788   4.707   6.771 -1.8050  0.0654  2.3242
  154SAPE   H4S17040   5.643   4.665   6.673  0.7964 -0.4491 -1.8156
  154SAPE   C2517041   5.808   4.522   6.666  0.2769  0.5551 -0.1180
  154SAPE   H5R17042   5.866   4.460   6.735 -2.6981  0.0794  2.1311
  154SAPE   C2617043   5.819   4.509   6.533  0.0222  0.3524  0.0635
  154SAPE   H6R17044   5.886   4.431   6.493 -3.4972 -2.4753 -0.8869
  154SAPE   C2717045   5.758   4.599   6.433  0.3063 -0.6911 -0.2168
  154SAPE   H7R17046   5.720   4.695   6.473 -0.1793 -0.4970 -1.1278
  154SAPE   H7S17047   5.671   4.546   6.389  1.0426  0.3283 -3.1198
  154SAPE   C2817048   5.859   4.626   6.314  0.1895 -0.1057 -0.2007
  154SAPE   H8R17049   5.908   4.724   6.322 -1.7335  0.8316  1.0537
  154SAPE   C2917050   5.880   4.548   6.206 -0.5446 -0.2957 -0.7864
  154SAPE   H9R17051   5.950   4.591   6.133  1.4729 -1.3923  0.4226
  154SAPE  C21017052   5.813   4.418   6.189  0.5480  0.2057  0.1217
  154SAPE  H10R17053   5.716   4.445   6.141  0.1946  1.3872  1.4458
  154SAPE  H10S17054   5.796   4.367   6.287  1.5569 -1.6362 -0.6097
  154SAPE  C21117055   5.894   4.335   6.092  0.0586  0.1798 -0.0360
  154SAPE  H11R17056   5.947   4.251   6.139 -0.5173 -0.5220 -0.6043
  154SAPE  C21217057   5.908   4.346   5.956  0.0933 -0.2546  0.3408
  154SAPE  H12R17058   5.976   4.283   5.897  1.0527  1.3983 -0.4013
  154SAPE  C21317059   5.839   4.464   5.888 -0.0247 -0.2294 -0.5728
  154SAPE  H13R17060   5.815   4.545   5.960  0.2235 -1.1565  0.6009
  154SAPE  H13S17061   5.740   4.431   5.851 -0.2578  1.5233 -1.6015
  154SAPE  C21417062   5.926   4.520   5.773  0.0519  0.0637  0.5057
  154SAPE  H14R17063   5.967   4.620   5.793  0.3221 -0.2118  1.4121
  154SAPE  C21517064   5.940   4.460   5.657  0.6127 -0.6705  0.1174
  154SAPE  H15R17065   5.995   4.503   5.572 -0.1118  0.1740  0.0612
  154SAPE  C21617066   5.880   4.333   5.616  0.2650  0.9912  0.6224
  154SAPE  H16R17067   5.800   4.301   5.686 -2.3962  1.1164 -2.1598
  154SAPE  H16S17068   5.968   4.266   5.620  0.1084  0.5951 -1.4811
  154SAPE  C21717069   5.832   4.309   5.473 -0.2284 -0.5476 -0.5925
  154SAPE  H17R17070   5.817   4.200   5.460  0.8692 -0.7840  0.0667
  154SAPE  H17S17071   5.920   4.324   5.407  0.3486 -2.5913 -0.3564
  154SAPE  C21817072   5.709   4.386   5.435 -0.2805 -0.3510 -0.3070
  154SAPE  H18R17073   5.717   4.492   5.469 -2.4813 -0.3294  0.3314
  154SAPE  H18S17074   5.626   4.348   5.498 -0.8166  1.7393  0.3562
  154SAPE  C21917075   5.658   4.381   5.292  0.6212 -0.6589 -0.6112
  154SAPE  H19R17076   5.581   4.460   5.282  2.1048  0.8561 -0.5193
  154SAPE  H19S17077   5.616   4.278   5.285 -1.1424 -0.1971  1.9355
  154SAPE  C22017078   5.765   4.409   5.190  0.1418 -0.1867 -0.3582
  154SAPE  H20R17079   5.717   4.406   5.090  1.1843  2.3706 -1.0298
  154SAPE  H20S17080   5.851   4.339   5.187 -1.8996 -2.8570 -2.6213
  154SAPE  H20T17081   5.805   4.512   5.199 -1.0953  0.2123  0.8606
  154SAPE   C3317082   6.224   4.920   6.550  0.3328  0.1258  0.0164
  154SAPE   H3X17083   6.330   4.890   6.536 -0.0772 -2.6028  2.0046
  154SAPE   H3Y17084   6.227   5.017   6.605 -0.9097  0.0146  0.3197
  154SAPE   C3417085   6.177   4.916   6.404  0.8708 -0.3695  0.2151
  154SAPE   H4X17086   6.074   4.957   6.394  0.7930 -0.1275  1.8419
  154SAPE   H4Y17087   6.167   4.809   6.375 -1.6251 -0.3382  0.6826
  154SAPE   C3517088   6.263   4.986   6.296 -0.0030  0.7254 -0.4435
  154SAPE   H5X17089   6.362   4.934   6.295 -1.4230 -2.1928 -1.3026
  154SAPE   H5Y17090   6.286   5.091   6.323  0.1847  0.8897 -1.2189
  154SAPE   C3617091   6.196   5.005   6.161  0.5551 -0.2526  0.0296
  154SAPE   H6X17092   6.273   5.055   6.098 -1.1640  0.4057 -1.6254
  154SAPE   H6Y17093   6.108   5.073   6.164  0.2289 -0.5665 -1.5874
  154SAPE   C3717094   6.148   4.878   6.089  0.2270 -0.4645  0.3510
  154SAPE   H7X17095   6.057   4.858   6.149 -0.5871 -0.1791 -0.7540
  154SAPE   H7Y17096   6.227   4.801   6.104  1.2311  0.7417  1.5738
  154SAPE   C3817097   6.108   4.903   5.944  0.2821 -0.2879 -0.2633
  154SAPE   H8X17098   6.019   4.970   5.942  0.2205 -0.3821 -0.8677
  154SAPE   H8Y17099   6.066   4.810   5.900 -3.6141  1.1955 -0.0234
  154SAPE   C3917100   6.219   4.967   5.863  0.1584 -0.0165  0.0113
  154SAPE   H9X17101   6.302   4.892   5.865 -0.6255 -0.8889  1.1465
  154SAPE   H9Y17102   6.250   5.064   5.907  1.2267 -1.3590  2.4488
  154SAPE  C31017103   6.174   4.978   5.716 -0.3389  0.3191 -0.8599
  154SAPE  H10X17104   6.114   4.888   5.689 -3.4207  1.9587  0.0194
  154SAPE  H10Y17105   6.269   4.971   5.660  0.0050  1.4147 -0.4322
  154SAPE  C31117106   6.081   5.094   5.681  0.0918  0.2785  0.7948
  154SAPE  H11X17107   6.113   5.181   5.742  3.6738  0.6333 -1.3004
  154SAPE  H11Y17108   5.976   5.063   5.702  0.1761 -0.4070  0.2413
  154SAPE  C31217109   6.092   5.115   5.528  0.5360  0.0014 -0.7603
  154SAPE  H12X17110   6.199   5.122   5.499  1.2891 -1.4513  1.4084
  154SAPE  H12Y17111   6.048   5.216   5.512  0.2972 -0.0874 -0.6657
  154SAPE  C31317112   6.020   5.007   5.439  0.4523  0.2974  0.1501
  154SAPE  H13X17113   5.918   4.984   5.474  0.2168  2.3231  0.9533
  154SAPE  H13Y17114   6.083   4.916   5.447 -0.8921 -0.6234  0.4976
  154SAPE  C31417115   6.022   5.057   5.289  0.2943  0.4367 -0.0200
  154SAPE  H14X17116   6.130   5.062   5.262  0.3306 -0.3306 -0.0427
  154SAPE  H14Y17117   5.973   5.155   5.272 -0.9856 -0.1147  0.4077
  154SAPE  C31517118   5.969   4.952   5.193  0.6674 -0.7711 -0.4276
  154SAPE  H15X17119   5.873   4.923   5.241  1.3371  0.0091  1.5186
  154SAPE  H15Y17120   6.035   4.864   5.196 -0.6154 -1.8157 -1.4998
  154SAPE  C31617121   5.939   5.004   5.057 -0.0727 -0.3995 -0.0928
  154SAPE  H16X17122   5.902   5.109   5.068 -1.7035 -0.8751 -0.7814
  154SAPE  H16Y17123   5.861   4.949   5.001 -1.5905  1.0938  0.4474
  154SAPE  C31717124   6.059   4.998   4.965  0.6250  0.5302  0.4569
  154SAPE  H17X17125   6.063   4.890   4.939  1.4118  0.9696 -1.4540
  154SAPE  H17Y17126   6.154   5.023   5.018 -0.0123 -0.1653  1.9719
  154SAPE  C31817127   6.038   5.065   4.830 -0.0137  0.0271 -0.1123
  154SAPE  H18X17128   6.143   5.069   4.792 -0.4475  1.2295 -1.2739
  154SAPE  H18Y17129   6.006   5.171   4.830 -0.0607  0.0131 -0.1787
  154SAPE  H18Z17130   5.969   5.002   4.770  0.2109 -1.0837  0.7538
  155SAPE     N17131   0.953   6.368   7.414  0.1270  0.0611  0.0980
  155SAPE   HN117132   1.037   6.315   7.384  1.7169  1.0711  2.4387
  155SAPE   HN217133   0.983   6.453   7.466 -1.6927  0.7905  0.0424
  155SAPE   HN317134   0.904   6.314   7.488  0.6874 -0.8334 -0.1745
  155SAPE   C1217135   0.852   6.395   7.307 -0.6708 -0.0623 -1.0317
  155SAPE  H12A17136   0.897   6.466   7.234 -2.6343  2.0569 -0.2991
  155SAPE  H12B17137   0.758   6.444   7.339 -0.0778 -0.4432  1.5133
  155SAPE   C1117138   0.795   6.265   7.241 -0.1286  0.1572  0.8444
  155SAPE  H11A17139   0.878   6.195   7.218 -0.3491  0.7339 -1.9972
  155SAPE  H11B17140   0.755   6.289   7.140  0.7597 -1.4458  0.0666
  155SAPE     P17141   0.552   6.184   7.307  0.3435 -0.0997  0.0822
  155SAPE   O1317142   0.492   6.177   7.445 -0.4986 -0.0382 -0.6696
  155SAPE   O1417143   0.496   6.284   7.217 -0.8704  0.4197  0.9330
  155SAPE   O1217144   0.708   6.192   7.323  0.5530 -0.3928 -0.4091
  155SAPE   O1117145   0.528   6.038   7.245  0.2230 -0.0053 -0.0748
  155SAPE    C117146   0.388   6.012   7.213 -0.0780  0.1124 -0.1646
  155SAPE    HA17147   0.366   5.917   7.267  0.2546 -0.0650 -0.3319
  155SAPE    HB17148   0.307   6.082   7.243  0.2808  0.8250 -0.8111
  155SAPE    C217149   0.377   5.983   7.059 -0.0113  0.1971  0.1727
  155SAPE    HS17150   0.444   5.898   7.032 -0.5675 -0.1387 -0.1784
  155SAPE   O2117151   0.401   6.107   6.986  0.0960  0.2050  0.8923
  155SAPE   C2117152   0.517   6.104   6.928  0.6890 -0.6846  0.0158
  155SAPE   O2217153   0.601   6.021   6.952  0.2668 -0.4534 -0.7170
  155SAPE   C2217154   0.527   6.214   6.819  0.2051 -0.1505 -0.0767
  155SAPE   H2R17155   0.498   6.310   6.866 -1.9633 -0.8751  0.1554
  155SAPE   H2S17156   0.637   6.216   6.804  0.7736  0.3971  3.3862
  155SAPE    C317157   0.240   5.929   7.026  0.6396 -0.0062  0.6560
  155SAPE    HX17158   0.165   6.009   7.042  2.6518  2.2285 -0.4443
  155SAPE    HY17159   0.217   5.842   7.091  0.9449  1.6340  3.0826
  155SAPE   O3117160   0.245   5.886   6.887  0.1179 -0.1555  0.3747
  155SAPE   C3117161   0.118   5.862   6.837 -0.1903 -0.5713 -0.3900
  155SAPE   O3217162   0.019   5.883   6.905 -0.1217  0.2526 -0.0271
  155SAPE   C3217163   0.138   5.813   6.689 -0.3219 -0.5504 -0.4272
  155SAPE   H2X17164   0.103   5.708   6.681  2.9918 -1.6622 -2.5654
  155SAPE   H2Y17165   0.247   5.809   6.668 -0.4772 -1.9866 -1.0342
  155SAPE   C2317166   0.453   6.167   6.694  0.7967 -0.0796  0.1277
  155SAPE   H3R17167   0.420   6.247   6.624 -0.8576 -1.2310 -0.4553
  155SAPE   H3S17168   0.358   6.118   6.724 -0.5474  1.2346 -1.7311
  155SAPE   C2417169   0.538   6.070   6.607 -0.0560  0.5340  0.3033
  155SAPE   H4R17170   0.554   5.989   6.681 -3.3532 -0.9396 -0.4386
  155SAPE   H4S17171   0.626   6.132   6.578  0.1375 -0.7527 -2.1264
  155SAPE   C2517172   0.467   6.011   6.482 -0.0911 -0.4037  0.8998
  155SAPE   H5R17173   0.368   5.967   6.505  0.2128 -2.1415 -0.8949
  155SAPE   C2617174   0.493   6.027   6.345 -0.6068 -0.2187 -0.9244
  155SAPE   H6R17175   0.428   5.970   6.277 -1.0297 -0.2076 -0.5303
  155SAPE   C2717176   0.616   6.096   6.286 -0.0800 -0.2154 -1.0004
  155SAPE   H7R17177   0.677   6.025   6.225 -0.1004  1.0552 -2.5504
  155SAPE   H7S17178   0.674   6.144   6.368  0.8284  1.4838 -2.5533
  155SAPE   C2817179   0.591   6.208   6.190  0.2252  0.1984 -0.5312
  155SAPE   H8R17180   0.623   6.307   6.226 -0.0490  0.5944 -1.3370
  155SAPE   C2917181   0.519   6.199   6.073 -0.1839  0.0661  0.6113
  155SAPE   H9R17182   0.487   6.292   6.022  1.9218  0.8798  0.6614
  155SAPE  C21017183   0.458   6.082   6.004 -0.2068 -0.1670  0.5653
  155SAPE  H10R17184   0.358   6.107   5.963  0.7084  0.1116 -1.6647
  155SAPE  H10S17185   0.436   5.998   6.073 -1.0670 -2.2533 -2.0803
  155SAPE  C21117186   0.564   6.022   5.906  0.6745  0.0077  0.7267
  155SAPE  H11R17187   0.637   5.953   5.950  0.0359 -0.7592  0.5986
  155SAPE  C21217188   0.575   6.043   5.774  0.5441 -0.6372  0.5894
  155SAPE  H12R17189   0.650   5.988   5.715  0.7660 -0.1216  0.3843
  155SAPE  C21317190   0.469   6.124   5.701 -0.4055  0.2552 -0.3065
  155SAPE  H13R17191   0.445   6.222   5.748 -1.8584  0.1978 -0.8858
  155SAPE  H13S17192   0.373   6.070   5.714 -0.8369  1.3495  1.3908
  155SAPE  C21417193   0.511   6.143   5.560  0.4452  0.0056 -0.7411
  155SAPE  H14R17194   0.601   6.203   5.541  1.0467 -1.0930 -1.4439
  155SAPE  C21517195   0.443   6.096   5.452  0.5610 -0.2916  0.7526
  155SAPE  H15R17196   0.471   6.139   5.354 -0.5224  1.1913  1.0660
  155SAPE  C21617197   0.315   6.022   5.456 -0.3921  0.5572 -0.2691
  155SAPE  H16R17198   0.248   6.061   5.376  1.9253 -0.0834 -2.6574
  155SAPE  H16S17199   0.267   6.022   5.556  1.1180 -0.3466  0.4871
  155SAPE  C21717200   0.345   5.882   5.415  0.2060 -0.0672 -0.0461
  155SAPE  H17R17201   0.261   5.821   5.453  0.2304  0.0650  0.2203
  155SAPE  H17S17202   0.436   5.842   5.465  0.6856 -0.8172 -1.4702
  155SAPE  C21817203   0.369   5.850   5.265  0.2901 -0.0338  0.3740
  155SAPE  H18R17204   0.471   5.886   5.238 -0.3600  0.1275 -2.1167
  155SAPE  H18S17205   0.295   5.906   5.204  0.2108  0.1007  0.5921
  155SAPE  C21917206   0.359   5.701   5.247 -0.4113  0.4669 -0.0357
  155SAPE  H19R17207   0.268   5.660   5.296  0.7635 -0.1904  1.7232
  155SAPE  H19S17208   0.440   5.650   5.304 -0.0797 -0.6892 -1.4795
  155SAPE  C22017209   0.353   5.644   5.105  0.1946 -0.0642  0.1165
  155SAPE  H20R17210   0.288   5.713   5.046  0.3543  0.0036  0.0200
  155SAPE  H20S17211   0.308   5.543   5.106  1.7580 -0.8465  3.3152
  155SAPE  H20T17212   0.455   5.635   5.061 -0.7607  2.2754 -2.9512
  155SAPE   C3317213   0.064   5.910   6.588 -0.0264 -0.6770 -0.3146
  155SAPE   H3X17214   0.103   6.014   6.597 -0.2395 -0.6653  0.6392
  155SAPE   H3Y17215  -0.043   5.915   6.620 -0.4424 -0.9973 -1.5930
  155SAPE   C3417216   0.072   5.866   6.447 -0.4053  0.0460 -0.3848
  155SAPE   H4X17217  -0.021   5.813   6.418  0.9792 -2.5606 -0.3040
  155SAPE   H4Y17218   0.144   5.782   6.435  0.0077  0.1611  1.0556
  155SAPE   C3517219   0.100   5.978   6.346  0.0241 -0.2197 -0.2952
  155SAPE   H5X17220   0.191   6.026   6.388  0.0346 -0.6174  0.1476
  155SAPE   H5Y17221   0.020   6.055   6.355  0.2352 -0.2168  2.9670
  155SAPE   C3617222   0.125   5.921   6.209 -0.0403 -0.8173  0.9959
  155SAPE   H6X17223   0.191   5.832   6.220  1.3824 -0.5476 -3.4847
  155SAPE   H6Y17224   0.182   6.001   6.157  2.1884 -1.4656  2.3111
  155SAPE   C3717225  -0.003   5.887   6.131 -0.3182 -0.0691  0.0681
  155SAPE   H7X17226  -0.075   5.967   6.157 -1.4953 -0.8094 -0.7832
  155SAPE   H7Y17227  -0.049   5.787   6.147  0.1302 -0.1847  0.6617
  155SAPE   C3817228   0.026   5.886   5.982  0.3834  0.1166 -0.1135
  155SAPE   H8X17229   0.033   5.990   5.945 -1.7297  0.8081  1.2440
  155SAPE   H8Y17230  -0.067   5.855   5.929  0.3450  0.5001 -0.2715
  155SAPE   C3917231   0.142   5.795   5.934 -0.0883  0.8922 -0.7294
  155SAPE   H9X17232   0.130   5.688   5.960  0.7904 -0.1997 -4.2590
  155SAPE   H9Y17233   0.243   5.828   5.965 -0.0532 -1.4365  2.0578
  155SAPE  C31017234   0.128   5.792   5.781  0.7341  0.5167  0.3050
  155SAPE  H10X17235   0.216   5.758   5.722  1.6330  0.9108  1.3628
  155SAPE  H10Y17236   0.105   5.897   5.752 -0.1115 -0.2261 -1.8594
  155SAPE  C31117237   0.017   5.703   5.723  0.6525 -0.1065 -0.4206
  155SAPE  H11X17238  -0.085   5.739   5.749  0.6371  0.5207 -1.3184
  155SAPE  H11Y17239   0.026   5.598   5.757  0.7417 -1.2362 -3.6434
  155SAPE  C31217240   0.034   5.693   5.566  0.3463  0.0978 -0.3353
  155SAPE  H12X17241  -0.013   5.598   5.533  1.7646 -0.2504 -1.4624
  155SAPE  H12Y17242   0.138   5.680   5.529  0.0377  0.7915 -1.5011
  155SAPE  C31317243  -0.037   5.806   5.484  0.4174  0.1281  0.2478
  155SAPE  H13X17244   0.023   5.895   5.512 -0.5035  0.5724  0.8608
  155SAPE  H13Y17245  -0.135   5.828   5.532 -0.3418  0.6168 -1.4403
  155SAPE  C31417246  -0.042   5.784   5.339  0.2943  0.3633  0.2305
  155SAPE  H14X17247  -0.107   5.700   5.305  2.4519 -0.1967 -2.9726
  155SAPE  H14Y17248   0.058   5.766   5.295 -0.4633 -1.4828 -0.8799
  155SAPE  C31517249  -0.082   5.911   5.259  0.1852 -0.2612 -0.0978
  155SAPE  H15X17250  -0.034   6.001   5.304 -0.2858  1.1210 -2.2526
  155SAPE  H15Y17251  -0.191   5.927   5.267  0.3497  1.1560 -0.4223
  155SAPE  C31617252  -0.065   5.904   5.105  0.3457  0.2145  0.4283
  155SAPE  H16X17253   0.043   5.904   5.081 -0.2625 -1.4255 -2.8684
  155SAPE  H16Y17254  -0.108   6.002   5.073 -0.2141  0.1640  0.9954
  155SAPE  C31717255  -0.125   5.781   5.039 -0.2523  0.0082  0.1406
  155SAPE  H17X17256  -0.211   5.735   5.092 -0.6735 -1.0748 -1.3902
  155SAPE  H17Y17257  -0.057   5.697   5.068  0.1262  0.3975  0.3804
  155SAPE  C31817258  -0.131   5.781   4.886  0.3486  0.5750 -0.1740
  155SAPE  H18X17259  -0.120   5.673   4.863  0.5251  0.4964  0.2695
  155SAPE  H18Y17260  -0.055   5.847   4.840 -0.2836  1.3249 -0.1646
  155SAPE  H18Z17261  -0.226   5.820   4.842 -0.2870 -0.4937  0.1905
  156SAPE     N17262   1.725   0.270   7.621 -0.5231  0.5446 -0.6824
  156SAPE   HN117263   1.758   0.283   7.719  0.5636  0.5431 -1.0354
  156SAPE   HN217264   1.803   0.223   7.571  1.1638  2.6906 -0.2525
  156SAPE   HN317265   1.721   0.370   7.592 -0.9842  0.4698 -0.8763
  156SAPE   C1217266   1.594   0.188   7.625  0.3077  0.3027  0.8596
  156SAPE  H12A17267   1.518   0.264   7.649  1.5485  2.4096 -1.4670
  156SAPE  H12B17268   1.598   0.131   7.721 -1.2413  2.7284  2.4695
  156SAPE   C1117269   1.571   0.111   7.498  0.1334  0.5699 -1.0110
  156SAPE  H11A17270   1.548   0.189   7.423 -0.2678  2.0227  0.5648
  156SAPE  H11B17271   1.476   0.055   7.514 -0.5774  2.1617  0.7090
  156SAPE     P17272   1.666  -0.111   7.402 -0.0648  0.1738  0.1191
  156SAPE   O1317273   1.796  -0.185   7.407 -0.1361 -0.6546 -0.2641
  156SAPE   O1417274   1.553  -0.183   7.465 -0.1022  0.0802  0.0341
  156SAPE   O1217275   1.685   0.029   7.471 -0.1905 -0.2505  0.6038
  156SAPE   O1117276   1.635  -0.081   7.258 -0.0862 -0.0369  0.1330
  156SAPE    C117277   1.722  -0.015   7.163  0.0978 -0.1561 -0.2756
  156SAPE    HA17278   1.671   0.074   7.121 -1.3458 -0.5140  0.6766
  156SAPE    HB17279   1.816   0.021   7.211  0.8221 -0.8865 -1.0817
  156SAPE    C217280   1.749  -0.114   7.043  0.4687  0.0316  0.3156
  156SAPE    HS17281   1.810  -0.056   6.970 -0.6310  0.7788 -0.0375
  156SAPE   O2117282   1.627  -0.166   6.994  0.3203 -0.4944  0.0850
  156SAPE   C2117283   1.566  -0.095   6.905  0.2883  0.4017  0.3690
  156SAPE   O2217284   1.600   0.011   6.858 -0.7039  0.8117  0.2714
  156SAPE   C2217285   1.455  -0.175   6.843  0.4658 -0.2529 -0.6989
  156SAPE   H2R17286   1.434  -0.257   6.915 -0.2909 -1.0620 -1.8102
  156SAPE   H2S17287   1.367  -0.109   6.832  1.6342  1.3993 -0.4926
  156SAPE    C317288   1.836  -0.236   7.087  0.8050 -0.5389  0.5677
  156SAPE    HX17289   1.767  -0.306   7.138  0.8055  0.1006  1.4563
  156SAPE    HY17290   1.903  -0.208   7.171  0.0049 -1.1102  1.4151
  156SAPE   O3117291   1.906  -0.300   6.982  0.2342 -0.6817 -0.3400
  156SAPE   C3117292   1.844  -0.404   6.921 -0.3115  0.1546  0.8305
  156SAPE   O3217293   1.733  -0.451   6.955 -0.5397 -0.4170 -0.1179
  156SAPE   C3217294   1.928  -0.448   6.805 -0.4380 -0.2785 -0.1600
  156SAPE   H2X17295   2.006  -0.514   6.848  0.2270 -0.9764 -2.2928
  156SAPE   H2Y17296   1.977  -0.355   6.766 -3.2097  1.3196 -0.0917
  156SAPE   C2317297   1.508  -0.242   6.714  0.0748 -1.2092  0.0747
  156SAPE   H3R17298   1.602  -0.300   6.727  0.4079 -0.5799  0.5476
  156SAPE   H3S17299   1.522  -0.154   6.648  2.5688 -2.1326 -0.7515
  156SAPE   C2417300   1.393  -0.319   6.648 -0.8500  0.1666  0.1114
  156SAPE   H4R17301   1.426  -0.351   6.547  0.6947  1.0302  0.3138
  156SAPE   H4S17302   1.307  -0.251   6.628  0.7434  1.5469 -2.6479
  156SAPE   C2517303   1.336  -0.439   6.724 -0.2745 -0.5051 -0.1382
  156SAPE   H5R17304   1.415  -0.501   6.769  1.3428  0.5573 -1.3901
  156SAPE   C2617305   1.203  -0.463   6.757 -0.2146  0.6980  0.5127
  156SAPE   H6R17306   1.174  -0.554   6.812  0.8459  1.3628  2.2668
  156SAPE   C2717307   1.091  -0.366   6.716 -0.2220  0.3145  0.1955
  156SAPE   H7R17308   1.113  -0.331   6.613  0.9300 -1.0499 -0.0515
  156SAPE   H7S17309   1.092  -0.281   6.787 -1.6815 -0.4044  1.1300
  156SAPE   C2817310   0.946  -0.419   6.724 -0.2298 -0.0696 -0.2572
  156SAPE   H8R17311   0.927  -0.453   6.827  3.0203 -1.5619 -0.0225
  156SAPE   C2917312   0.857  -0.434   6.617  0.0619 -0.0903 -0.8281
  156SAPE   H9R17313   0.768  -0.496   6.629 -1.3391  1.7959 -1.0213
  156SAPE  C21017314   0.902  -0.391   6.479 -0.1121 -0.5692  0.1467
  156SAPE  H10R17315   0.850  -0.442   6.395  0.5863  0.9509 -1.2595
  156SAPE  H10S17316   1.005  -0.426   6.459  0.3308  0.1500  1.0820
  156SAPE  C21117317   0.884  -0.243   6.462  0.1095 -0.3633  0.0519
  156SAPE  H11R17318   0.791  -0.209   6.510 -0.4368 -2.1489  0.3422
  156SAPE  C21217319   0.972  -0.156   6.423  0.5001 -0.0566  0.4997
  156SAPE  H12R17320   0.939  -0.051   6.434 -1.6077 -0.7221  1.0706
  156SAPE  C21317321   1.105  -0.182   6.371  0.0506 -0.7792 -0.3192
  156SAPE  H13R17322   1.117  -0.290   6.348  2.1824 -0.5159 -0.6469
  156SAPE  H13S17323   1.181  -0.159   6.449 -0.5893  0.9547 -0.1612
  156SAPE  C21417324   1.152  -0.103   6.249  0.4339  0.0731  0.1143
  156SAPE  H14R17325   1.176   0.004   6.259  1.4450 -0.2173  0.9133
  156SAPE  C21517326   1.162  -0.144   6.122  0.6632 -0.0142 -0.5380
  156SAPE  H15R17327   1.174  -0.068   6.043  0.5673 -0.4428 -0.9670
  156SAPE  C21617328   1.143  -0.279   6.062 -0.0190 -0.0403 -0.5842
  156SAPE  H16R17329   1.077  -0.266   5.974 -0.5392  1.1812 -0.0309
  156SAPE  H16S17330   1.094  -0.356   6.125  1.3060 -1.8670 -1.6963
  156SAPE  C21717331   1.273  -0.346   6.025 -0.5072  0.3370  0.2024
  156SAPE  H17R17332   1.319  -0.395   6.114  0.6175 -1.0955 -1.1072
  156SAPE  H17S17333   1.350  -0.273   5.993  2.0503 -2.2916 -0.1036
  156SAPE  C21817334   1.266  -0.439   5.894 -0.0642 -0.5817  0.2811
  156SAPE  H18R17335   1.205  -0.390   5.815 -1.0962 -1.6776  0.3722
  156SAPE  H18S17336   1.213  -0.531   5.927  1.6822 -1.2853  1.2965
  156SAPE  C21917337   1.402  -0.478   5.833 -0.7321 -0.3479 -0.4298
  156SAPE  H19R17338   1.442  -0.377   5.811  1.7602 -0.6444  2.0806
  156SAPE  H19S17339   1.384  -0.537   5.740 -2.3816  1.7765 -1.5495
  156SAPE  C22017340   1.499  -0.546   5.932 -0.1576 -0.8108 -0.2345
  156SAPE  H20R17341   1.597  -0.568   5.885 -0.9417 -1.6501 -1.5432
  156SAPE  H20S17342   1.445  -0.643   5.940  0.5436 -1.1747  0.1118
  156SAPE  H20T17343   1.512  -0.486   6.024 -2.6952  1.4058 -1.2016
  156SAPE   C3317344   1.856  -0.525   6.697 -0.1596  0.0726 -0.4894
  156SAPE   H3X17345   1.778  -0.454   6.660 -0.3313 -0.3376 -0.9213
  156SAPE   H3Y17346   1.797  -0.611   6.735  0.2044 -1.1004 -2.4773
  156SAPE   C3417347   1.957  -0.565   6.588  0.6088 -0.2764 -0.1039
  156SAPE   H4X17348   2.027  -0.626   6.649  2.2317  2.1981  0.6542
  156SAPE   H4Y17349   2.009  -0.475   6.549  2.3377 -1.2587 -0.2058
  156SAPE   C3517350   1.890  -0.643   6.475 -0.1079 -0.4237  0.1153
  156SAPE   H5X17351   1.781  -0.650   6.497  0.2232 -1.3419  1.5570
  156SAPE   H5Y17352   1.917  -0.750   6.468  1.6105 -0.2163  2.5102
  156SAPE   C3617353   1.904  -0.561   6.348  0.5611  0.3028 -0.7909
  156SAPE   H6X17354   1.881  -0.452   6.355 -0.8635 -0.1014  2.3312
  156SAPE   H6Y17355   1.830  -0.598   6.274  0.1514 -0.4273 -0.0311
  156SAPE   C3717356   2.040  -0.591   6.280 -0.3147  0.3157 -0.8553
  156SAPE   H7X17357   2.050  -0.701   6.280 -2.7116 -0.1112  3.1914
  156SAPE   H7Y17358   2.125  -0.545   6.336 -0.8661 -0.7580  0.9465
  156SAPE   C3817359   2.040  -0.540   6.137 -0.8819 -0.0307 -0.3654
  156SAPE   H8X17360   2.147  -0.530   6.108 -0.5597  0.8624  1.0238
  156SAPE   H8Y17361   1.998  -0.437   6.140 -0.1319  0.2567  1.0893
  156SAPE   C3917362   1.972  -0.627   6.029  0.2751  0.3884  0.1382
  156SAPE   H9X17363   1.871  -0.653   6.067  0.3980  1.4945  1.2948
  156SAPE   H9Y17364   2.035  -0.717   6.013  0.1097  0.6154 -2.0784
  156SAPE  C31017365   1.959  -0.547   5.894  0.0908  0.5146  0.5753
  156SAPE  H10X17366   2.058  -0.498   5.885 -0.6635  2.3385  1.6248
  156SAPE  H10Y17367   1.877  -0.472   5.898 -0.3016  0.1668 -0.5441
  156SAPE  C31117368   1.921  -0.632   5.770 -0.6655 -0.0112  0.3576
  156SAPE  H11X17369   1.832  -0.694   5.793  0.0283 -0.2611  2.6000
  156SAPE  H11Y17370   2.008  -0.701   5.765 -0.7340 -0.0214 -2.1175
  156SAPE  C31217371   1.898  -0.541   5.644  0.2359 -0.0468 -0.9332
  156SAPE  H12X17372   1.986  -0.480   5.614  1.0153 -0.7754 -0.1911
  156SAPE  H12Y17373   1.816  -0.467   5.656  0.4440  0.5278 -2.7478
  156SAPE  C31317374   1.854  -0.625   5.518 -0.0153 -0.2694 -0.3404
  156SAPE  H13X17375   1.784  -0.702   5.556  0.1153 -0.2627 -0.0836
  156SAPE  H13Y17376   1.947  -0.671   5.479  1.1442 -0.6706  2.6514
  156SAPE  C31417377   1.787  -0.544   5.401  0.3264 -0.2934  0.6003
  156SAPE  H14X17378   1.830  -0.441   5.399 -2.3320  0.8939 -1.8642
  156SAPE  H14Y17379   1.679  -0.535   5.424  0.6267  0.3791  1.8884
  156SAPE  C31517380   1.792  -0.613   5.266 -0.4905  0.0620 -0.2011
  156SAPE  H15X17381   1.741  -0.548   5.192 -2.7298 -0.3377  0.9100
  156SAPE  H15Y17382   1.740  -0.709   5.286  1.1049 -0.9898 -0.8639
  156SAPE  C31617383   1.939  -0.633   5.217 -0.0072  0.0819  0.3766
  156SAPE  H16X17384   1.997  -0.703   5.281  0.9010  1.8157  1.5660
  156SAPE  H16Y17385   2.002  -0.543   5.232 -0.2695  0.7357 -2.0158
  156SAPE  C31717386   1.942  -0.663   5.059  0.4012 -0.4965  0.2504
  156SAPE  H17X17387   1.877  -0.586   5.011  2.6739  2.1008  1.1254
  156SAPE  H17Y17388   1.902  -0.767   5.051  1.6017 -0.8660 -1.4701
  156SAPE  C31817389   2.066  -0.669   4.967 -0.3337 -0.5744 -0.4913
  156SAPE  H18X17390   2.126  -0.757   4.998  1.6806  1.0552  0.4777
  156SAPE  H18Y17391   2.134  -0.581   4.977 -0.0426 -0.8527  0.0008
  156SAPE  H18Z17392   2.036  -0.686   4.861 -2.2856  3.1023 -0.7246
  157SAPE     N17393   0.822   3.526   6.956  0.3881 -0.6171  0.6083
  157SAPE   HN117394   0.845   3.438   7.007 -3.0231 -0.5529  2.5356
  157SAPE   HN217395   0.854   3.609   7.009 -1.1860  0.6840 -0.3737
  157SAPE   HN317396   0.718   3.528   6.966  0.1944  2.5754 -0.7371
  157SAPE   C1217397   0.878   3.524   6.819 -0.5565  0.2804  0.1734
  157SAPE  H12A17398   0.987   3.531   6.835 -0.4272 -3.4649  2.2378
  157SAPE  H12B17399   0.839   3.612   6.764 -0.8584 -0.2406 -0.4676
  157SAPE   C1117400   0.852   3.385   6.759  0.5011 -0.4881  0.4548
  157SAPE  H11A17401   0.920   3.361   6.674 -0.8584 -1.7852 -0.3108
  157SAPE  H11B17402   0.747   3.389   6.723 -0.3272 -0.0886  2.7442
  157SAPE     P17403   0.812   3.139   6.819 -0.3857 -0.3898 -0.3553
  157SAPE   O1317404   0.814   3.060   6.942 -0.1904 -0.3354 -0.5614
  157SAPE   O1417405   0.679   3.145   6.752 -0.2358  0.3328  0.4413
  157SAPE   O1217406   0.873   3.281   6.860  0.6500 -0.2169 -0.7564
  157SAPE   O1117407   0.922   3.082   6.716 -0.5099 -0.0576 -0.3498
  157SAPE    C117408   1.051   3.060   6.771 -0.0738 -0.0523 -0.0207
  157SAPE    HA17409   1.071   3.097   6.874  1.9757 -3.6916  1.0735
  157SAPE    HB17410   1.072   2.951   6.773  0.1803  0.0046  0.7284
  157SAPE    C217411   1.165   3.127   6.686  0.0402  0.9430  0.3096
  157SAPE    HS17412   1.181   3.237   6.686 -0.5228  1.0293 -0.2058
  157SAPE   O2117413   1.142   3.072   6.555 -0.4258  0.4087 -0.2050
  157SAPE   C2117414   1.189   3.155   6.463 -0.6388  0.0674  0.4649
  157SAPE   O2217415   1.254   3.253   6.478 -0.4500 -0.2642  0.7555
  157SAPE   C2217416   1.177   3.079   6.324 -0.1058  0.4269 -0.5476
  157SAPE   H2R17417   1.234   2.985   6.339 -2.1251 -0.6587  0.8257
  157SAPE   H2S17418   1.071   3.046   6.321 -0.2615  0.5183  1.8628
  157SAPE    C317419   1.299   3.067   6.739  0.1836  0.2358 -0.7540
  157SAPE    HX17420   1.300   2.957   6.730  1.9892  0.1671 -0.0690
  157SAPE    HY17421   1.304   3.086   6.848  1.0190 -2.5725 -0.2367
  157SAPE   O3117422   1.416   3.129   6.682 -0.3025 -0.0541  0.4432
  157SAPE   C3117423   1.508   3.040   6.654  0.5818 -0.8691  0.1341
  157SAPE   O3217424   1.505   2.923   6.685 -0.0563  0.1843 -0.2355
  157SAPE   C3217425   1.612   3.093   6.557 -0.6743  0.0484 -0.1768
  157SAPE   H2X17426   1.710   3.055   6.594 -1.2714  0.0423  1.4690
  157SAPE   H2Y17427   1.616   3.204   6.561  0.7613 -0.0101  0.3585
  157SAPE   C2317428   1.215   3.163   6.199 -0.2098 -0.3315 -0.3590
  157SAPE   H3R17429   1.325   3.173   6.191 -0.0811 -0.4809  1.0084
  157SAPE   H3S17430   1.171   3.264   6.214  0.4424 -0.1189  0.1650
  157SAPE   C2417431   1.151   3.121   6.068 -0.1440  0.0735  0.9193
  157SAPE   H4R17432   1.169   3.207   5.999  0.6555 -0.8536 -0.0503
  157SAPE   H4S17433   1.041   3.116   6.084 -0.0473  1.3980  2.2446
  157SAPE   C2517434   1.206   2.997   6.004  0.0435  0.0830 -0.2711
  157SAPE   H5R17435   1.213   2.914   6.076  0.8141  1.0545  0.7943
  157SAPE   C2617436   1.259   2.981   5.881  0.2731 -0.1370 -0.1525
  157SAPE   H6R17437   1.307   2.886   5.851  1.9785  0.0520  1.7436
  157SAPE   C2717438   1.246   3.086   5.776 -0.6386  0.4095  0.1607
  157SAPE   H7R17439   1.339   3.104   5.718 -0.4687  0.4746  0.4539
  157SAPE   H7S17440   1.225   3.186   5.818  0.4963  0.8893 -0.3847
  157SAPE   C2817441   1.129   3.058   5.682 -0.4323 -0.5020  0.3699
  157SAPE   H8R17442   1.027   3.087   5.711  0.1759  0.0999  2.0594
  157SAPE   C2917443   1.141   3.025   5.554  0.0508 -0.0931  0.9957
  157SAPE   H9R17444   1.050   3.010   5.494  0.4663 -0.7512  0.5073
  157SAPE  C21017445   1.264   2.997   5.473 -0.1861 -0.6284  0.1606
  157SAPE  H10R17446   1.241   2.921   5.395 -1.7150 -0.2308  0.1978
  157SAPE  H10S17447   1.342   2.966   5.546 -1.3440  2.3153  2.8674
  157SAPE  C21117448   1.309   3.125   5.409  0.0969  0.1088  0.9161
  157SAPE  H11R17449   1.290   3.211   5.475 -2.6700 -0.9934  1.7194
  157SAPE  C21217450   1.361   3.139   5.288 -0.4154 -0.8900 -0.1294
  157SAPE  H12R17451   1.380   3.240   5.249 -1.4989 -0.3907  0.5812
  157SAPE  C21317452   1.394   3.025   5.200  0.2496  0.2764 -0.6273
  157SAPE  H13R17453   1.338   2.933   5.230 -2.0213  1.3743 -1.2767
  157SAPE  H13S17454   1.502   3.002   5.200  0.5275  1.4338  1.2043
  157SAPE  C21417455   1.343   3.061   5.059 -0.2109  0.7548  0.3583
  157SAPE  H14R17456   1.245   3.110   5.049 -0.3611  0.5280  0.6823
  157SAPE  C21517457   1.400   3.027   4.944 -0.7093  0.6557  0.4473
  157SAPE  H15R17458   1.348   3.069   4.856 -0.2991 -1.8858 -1.1135
  157SAPE  C21617459   1.539   2.958   4.931  0.3235  0.2278 -0.3275
  157SAPE  H16R17460   1.615   2.983   5.009  0.4409 -0.5483 -0.1783
  157SAPE  H16S17461   1.573   2.987   4.830 -3.2516 -0.8822 -2.0152
  157SAPE  C21717462   1.510   2.802   4.936 -0.0102  0.0845  0.2250
  157SAPE  H17R17463   1.427   2.776   4.867  0.5011  0.9869 -0.7459
  157SAPE  H17S17464   1.470   2.780   5.037 -0.2993  0.8983  0.2879
  157SAPE  C21817465   1.634   2.708   4.923  0.2516  0.7139 -0.7955
  157SAPE  H18R17466   1.593   2.608   4.948 -1.0040  1.7098  1.4217
  157SAPE  H18S17467   1.713   2.738   4.994 -1.4014 -0.3491  1.6211
  157SAPE  C21917468   1.708   2.720   4.788  0.3625 -0.7189  0.2768
  157SAPE  H19R17469   1.802   2.662   4.800  0.7501  0.0206  0.8743
  157SAPE  H19S17470   1.719   2.830   4.782 -0.9969 -0.1803  4.4860
  157SAPE  C22017471   1.635   2.666   4.668 -0.3642  0.0964  0.6521
  157SAPE  H20R17472   1.592   2.565   4.686  0.1502 -0.3170 -0.3425
  157SAPE  H20S17473   1.711   2.658   4.587 -0.9059 -0.2067  0.1677
  157SAPE  H20T17474   1.558   2.744   4.648 -0.0643 -0.2035 -2.0913
  157SAPE   C3317475   1.572   3.050   6.417 -0.0981  0.9362 -0.1544
  157SAPE   H3X17476   1.473   3.094   6.395  0.5064  2.3385 -0.1931
  157SAPE   H3Y17477   1.559   2.940   6.411  0.3309  0.8544  0.3592
  157SAPE   C3417478   1.668   3.106   6.313  0.2421  0.0424 -0.9915
  157SAPE   H4X17479   1.766   3.065   6.345 -0.4259 -2.1078 -1.5428
  157SAPE   H4Y17480   1.671   3.217   6.316  0.9528  0.0676  3.4709
  157SAPE   C3517481   1.640   3.065   6.172 -0.5845  0.1940 -0.4918
  157SAPE   H5X17482   1.716   3.114   6.107 -1.0575  2.6712  0.7165
  157SAPE   H5Y17483   1.541   3.100   6.134 -1.3936 -0.6774  0.7689
  157SAPE   C3617484   1.635   2.916   6.141  0.5267  0.8444  0.0044
  157SAPE   H6X17485   1.546   2.875   6.193 -0.3633  0.9813 -1.3643
  157SAPE   H6Y17486   1.726   2.870   6.185  0.9133  1.0338 -0.5816
  157SAPE   C3717487   1.630   2.895   5.985 -0.5978  0.5347  0.5225
  157SAPE   H7X17488   1.703   2.967   5.942 -0.8148 -0.4475 -1.6408
  157SAPE   H7Y17489   1.531   2.927   5.945 -0.3213  1.3401  0.4703
  157SAPE   C3817490   1.651   2.747   5.929  0.1238  0.1199  0.2290
  157SAPE   H8X17491   1.569   2.689   5.977 -1.6604  2.1500 -0.2342
  157SAPE   H8Y17492   1.746   2.710   5.973  0.1450 -0.0785  0.0210
  157SAPE   C3917493   1.663   2.764   5.778  0.5731 -0.0630 -0.0604
  157SAPE   H9X17494   1.730   2.848   5.750  1.3319 -0.8958 -0.7570
  157SAPE   H9Y17495   1.566   2.804   5.740  2.0732  4.4614  0.2546
  157SAPE  C31017496   1.693   2.637   5.714 -0.2259  0.1930  0.1385
  157SAPE  H10X17497   1.624   2.557   5.747 -1.4476  2.0146  2.3064
  157SAPE  H10Y17498   1.796   2.609   5.747  0.1212  1.3052  0.0322
  157SAPE  C31117499   1.682   2.655   5.561 -0.0770  0.0201 -0.6239
  157SAPE  H11X17500   1.731   2.749   5.530  0.4383 -0.5386 -1.5251
  157SAPE  H11Y17501   1.576   2.667   5.530 -0.4021  3.0069  1.2138
  157SAPE  C31217502   1.730   2.531   5.487 -0.4013 -0.6799 -0.2014
  157SAPE  H12X17503   1.664   2.442   5.486  1.1485 -1.8848  1.0059
  157SAPE  H12Y17504   1.817   2.504   5.550 -0.6760  0.6368  0.7864
  157SAPE  C31317505   1.760   2.549   5.341  0.2879 -0.1320  0.7530
  157SAPE  H13X17506   1.845   2.617   5.323  0.5377 -0.9924 -1.6105
  157SAPE  H13Y17507   1.677   2.593   5.281  1.5306  1.1808 -0.0514
  157SAPE  C31417508   1.801   2.408   5.267 -0.9212 -0.2035  0.0394
  157SAPE  H14X17509   1.712   2.343   5.282 -2.2343  1.3445 -0.6889
  157SAPE  H14Y17510   1.888   2.367   5.322 -0.7305  1.1530  0.7918
  157SAPE  C31517511   1.830   2.440   5.120 -0.7109  0.0889 -0.4919
  157SAPE  H15X17512   1.913   2.511   5.104 -0.4404  0.1513  1.0532
  157SAPE  H15Y17513   1.745   2.502   5.086 -0.7874  0.7684  0.9034
  157SAPE  C31617514   1.859   2.320   5.028  0.0281  0.5562 -0.2310
  157SAPE  H16X17515   1.771   2.254   5.040 -1.1824  2.1559 -0.0029
  157SAPE  H16Y17516   1.953   2.263   5.044 -1.4572 -2.7488 -2.2805
  157SAPE  C31717517   1.843   2.347   4.880  0.5727 -0.8444  0.5483
  157SAPE  H17X17518   1.908   2.434   4.854 -1.8678  0.7258 -0.6507
  157SAPE  H17Y17519   1.739   2.379   4.858  0.9129 -0.8019 -1.1435
  157SAPE  C31817520   1.875   2.227   4.798  0.1735  0.3164 -0.1237
  157SAPE  H18X17521   1.982   2.199   4.810 -0.2410 -0.0054  4.1831
  157SAPE  H18Y17522   1.851   2.245   4.691 -2.7206  0.9390  0.5567
  157SAPE  H18Z17523   1.818   2.139   4.835  0.6014 -0.0183 -0.2450
  158SAPE     N17524   3.076   2.244   6.981 -0.0346  0.2330  0.5971
  158SAPE   HN117525   3.083   2.140   6.974 -3.2810 -0.2082  2.1262
  158SAPE   HN217526   2.988   2.279   6.940  0.3412  1.7695  1.0384
  158SAPE   HN317527   3.155   2.288   6.931  0.4325 -0.6506  0.5292
  158SAPE   C1217528   3.086   2.284   7.126  0.2362  0.0978 -0.2420
  158SAPE  H12A17529   3.009   2.231   7.186  1.1180 -0.4366  0.4296
  158SAPE  H12B17530   3.065   2.394   7.127 -1.4205 -0.1785 -0.4776
  158SAPE   C1117531   3.217   2.245   7.191  0.9844 -0.3081  0.1151
  158SAPE  H11A17532   3.199   2.148   7.241 -0.4532  0.1721  0.5880
  158SAPE  H11B17533   3.228   2.319   7.272 -0.1700 -1.8484  1.7564
  158SAPE     P17534   3.426   2.353   7.059  0.0752 -0.3876 -0.0061
  158SAPE   O1317535   3.496   2.397   7.178  0.3168 -0.4444 -0.2804
  158SAPE   O1417536   3.512   2.295   6.953 -0.3140 -0.0806  0.0762
  158SAPE   O1217537   3.324   2.237   7.101 -0.1584 -0.5185 -0.0440
  158SAPE   O1117538   3.333   2.462   7.000  0.4826 -0.5460 -0.0316
  158SAPE    C117539   3.326   2.596   7.038  0.0606 -0.2953 -0.0366
  158SAPE    HA17540   3.227   2.622   7.082  0.8044  1.3389  0.7585
  158SAPE    HB17541   3.391   2.617   7.126  0.4573 -2.4084  0.2419
  158SAPE    C217542   3.360   2.690   6.918 -0.0725  0.6518 -0.1631
  158SAPE    HS17543   3.341   2.798   6.935 -1.8104  0.7625 -2.3283
  158SAPE   O2117544   3.285   2.662   6.799 -0.1050  0.5684  0.3742
  158SAPE   C2117545   3.154   2.687   6.793 -0.2574 -0.5325 -0.8280
  158SAPE   O2217546   3.091   2.751   6.874  0.0911  0.0409 -0.4514
  158SAPE   C2217547   3.095   2.611   6.673  0.3317  0.0387  0.4266
  158SAPE   H2R17548   3.176   2.556   6.620  1.7077  2.6608 -0.3672
  158SAPE   H2S17549   3.020   2.543   6.721 -0.0105  0.1867  0.1117
  158SAPE    C317550   3.508   2.671   6.869  0.0302 -0.3600 -0.9707
  158SAPE    HX17551   3.525   2.570   6.827  0.3380 -0.1246 -1.4188
  158SAPE    HY17552   3.587   2.655   6.946 -0.9841 -3.4608 -0.4662
  158SAPE   O3117553   3.548   2.779   6.778 -0.3873  0.0168  0.6743
  158SAPE   C3117554   3.543   2.741   6.652  0.0229  0.2570 -0.1708
  158SAPE   O3217555   3.516   2.631   6.605 -0.1401  0.6447 -0.5383
  158SAPE   C3217556   3.589   2.868   6.578 -0.4623  0.4583 -0.4435
  158SAPE   H2X17557   3.691   2.879   6.621 -0.3845  0.1597 -0.5497
  158SAPE   H2Y17558   3.535   2.960   6.607  0.0440  0.0660  2.0035
  158SAPE   C2317559   3.010   2.710   6.592 -0.4184  0.0076 -0.6813
  158SAPE   H3R17560   2.943   2.770   6.657 -2.6630  0.0625 -2.8899
  158SAPE   H3S17561   2.938   2.660   6.524 -1.7755 -0.4152  1.0144
  158SAPE   C2417562   3.091   2.812   6.504  0.2593  0.2375 -0.0204
  158SAPE   H4R17563   3.141   2.889   6.568  0.3004  1.8836 -1.9494
  158SAPE   H4S17564   3.018   2.868   6.442 -0.4536 -1.0230 -0.3372
  158SAPE   C2517565   3.201   2.750   6.431 -0.2838  0.2004  0.7106
  158SAPE   H5R17566   3.274   2.698   6.494 -0.5576 -1.9197 -0.6007
  158SAPE   C2617567   3.209   2.733   6.296 -0.2418 -0.0240  0.4240
  158SAPE   H6R17568   3.305   2.694   6.259  0.0603  1.9492 -1.0350
  158SAPE   C2717569   3.118   2.800   6.197 -0.8433  0.8235  0.4356
  158SAPE   H7R17570   3.023   2.841   6.236 -0.8278  1.0268  0.2589
  158SAPE   H7S17571   3.092   2.726   6.118  0.4855 -0.3718  1.0569
  158SAPE   C2817572   3.203   2.914   6.136  0.7486 -0.1172  0.4484
  158SAPE   H8R17573   3.209   3.003   6.200 -4.9437  0.5105  0.6556
  158SAPE   C2917574   3.265   2.911   6.016  0.1937  0.1528  0.0107
  158SAPE   H9R17575   3.312   3.007   5.992  3.4075 -1.0679  0.9590
  158SAPE  C21017576   3.277   2.802   5.916  0.2645  0.1565  0.6433
  158SAPE  H10R17577   3.187   2.810   5.851  1.1401  1.2170 -0.4744
  158SAPE  H10S17578   3.262   2.706   5.971 -0.1058  0.6323  1.3948
  158SAPE  C21117579   3.406   2.793   5.846  0.2356  0.0640 -0.2951
  158SAPE  H11R17580   3.485   2.774   5.919 -1.4270 -0.9140  1.3339
  158SAPE  C21217581   3.424   2.789   5.714 -0.6320 -0.0879 -0.3549
  158SAPE  H12R17582   3.524   2.762   5.678  0.0894  0.7829  0.9329
  158SAPE  C21317583   3.312   2.789   5.611 -0.2242 -0.9079 -0.1801
  158SAPE  H13R17584   3.286   2.897   5.604  1.1746 -0.4975  0.5412
  158SAPE  H13S17585   3.218   2.738   5.641 -0.7993  0.5514  0.5997
  158SAPE  C21417586   3.369   2.741   5.478  0.4355 -0.3127  0.0373
  158SAPE  H14R17587   3.473   2.706   5.477  1.0204  1.3354 -1.2804
  158SAPE  C21517588   3.296   2.751   5.366  0.4009  0.5132 -0.6999
  158SAPE  H15R17589   3.334   2.708   5.272  0.0391  1.8589 -1.4949
  158SAPE  C21617590   3.158   2.813   5.351 -0.8295  0.1078  0.5110
  158SAPE  H16R17591   3.124   2.840   5.453  1.8886 -0.8044  1.7688
  158SAPE  H16S17592   3.084   2.735   5.323 -0.2981 -1.3046  2.7101
  158SAPE  C21717593   3.149   2.932   5.264  0.1256  0.2197  0.4363
  158SAPE  H17R17594   3.042   2.958   5.250  0.0193 -0.0470  0.7240
  158SAPE  H17S17595   3.190   2.898   5.166 -0.0281  1.0443  0.0769
  158SAPE  C21817596   3.221   3.059   5.315  0.0412 -0.5282  0.2716
  158SAPE  H18R17597   3.321   3.018   5.341  0.2298  0.5632  1.3483
  158SAPE  H18S17598   3.170   3.093   5.407  2.3110 -0.0269  1.4098
  158SAPE  C21917599   3.236   3.183   5.218  0.6844 -0.1564 -0.3834
  158SAPE  H19R17600   3.285   3.137   5.129 -0.1098 -2.0638  0.1041
  158SAPE  H19S17601   3.299   3.257   5.271  2.1641 -1.2142 -0.6026
  158SAPE  C22017602   3.112   3.248   5.171 -0.6441 -0.0880  0.5557
  158SAPE  H20R17603   3.049   3.181   5.108 -0.6207  1.2893 -1.0175
  158SAPE  H20S17604   3.137   3.336   5.109 -0.1989 -1.2366 -0.9690
  158SAPE  H20T17605   3.053   3.277   5.260  1.8052 -0.2423  2.3167
  158SAPE   C3317606   3.585   2.857   6.427  0.0520  0.0046 -0.1678
  158SAPE   H3X17607   3.482   2.855   6.386  0.4021 -0.2569 -1.0616
  158SAPE   H3Y17608   3.623   2.759   6.392 -1.2707 -0.2265 -1.0386
  158SAPE   C3417609   3.672   2.969   6.374  0.2444  0.3668 -0.4949
  158SAPE   H4X17610   3.773   2.978   6.421 -0.6848  1.7628  1.3571
  158SAPE   H4Y17611   3.618   3.063   6.398  0.5399 -0.1089  2.4682
  158SAPE   C3517612   3.677   2.966   6.218  0.4385  0.9070  0.3052
  158SAPE   H5X17613   3.573   2.963   6.181  0.8716 -1.1985 -0.9364
  158SAPE   H5Y17614   3.730   2.875   6.184  0.6723  0.8732  0.7504
  158SAPE   C3617615   3.743   3.086   6.147  0.2574  0.1476  0.6609
  158SAPE   H6X17616   3.850   3.071   6.173  0.0355 -0.1150  1.4393
  158SAPE   H6Y17617   3.700   3.178   6.193 -1.1956  0.8218 -1.8457
  158SAPE   C3717618   3.707   3.088   5.997 -0.0853  0.4123 -0.6485
  158SAPE   H7X17619   3.752   3.183   5.962 -3.3661  2.5048  0.3106
  158SAPE   H7Y17620   3.596   3.097   5.995 -0.1471 -0.2156 -0.3296
  158SAPE   C3817621   3.756   2.963   5.925  0.1437  0.6421  0.0674
  158SAPE   H8X17622   3.698   2.874   5.957 -0.2570  0.8974  0.0502
  158SAPE   H8Y17623   3.860   2.945   5.962  1.1576  2.6526 -1.6196
  158SAPE   C3917624   3.745   2.980   5.773 -0.4612 -0.0478 -0.4412
  158SAPE   H9X17625   3.797   3.074   5.747  0.1200 -0.0426  0.7036
  158SAPE   H9Y17626   3.641   2.984   5.732 -1.1105  1.4838  1.2212
  158SAPE  C31017627   3.818   2.861   5.700  0.8076  0.8107  0.3399
  158SAPE  H10X17628   3.768   2.770   5.738  0.2051  0.9712 -0.0501
  158SAPE  H10Y17629   3.924   2.863   5.733  0.3982  3.2707  1.8091
  158SAPE  C31117630   3.812   2.861   5.545  0.3552  0.5375 -0.0979
  158SAPE  H11X17631   3.855   2.956   5.505  0.2383  0.8409  0.4890
  158SAPE  H11Y17632   3.702   2.859   5.529  0.3128  0.7642  0.1517
  158SAPE  C31217633   3.868   2.732   5.477 -0.2534 -0.9006  0.3809
  158SAPE  H12X17634   3.828   2.639   5.523 -0.2535 -0.9183  0.3445
  158SAPE  H12Y17635   3.978   2.747   5.478 -0.0481 -1.6632 -2.5902
  158SAPE  C31317636   3.839   2.728   5.328  0.4386  1.1468 -0.2148
  158SAPE  H13X17637   3.860   2.831   5.292  0.4261  2.3847  3.0145
  158SAPE  H13Y17638   3.732   2.703   5.314  0.6357  0.4118 -0.4660
  158SAPE  C31417639   3.928   2.635   5.258 -0.9886  0.3624  0.4300
  158SAPE  H14X17640   3.937   2.536   5.307  1.3800  0.4045  0.1821
  158SAPE  H14Y17641   4.027   2.685   5.257 -0.6139 -0.1488 -2.9598
  158SAPE  C31517642   3.893   2.605   5.111 -0.7051  0.0050 -0.7034
  158SAPE  H15X17643   3.896   2.701   5.054 -1.3984 -0.4275 -1.4992
  158SAPE  H15Y17644   3.789   2.567   5.115 -0.3704 -1.0139 -1.4440
  158SAPE  C31617645   3.988   2.505   5.050  0.3616  0.3426 -0.2665
  158SAPE  H16X17646   3.967   2.407   5.097 -0.2140  0.3102 -0.5817
  158SAPE  H16Y17647   4.092   2.543   5.062  0.6446 -0.1995 -0.9374
  158SAPE  C31717648   3.950   2.483   4.899 -0.3516 -0.9784 -0.5789
  158SAPE  H17X17649   3.975   2.577   4.846  1.6695  1.2344  3.7449
  158SAPE  H17Y17650   3.842   2.460   4.885 -0.2938 -1.3780 -0.4088
  158SAPE  C31817651   4.035   2.378   4.831 -1.0846 -0.2345 -0.8184
  158SAPE  H18X17652   4.142   2.408   4.831 -0.5758 -1.9227 -1.4916
  158SAPE  H18Y17653   4.008   2.359   4.725  0.1612  2.2487 -1.6562
  158SAPE  H18Z17654   4.037   2.280   4.885  1.5137  0.7074  1.0095
  159SAPE     N17655   6.441   2.077   2.766  0.0499 -0.6620  0.1082
  159SAPE   HN117656   6.527   2.063   2.710 -0.3999 -0.3724 -0.6774
  159SAPE   HN217657   6.367   2.006   2.747 -1.2097  0.6338 -0.0266
  159SAPE   HN317658   6.395   2.169   2.749  1.3286  0.1762  1.0017
  159SAPE   C1217659   6.473   2.061   2.905  0.2827 -0.4223  0.0934
  159SAPE  H12A17660   6.551   1.984   2.922 -0.7109 -2.0116 -2.0230
  159SAPE  H12B17661   6.379   2.016   2.944 -0.7785  1.8153  0.2280
  159SAPE   C1117662   6.515   2.192   2.962 -0.2764 -0.4774 -0.6658
  159SAPE  H11A17663   6.545   2.177   3.068  1.1727 -0.4869 -1.0606
  159SAPE  H11B17664   6.435   2.269   2.969  0.4041  0.2434 -0.5941
  159SAPE     P17665   6.779   2.214   2.921  0.2003  0.4534  0.3091
  159SAPE   O1317666   6.784   2.078   2.981 -0.0232  0.0023  0.0091
  159SAPE   O1417667   6.867   2.232   2.799  0.1530 -0.3418 -0.5406
  159SAPE   O1217668   6.627   2.252   2.885 -0.5389 -0.4005  0.0175
  159SAPE   O1117669   6.829   2.311   3.035 -0.3768  0.1645 -0.3588
  159SAPE    C117670   6.789   2.303   3.167 -0.2142  0.6562 -0.4939
  159SAPE    HA17671   6.763   2.401   3.213 -2.0157  0.0853 -0.1831
  159SAPE    HB17672   6.691   2.251   3.180  1.3094 -2.0742  0.8745
  159SAPE    C217673   6.911   2.241   3.244  0.1089  0.3831 -0.2810
  159SAPE    HS17674   6.930   2.142   3.197 -0.0605  0.7921 -1.2223
  159SAPE   O2117675   6.867   2.232   3.382  0.3585 -0.9758 -0.0678
  159SAPE   C2117676   6.905   2.126   3.450  0.1170  0.7678  0.3458
  159SAPE   O2217677   6.956   2.020   3.400  0.5506 -0.3183 -0.3213
  159SAPE   C2217678   6.890   2.149   3.596 -0.1778 -0.0400  0.5937
  159SAPE   H2R17679   6.947   2.240   3.623 -0.3911  0.5163 -0.7288
  159SAPE   H2S17680   6.782   2.162   3.618 -0.0542  0.3904  0.9374
  159SAPE    C317681   7.045   2.332   3.241  0.8227  0.3185 -0.1321
  159SAPE    HX17682   7.003   2.430   3.209 -1.4035 -1.1980 -2.1687
  159SAPE    HY17683   7.107   2.286   3.160 -0.8838 -1.4693 -0.5109
  159SAPE   O3117684   7.104   2.345   3.371  0.4598  0.3322  0.0397
  159SAPE   C3117685   7.221   2.405   3.377 -0.2350  0.4608  0.2670
  159SAPE   O3217686   7.267   2.476   3.289 -0.4491 -0.2595 -0.5901
  159SAPE   C3217687   7.298   2.361   3.508  0.4617 -0.0884  0.4110
  159SAPE   H2X17688   7.397   2.336   3.464  0.6912  2.1198 -0.4566
  159SAPE   H2Y17689   7.256   2.269   3.553  0.3401  0.7033  1.9897
  159SAPE   C2317690   6.939   2.026   3.683  0.2006 -0.4109  0.4162
  159SAPE   H3R17691   6.998   1.958   3.618 -0.6039 -0.4456 -0.3080
  159SAPE   H3S17692   6.848   1.967   3.709  0.1486  0.7286  3.0699
  159SAPE   C2417693   7.013   2.069   3.808  0.8243  0.3324  0.5064
  159SAPE   H4R17694   7.092   2.125   3.755  0.1295  0.1937 -0.7154
  159SAPE   H4S17695   7.065   1.985   3.860  1.0346 -0.5800 -1.1074
  159SAPE   C2517696   6.932   2.151   3.901 -0.1454  0.6251 -0.1095
  159SAPE   H5R17697   6.825   2.156   3.877 -0.1264 -0.1374 -0.3852
  159SAPE   C2617698   6.981   2.200   4.009 -0.2144  0.2988  0.1683
  159SAPE   H6R17699   6.904   2.243   4.076 -1.1181  1.8551 -1.7316
  159SAPE   C2717700   7.121   2.195   4.063 -0.1024  0.0760 -0.2624
  159SAPE   H7R17701   7.201   2.196   3.987  0.6831  1.7478  0.5408
  159SAPE   H7S17702   7.139   2.090   4.096 -0.6243  0.3510  0.9762
  159SAPE   C2817703   7.142   2.291   4.177  0.0061  0.0121  0.4314
  159SAPE   H8R17704   7.218   2.370   4.167  1.5731 -1.3860  0.9431
  159SAPE   C2917705   7.097   2.275   4.303 -0.2130 -0.3376  0.1215
  159SAPE   H9R17706   7.109   2.355   4.378  0.7452 -0.7581  0.4404
  159SAPE  C21017707   7.021   2.157   4.356  0.3898 -0.0897  0.3302
  159SAPE  H10R17708   6.999   2.083   4.275  2.5628 -0.7422  0.2732
  159SAPE  H10S17709   6.916   2.188   4.372 -0.5156 -2.2400 -0.9825
  159SAPE  C21117710   7.090   2.089   4.471 -0.4079 -0.0871  0.2143
  159SAPE  H11R17711   7.141   1.997   4.439 -1.7277 -0.5474 -0.6525
  159SAPE  C21217712   7.093   2.128   4.601  0.2331 -0.3232  0.2383
  159SAPE  H12R17713   7.149   2.056   4.662  1.2072 -0.1746 -0.4536
  159SAPE  C21317714   7.027   2.245   4.665 -0.1853  0.4007 -0.8303
  159SAPE  H13R17715   6.923   2.206   4.676 -0.4048  0.0802 -3.4050
  159SAPE  H13S17716   7.036   2.324   4.587  0.1075  0.8639 -0.3297
  159SAPE  C21417717   7.089   2.309   4.784  0.4349 -0.2451 -0.9419
  159SAPE  H14R17718   7.107   2.417   4.776  0.6250  0.0263  2.0008
  159SAPE  C21517719   7.117   2.247   4.900 -0.8443 -0.2431 -0.5200
  159SAPE  H15R17720   7.172   2.309   4.972 -0.5692  0.6858 -1.5016
  159SAPE  C21617721   7.104   2.105   4.952  0.1703  0.9434  0.2117
  159SAPE  H16R17722   7.100   2.041   4.861  2.0993 -2.2637  2.1914
  159SAPE  H16S17723   7.011   2.097   5.013 -0.9112  1.0400 -1.3601
  159SAPE  C21717724   7.221   2.055   5.040  0.7316  0.3624 -0.1430
  159SAPE  H17R17725   7.205   1.952   5.077  2.9908  0.6226  1.8229
  159SAPE  H17S17726   7.216   2.111   5.136 -0.2707 -2.0859  1.3207
  159SAPE  C21817727   7.360   2.076   4.975  0.0968  0.2550 -0.2900
  159SAPE  H18R17728   7.389   2.183   4.965 -1.5910  0.8039  0.2296
  159SAPE  H18S17729   7.351   2.034   4.873 -0.8182  1.2477 -0.6390
  159SAPE  C21917730   7.470   2.005   5.052  0.0485 -0.3476 -0.6308
  159SAPE  H19R17731   7.435   1.904   5.082 -0.2813  0.2286  1.0324
  159SAPE  H19S17732   7.495   2.060   5.146  0.8778  0.6946 -1.4285
  159SAPE  C22017733   7.594   1.991   4.968 -0.1555 -0.2215 -0.5731
  159SAPE  H20R17734   7.586   1.901   4.904 -0.0987  0.3965 -1.4624
  159SAPE  H20S17735   7.683   1.987   5.035  0.3384 -0.1121 -1.2147
  159SAPE  H20T17736   7.605   2.083   4.907  0.7129  2.1054  2.7818
  159SAPE   C3317737   7.319   2.478   3.611 -0.8582 -0.1067 -0.4895
  159SAPE   H3X17738   7.394   2.549   3.569 -0.2953 -0.1536  0.4088
  159SAPE   H3Y17739   7.366   2.438   3.703 -0.8307  0.7007 -0.1425
  159SAPE   C3417740   7.186   2.548   3.652  0.1780  0.1462  0.4173
  159SAPE   H4X17741   7.110   2.470   3.673  0.1272 -0.1851 -0.9463
  159SAPE   H4Y17742   7.171   2.610   3.561  0.9940 -0.3205 -0.0442
  159SAPE   C3517743   7.212   2.642   3.771  0.2696  0.2642 -0.3368
  159SAPE   H5X17744   7.147   2.732   3.771 -1.3775 -0.8778 -0.4741
  159SAPE   H5Y17745   7.317   2.678   3.762  0.6711 -0.8346 -0.1371
  159SAPE   C3617746   7.186   2.569   3.911 -0.1578 -0.1541  0.5190
  159SAPE   H6X17747   7.274   2.503   3.921  0.7796  0.6376 -1.7438
  159SAPE   H6Y17748   7.097   2.503   3.903  1.1014 -1.7423 -1.5859
  159SAPE   C3717749   7.184   2.662   4.035 -0.7245  0.0826 -0.5602
  159SAPE   H7X17750   7.160   2.591   4.118  2.8079  1.1266  1.5675
  159SAPE   H7Y17751   7.104   2.739   4.034 -2.2162 -1.3748 -0.0198
  159SAPE   C3817752   7.323   2.729   4.059  0.0202 -0.0326  0.1914
  159SAPE   H8X17753   7.321   2.813   3.987 -1.8705 -1.0014 -0.9828
  159SAPE   H8Y17754   7.407   2.663   4.030  0.2767  0.1216  0.5823
  159SAPE   C3917755   7.335   2.770   4.201 -0.2251 -0.2764  0.2059
  159SAPE   H9X17756   7.234   2.795   4.241  0.7567  2.5310  1.1904
  159SAPE   H9Y17757   7.405   2.855   4.214 -0.8864  0.4750 -0.9074
  159SAPE  C31017758   7.384   2.658   4.298 -0.0729  0.3819  0.1747
  159SAPE  H10X17759   7.486   2.618   4.277 -1.3330 -3.1899  0.1941
  159SAPE  H10Y17760   7.328   2.566   4.272 -0.4887  1.3517 -2.7036
  159SAPE  C31117761   7.358   2.685   4.443 -0.2611 -0.1118 -0.7600
  159SAPE  H11X17762   7.265   2.744   4.450 -0.2451 -0.2380  0.8096
  159SAPE  H11Y17763   7.446   2.747   4.469  0.9879 -1.2516 -2.0328
  159SAPE  C31217764   7.351   2.563   4.535  0.6274  0.7503  0.6555
  159SAPE  H12X17765   7.433   2.488   4.529 -0.7672 -0.7545 -0.7651
  159SAPE  H12Y17766   7.255   2.513   4.508  1.6295 -0.6868 -0.4391
  159SAPE  C31317767   7.343   2.607   4.683 -0.1295  0.7152 -0.0838
  159SAPE  H13X17768   7.444   2.648   4.704  0.2772 -0.1298 -0.3312
  159SAPE  H13Y17769   7.342   2.518   4.749 -2.1613 -1.2362 -2.5063
  159SAPE  C31417770   7.228   2.699   4.717  0.4425  0.7227  0.2057
  159SAPE  H14X17771   7.137   2.638   4.698  0.5553  0.6947 -0.2702
  159SAPE  H14Y17772   7.228   2.786   4.648 -1.1829 -0.4433 -1.3453
  159SAPE  C31517773   7.222   2.738   4.860  0.1517 -0.7745  0.4472
  159SAPE  H15X17774   7.122   2.784   4.876  0.2910 -0.2031 -0.2530
  159SAPE  H15Y17775   7.300   2.817   4.867  0.3196 -0.7062 -1.5899
  159SAPE  C31617776   7.231   2.622   4.955 -0.5019 -0.0112 -0.3416
  159SAPE  H16X17777   7.315   2.551   4.939 -0.8553 -0.2661 -1.1080
  159SAPE  H16Y17778   7.136   2.566   4.940 -1.0399  1.2310 -1.8658
  159SAPE  C31717779   7.234   2.667   5.101  0.7551  0.2138  0.9442
  159SAPE  H17X17780   7.141   2.625   5.146 -0.3873  0.5305 -0.9864
  159SAPE  H17Y17781   7.233   2.778   5.107  1.9024  0.2193  1.1228
  159SAPE  C31817782   7.352   2.606   5.179 -0.1454 -0.4253  0.2464
  159SAPE  H18X17783   7.341   2.650   5.280 -2.5449  0.7621 -0.4524
  159SAPE  H18Y17784   7.439   2.657   5.134 -0.7682  0.4422 -0.0059
  159SAPE  H18Z17785   7.361   2.496   5.182  1.2585 -0.3146  2.1371
  160SAPE     N17786   6.293   6.689   2.806  0.2296  0.4967 -0.0088
  160SAPE   HN117787   6.214   6.732   2.754  2.1405  0.5687 -3.1373
  160SAPE   HN217788   6.358   6.718   2.730 -0.7027 -0.9424 -1.4421
  160SAPE   HN317789   6.261   6.590   2.797 -2.5110  1.3196 -0.2521
  160SAPE   C1217790   6.322   6.759   2.936 -0.2503  0.7308 -0.2749
  160SAPE  H12A17791   6.398   6.705   2.997 -3.0418 -0.5542  2.2901
  160SAPE  H12B17792   6.234   6.743   3.001  1.4277 -0.2286  1.9101
  160SAPE   C1117793   6.346   6.910   2.917 -0.0758 -0.2333  0.8647
  160SAPE  H11A17794   6.447   6.930   2.876  0.0694 -1.4098  0.6068
  160SAPE  H11B17795   6.336   6.936   3.024 -0.9536 -3.2337  1.5921
  160SAPE     P17796   6.226   7.130   2.830 -0.3883  0.5315 -0.1812
  160SAPE   O1317797   6.346   7.194   2.781 -0.0792 -0.5204 -0.5081
  160SAPE   O1417798   6.108   7.159   2.750 -0.0481 -0.2085  0.4545
  160SAPE   O1217799   6.240   6.968   2.840 -0.4980 -0.5066  0.2585
  160SAPE   O1117800   6.186   7.181   2.975 -1.1614 -0.7726  0.1566
  160SAPE    C117801   6.081   7.111   3.041  0.2018  0.9122  0.6778
  160SAPE    HA17802   5.989   7.106   2.978  1.2157  0.5511 -0.8232
  160SAPE    HB17803   6.117   7.007   3.058  1.1644  0.8010 -1.6513
  160SAPE    C217804   6.045   7.174   3.170  0.3675 -0.7389 -1.0112
  160SAPE    HS17805   5.959   7.116   3.210  0.2218 -0.7124 -1.2859
  160SAPE   O2117806   6.008   7.309   3.136  0.3092  0.5617 -0.6233
  160SAPE   C2117807   5.923   7.366   3.224  0.0800 -1.0861 -0.5001
  160SAPE   O2217808   5.877   7.305   3.319 -0.1129  0.1609 -0.1946
  160SAPE   C2217809   5.887   7.511   3.174 -0.0205  0.5333 -0.3620
  160SAPE   H2R17810   5.982   7.561   3.148  1.0915 -2.2567 -2.1496
  160SAPE   H2S17811   5.817   7.499   3.088 -1.0166 -1.2392  0.6356
  160SAPE    C317812   6.173   7.167   3.268  0.5436  0.2628  0.0867
  160SAPE    HX17813   6.237   7.239   3.213 -0.2363  1.0760  0.2042
  160SAPE    HY17814   6.221   7.067   3.264 -1.1374 -0.7086  2.1807
  160SAPE   O3117815   6.136   7.215   3.399  0.1542 -0.1666 -0.1536
  160SAPE   C3117816   6.062   7.133   3.477 -0.0433 -0.8797 -0.4938
  160SAPE   O3217817   6.040   7.019   3.448  0.6091  0.6665 -0.6286
  160SAPE   C3217818   6.023   7.217   3.599 -0.4026 -0.1885  1.0004
  160SAPE   H2X17819   5.913   7.233   3.588 -0.2631 -0.4660 -1.6997
  160SAPE   H2Y17820   6.073   7.316   3.602  1.1611 -0.9338  0.4016
  160SAPE   C2317821   5.813   7.591   3.277  0.0586 -0.4912 -0.4745
  160SAPE   H3R17822   5.723   7.536   3.312  1.1797 -1.4658  0.9927
  160SAPE   H3S17823   5.776   7.681   3.223  1.4770 -1.2414 -2.8340
  160SAPE   C2417824   5.899   7.649   3.392  0.0443  0.3463 -0.0304
  160SAPE   H4R17825   5.978   7.714   3.348  1.2552 -1.9766 -1.5362
  160SAPE   H4S17826   5.956   7.566   3.439  0.0036 -0.0879 -0.7321
  160SAPE   C2517827   5.797   7.709   3.486 -0.1180  0.3386  0.0225
  160SAPE   H5R17828   5.774   7.814   3.462 -0.5621 -0.1140 -1.6967
  160SAPE   C2617829   5.744   7.646   3.595 -0.6840  0.2293 -0.4746
  160SAPE   H6R17830   5.680   7.702   3.665  0.9036  0.9975  0.4219
  160SAPE   C2717831   5.765   7.505   3.642 -0.4006 -0.6891  0.7091
  160SAPE   H7R17832   5.829   7.447   3.572 -0.5697  1.9591 -1.7951
  160SAPE   H7S17833   5.662   7.464   3.635 -1.6837  2.6151 -2.6629
  160SAPE   C2817834   5.830   7.503   3.779 -0.1090  0.1856  0.6626
  160SAPE   H8R17835   5.938   7.489   3.773 -0.1960 -0.0004 -0.7624
  160SAPE   C2917836   5.769   7.477   3.897  0.4829 -0.3071  0.7402
  160SAPE   H9R17837   5.835   7.476   3.985 -1.7540 -0.1030  2.5181
  160SAPE  C21017838   5.619   7.483   3.916 -0.0574  0.6992  0.3970
  160SAPE  H10R17839   5.579   7.508   3.815  3.4868 -2.1355 -1.9933
  160SAPE  H10S17840   5.589   7.567   3.982 -1.1128  0.1879  0.5725
  160SAPE  C21117841   5.569   7.355   3.980 -0.3712 -0.0303  0.3326
  160SAPE  H11R17842   5.563   7.268   3.912  3.2513 -0.7436  0.7224
  160SAPE  C21217843   5.533   7.338   4.106  0.0781  0.0507  0.1518
  160SAPE  H12R17844   5.501   7.238   4.137  0.3639 -0.0040  0.2746
  160SAPE  C21317845   5.555   7.435   4.213 -0.3788 -0.6378  0.3992
  160SAPE  H13R17846   5.455   7.475   4.243  0.4726  1.8153  0.1226
  160SAPE  H13S17847   5.602   7.530   4.181 -1.6391  0.8563  2.6502
  160SAPE  C21417848   5.633   7.384   4.327  0.2423 -0.2488 -0.9531
  160SAPE  H14R17849   5.739   7.369   4.302  0.6259  3.5583 -2.3345
  160SAPE  C21517850   5.601   7.365   4.453 -0.1524  0.1113  0.5480
  160SAPE  H15R17851   5.681   7.322   4.514  1.4292  1.7528 -0.2584
  160SAPE  C21617852   5.471   7.409   4.516 -0.6705 -0.0725  0.3916
  160SAPE  H16R17853   5.387   7.341   4.494  0.1749 -1.1358  0.3435
  160SAPE  H16S17854   5.433   7.511   4.491 -0.5454  0.8203  3.5006
  160SAPE  C21717855   5.498   7.423   4.664  0.0686  0.2117  0.3212
  160SAPE  H17R17856   5.581   7.495   4.681  2.6270 -2.4410 -0.2994
  160SAPE  H17S17857   5.513   7.324   4.710  0.4990  0.5903  1.0047
  160SAPE  C21817858   5.373   7.488   4.734 -0.1282  0.1735  0.1782
  160SAPE  H18R17859   5.282   7.434   4.699 -0.3273 -0.1842  1.2173
  160SAPE  H18S17860   5.372   7.591   4.693 -0.0785 -0.4112 -1.3521
  160SAPE  C21917861   5.363   7.480   4.889  0.3985 -0.4669  0.5704
  160SAPE  H19R17862   5.357   7.372   4.912  1.1119 -0.4323  0.9477
  160SAPE  H19S17863   5.272   7.533   4.924 -0.0013 -1.3138  0.8343
  160SAPE  C22017864   5.476   7.543   4.972 -0.2989 -0.5046 -0.1051
  160SAPE  H20R17865   5.565   7.479   4.953  0.3250  0.9957 -2.6834
  160SAPE  H20S17866   5.433   7.532   5.074 -3.1448 -1.3206 -1.2959
  160SAPE  H20T17867   5.497   7.648   4.946  0.0444 -0.6762 -0.5305
  160SAPE   C3317868   6.043   7.133   3.730 -0.1211 -0.2494 -0.1747
  160SAPE   H3X17869   6.149   7.110   3.752 -0.2140 -0.4203  0.0938
  160SAPE   H3Y17870   5.987   7.038   3.711 -2.4902  1.0336  0.0431
  160SAPE   C3417871   5.992   7.192   3.866  0.5520  0.0369  0.2379
  160SAPE   H4X17872   5.890   7.219   3.832  0.5404 -0.1771  0.0982
  160SAPE   H4Y17873   6.047   7.287   3.884  0.4447  0.3088 -0.7870
  160SAPE   C3517874   5.998   7.099   3.977 -0.0342  0.0573 -0.2802
  160SAPE   H5X17875   6.105   7.079   3.999  0.0433  0.9577  0.2484
  160SAPE   H5Y17876   5.954   7.000   3.954  0.7720 -0.5000  0.5311
  160SAPE   C3617877   5.931   7.160   4.107 -1.1289  0.5294 -0.1698
  160SAPE   H6X17878   5.823   7.177   4.088 -0.7271  0.4384 -2.8831
  160SAPE   H6Y17879   5.983   7.257   4.123 -0.0741 -0.3313  2.0125
  160SAPE   C3717880   5.956   7.072   4.222 -0.3138  0.5139 -0.0130
  160SAPE   H7X17881   6.066   7.061   4.238 -0.4761 -2.2151 -0.3274
  160SAPE   H7Y17882   5.912   6.970   4.212  0.0147  0.4271 -0.6357
  160SAPE   C3817883   5.892   7.126   4.354  0.2929 -0.8248  0.5572
  160SAPE   H8X17884   5.782   7.143   4.344  0.7927  1.8125 -1.5892
  160SAPE   H8Y17885   5.943   7.223   4.371  1.1251 -1.4158  1.4800
  160SAPE   C3917886   5.907   7.031   4.472  0.1256 -0.1527 -0.1352
  160SAPE   H9X17887   6.015   7.032   4.500  0.0042  0.1053  0.3316
  160SAPE   H9Y17888   5.894   6.925   4.440  0.7611 -0.7830  1.5899
  160SAPE  C31017889   5.816   7.061   4.596 -0.2365  0.1186 -0.2094
  160SAPE  H10X17890   5.705   7.058   4.587 -0.2936  0.2147  0.4035
  160SAPE  H10Y17891   5.842   7.163   4.631 -0.7585  0.3862 -0.5979
  160SAPE  C31117892   5.856   6.974   4.722 -0.2248 -0.5785  0.2541
  160SAPE  H11X17893   5.955   7.005   4.762 -1.0907 -0.2092  2.2147
  160SAPE  H11Y17894   5.876   6.868   4.697 -1.6583 -0.6599 -0.6672
  160SAPE  C31217895   5.754   6.976   4.838 -0.2199 -0.2966 -0.5365
  160SAPE  H12X17896   5.781   6.896   4.910 -0.2236  0.5236  0.4118
  160SAPE  H12Y17897   5.651   6.960   4.802 -1.3716  1.2391  1.8347
  160SAPE  C31317898   5.767   7.104   4.923 -0.5983 -0.1434 -0.3354
  160SAPE  H13X17899   5.754   7.199   4.865 -0.0495  0.6939  0.8790
  160SAPE  H13Y17900   5.872   7.106   4.958 -0.5432 -0.3558 -0.4877
  160SAPE  C31417901   5.680   7.121   5.054 -0.7527 -0.6458  0.1000
  160SAPE  H14X17902   5.726   7.199   5.119 -2.1534  0.8713 -0.6655
  160SAPE  H14Y17903   5.681   7.030   5.118  0.8422 -1.5147 -1.0906
  160SAPE  C31517904   5.537   7.160   5.021  0.0369  0.5902  0.3333
  160SAPE  H15X17905   5.492   7.084   4.954 -1.5722  0.9327  0.9780
  160SAPE  H15Y17906   5.544   7.250   4.957 -1.4899 -0.1104 -0.8824
  160SAPE  C31617907   5.440   7.197   5.129  0.0239 -0.1647  0.1066
  160SAPE  H16X17908   5.335   7.208   5.095 -0.1685 -1.1138  0.3623
  160SAPE  H16Y17909   5.460   7.289   5.188 -1.8986 -1.1363  2.4438
  160SAPE  C31717910   5.428   7.082   5.233  0.3459  0.0745 -0.3222
  160SAPE  H17X17911   5.521   7.061   5.290  0.4607  0.6494 -0.2939
  160SAPE  H17Y17912   5.412   6.994   5.167  0.3799 -1.2229  1.3337
  160SAPE  C31817913   5.305   7.099   5.327 -0.1654  0.0338 -0.4159
  160SAPE  H18X17914   5.327   7.045   5.421 -2.8357  0.4474  0.5311
  160SAPE  H18Y17915   5.204   7.069   5.291 -0.6095 -1.3914  1.8846
  160SAPE  H18Z17916   5.305   7.206   5.358 -0.0495 -0.0179 -0.2394
  161SAPE     N17917   6.742   4.736   2.322  0.1023  0.6452 -0.0118
  161SAPE   HN117918   6.677   4.702   2.397  1.1843 -0.5279  0.4165
  161SAPE   HN217919   6.817   4.666   2.310 -0.7974 -0.3682  0.0498
  161SAPE   HN317920   6.773   4.828   2.359  0.3710 -0.3192  2.4098
  161SAPE   C1217921   6.648   4.742   2.209  0.0572 -0.2991 -0.7743
  161SAPE  H12A17922   6.660   4.644   2.158 -0.3744 -1.1458  0.7148
  161SAPE  H12B17923   6.680   4.828   2.146 -1.1334 -0.2950 -1.4220
  161SAPE   C1117924   6.503   4.758   2.262  0.6848  0.5956 -0.1560
  161SAPE  H11A17925   6.465   4.658   2.290  1.4224  0.2377 -0.4147
  161SAPE  H11B17926   6.439   4.795   2.179  0.6077  0.9878  0.0728
  161SAPE     P17927   6.370   4.860   2.475  0.1729  0.2212  0.1181
  161SAPE   O1317928   6.354   5.004   2.496  0.2494  0.2536  0.1580
  161SAPE   O1417929   6.251   4.783   2.423  0.7868 -0.4184 -0.2737
  161SAPE   O1217930   6.494   4.832   2.386  0.5054 -0.0311  0.4190
  161SAPE   O1117931   6.418   4.788   2.605  0.3113 -0.2888 -0.1272
  161SAPE    C117932   6.344   4.774   2.717  0.3791 -0.2086 -0.5685
  161SAPE    HA17933   6.397   4.815   2.806 -0.9121  0.3962 -0.0642
  161SAPE    HB17934   6.246   4.825   2.726 -1.3785 -3.6538  4.0103
  161SAPE    C217935   6.309   4.627   2.732 -0.3485 -0.3383  0.0011
  161SAPE    HS17936   6.243   4.599   2.647 -0.3580  2.4730 -1.0401
  161SAPE   O2117937   6.237   4.629   2.858  0.0996  0.5835 -0.4801
  161SAPE   C2117938   6.146   4.538   2.867  0.6533 -0.2904 -0.4960
  161SAPE   O2217939   6.124   4.454   2.782  0.0401  0.0628  0.5480
  161SAPE   C2217940   6.075   4.555   2.997 -0.0981  0.7173 -0.0185
  161SAPE   H2R17941   6.050   4.662   3.008 -2.2136  0.4293 -1.4222
  161SAPE   H2S17942   5.976   4.504   3.002  1.3809 -2.3553  0.5902
  161SAPE    C317943   6.437   4.546   2.739 -0.1414 -0.2931  0.0555
  161SAPE    HX17944   6.506   4.605   2.803  0.5678 -0.4427 -0.5535
  161SAPE    HY17945   6.504   4.543   2.651 -0.5731 -2.7140 -0.2652
  161SAPE   O3117946   6.421   4.414   2.795  0.3927  0.0583 -0.3460
  161SAPE   C3117947   6.411   4.316   2.700 -0.5726  0.2808  0.0126
  161SAPE   O3217948   6.425   4.337   2.579 -0.3622  0.1895 -0.2467
  161SAPE   C3217949   6.382   4.187   2.781 -0.0786 -0.0235 -0.5983
  161SAPE   H2X17950   6.415   4.105   2.713  1.6121  0.4472 -0.3897
  161SAPE   H2Y17951   6.272   4.188   2.796  0.0442  0.0935  0.3722
  161SAPE   C2317952   6.152   4.497   3.115 -0.0563  0.1759 -0.4532
  161SAPE   H3R17953   6.215   4.408   3.094  1.4317  1.2360 -0.6425
  161SAPE   H3S17954   6.078   4.455   3.186  2.5859 -1.9127  1.3016
  161SAPE   C2417955   6.246   4.606   3.179  0.4086  0.0686 -0.3844
  161SAPE   H4R17956   6.184   4.693   3.209 -2.0629 -1.9337  0.7593
  161SAPE   H4S17957   6.313   4.640   3.098  0.0792  0.3178 -0.5569
  161SAPE   C2517958   6.316   4.542   3.297 -0.1743 -0.3797  0.5001
  161SAPE   H5R17959   6.424   4.548   3.274 -0.7941  1.3317 -2.5246
  161SAPE   C2617960   6.257   4.520   3.415 -0.1155  0.4036 -1.0764
  161SAPE   H6R17961   6.331   4.491   3.492 -0.5370  1.4568 -0.2532
  161SAPE   C2717962   6.116   4.529   3.456  0.0449  1.0729  0.0783
  161SAPE   H7R17963   6.090   4.422   3.450  1.1537  0.8359 -0.8187
  161SAPE   H7S17964   6.057   4.581   3.378  0.7225  0.7555 -0.6588
  161SAPE   C2817965   6.082   4.586   3.590 -1.1317  0.2659  0.0990
  161SAPE   H8R17966   6.048   4.691   3.586 -0.4375  0.4871 -0.1864
  161SAPE   C2917967   6.100   4.520   3.706 -0.1904  1.3477  0.2838
  161SAPE   H9R17968   6.066   4.573   3.797 -1.6482 -0.5645  0.9240
  161SAPE  C21017969   6.132   4.373   3.736 -0.2603 -0.9447  0.5930
  161SAPE  H10R17970   6.241   4.359   3.721 -0.2715  0.4204 -1.0112
  161SAPE  H10S17971   6.089   4.316   3.650  1.6507 -0.9487 -0.4193
  161SAPE  C21117972   6.080   4.296   3.851  0.1634  0.2666 -0.2434
  161SAPE  H11R17973   6.049   4.193   3.828 -1.9709  0.4920  1.3138
  161SAPE  C21217974   6.087   4.323   3.985  0.0355 -0.6540  0.2026
  161SAPE  H12R17975   6.039   4.243   4.044 -1.2959 -0.7381 -0.9343
  161SAPE  C21317976   6.132   4.451   4.055  0.4903  0.3719  0.2044
  161SAPE  H13R17977   6.051   4.522   4.029  1.1307  1.9451  2.2129
  161SAPE  H13S17978   6.224   4.497   4.012  1.3495  2.2247  3.6427
  161SAPE  C21417979   6.148   4.451   4.209 -0.0297  0.5545 -0.0268
  161SAPE  H14R17980   6.245   4.490   4.242  0.9266  0.7740 -2.8612
  161SAPE  C21517981   6.062   4.444   4.306  0.4064  0.1169 -0.1754
  161SAPE  H15R17982   6.098   4.429   4.409  0.6566 -1.7716 -0.4981
  161SAPE  C21617983   5.913   4.416   4.280 -0.6954 -0.1291  0.4001
  161SAPE  H16R17984   5.897   4.338   4.203  2.8774  0.6245 -1.2792
  161SAPE  H16S17985   5.871   4.505   4.229 -1.0633  1.0585  2.6170
  161SAPE  C21717986   5.837   4.397   4.416 -0.1465  0.7258  0.1048
  161SAPE  H17R17987   5.875   4.451   4.506 -1.9356  1.5521  0.4293
  161SAPE  H17S17988   5.822   4.291   4.444 -1.7586  1.1891  1.2152
  161SAPE  C21817989   5.691   4.441   4.403  0.7598 -0.3147 -0.4431
  161SAPE  H18R17990   5.653   4.401   4.307 -2.0081 -1.8742  1.1540
  161SAPE  H18S17991   5.695   4.551   4.388  0.4933 -0.3682 -0.9104
  161SAPE  C21917992   5.606   4.416   4.529 -0.3672 -0.4586 -0.2094
  161SAPE  H19R17993   5.662   4.474   4.605  0.0429 -0.9363 -0.1404
  161SAPE  H19S17994   5.615   4.311   4.564  0.3783 -0.4705 -0.4148
  161SAPE  C22017995   5.458   4.461   4.526  0.4395  0.9628 -0.1643
  161SAPE  H20R17996   5.449   4.558   4.474 -0.4523  1.1664  0.3453
  161SAPE  H20S17997   5.410   4.461   4.626 -0.3808 -0.6079 -0.5235
  161SAPE  H20T17998   5.400   4.385   4.468  0.1618  1.8598 -1.0868
  161SAPE   C3317999   6.465   4.164   2.906  0.1956 -0.0345 -0.3509
  161SAPE   H3X18000   6.481   4.256   2.965  2.6888 -1.7944  1.9900
  161SAPE   H3Y18001   6.568   4.135   2.875  0.7980 -0.0195  1.5454
  161SAPE   C3418002   6.416   4.057   2.994  0.3221  0.0600 -0.4897
  161SAPE   H4X18003   6.437   3.952   2.966  1.6740 -0.5745  2.4131
  161SAPE   H4Y18004   6.305   4.061   2.992  0.2869 -0.5813 -0.0593
  161SAPE   C3518005   6.472   4.063   3.140 -0.1898 -0.0451 -0.2235
  161SAPE   H5X18006   6.441   4.163   3.175  0.0079 -0.0588 -0.0078
  161SAPE   H5Y18007   6.583   4.063   3.149 -0.3580 -1.8111  4.3799
  161SAPE   C3618008   6.407   3.960   3.237  0.7068 -0.1700  0.3968
  161SAPE   H6X18009   6.444   3.859   3.207 -0.5474  0.5384 -4.2455
  161SAPE   H6Y18010   6.299   3.963   3.214  0.4280  1.5354  1.7535
  161SAPE   C3718011   6.436   3.982   3.386  0.3629 -0.0163  0.4770
  161SAPE   H7X18012   6.424   4.089   3.410  0.9973 -0.0078  0.7622
  161SAPE   H7Y18013   6.543   3.957   3.405  0.7627 -0.8176 -2.3143
  161SAPE   C3818014   6.344   3.907   3.485  0.0339 -0.6507 -0.2567
  161SAPE   H8X18015   6.348   3.799   3.458  3.0288 -0.6926  0.0798
  161SAPE   H8Y18016   6.242   3.945   3.464 -0.6880 -0.1918  3.3920
  161SAPE   C3918017   6.369   3.929   3.631 -0.9795 -0.4130 -0.2134
  161SAPE   H9X18018   6.378   4.033   3.670  0.6439 -0.2838 -0.8484
  161SAPE   H9Y18019   6.466   3.878   3.651 -0.8084 -0.0420 -0.0810
  161SAPE  C31018020   6.261   3.859   3.713 -0.1964 -0.6325  0.1652
  161SAPE  H10X18021   6.274   3.749   3.706  0.0068 -0.5380 -1.0817
  161SAPE  H10Y18022   6.156   3.870   3.681  0.2571 -1.4065 -1.7398
  161SAPE  C31118023   6.274   3.893   3.864  0.2411  0.6353 -0.1248
  161SAPE  H11X18024   6.241   3.996   3.890  0.6606  0.3183  1.8634
  161SAPE  H11Y18025   6.378   3.883   3.903 -0.1700  0.3523  0.9374
  161SAPE  C31218026   6.190   3.795   3.943 -0.3941 -0.6673 -0.1723
  161SAPE  H12X18027   6.236   3.695   3.942  1.7810  0.2652 -2.2032
  161SAPE  H12Y18028   6.093   3.782   3.890 -0.5980 -0.4581  0.1386
  161SAPE  C31318029   6.157   3.850   4.086  0.0423 -0.1539  0.1593
  161SAPE  H13X18030   6.084   3.778   4.129 -2.2757  2.1062  0.2194
  161SAPE  H13Y18031   6.104   3.947   4.079 -0.3741 -0.3708  0.3014
  161SAPE  C31418032   6.272   3.877   4.191 -0.3822  0.2730  0.3863
  161SAPE  H14X18033   6.338   3.946   4.135  1.0831 -0.4050  1.2105
  161SAPE  H14Y18034   6.323   3.780   4.212  1.2169  1.2115  0.9756
  161SAPE  C31518035   6.226   3.926   4.338  0.2498  0.7646  0.6710
  161SAPE  H15X18036   6.143   3.999   4.323 -0.7946 -0.3089  1.0613
  161SAPE  H15Y18037   6.319   3.963   4.386 -0.3878 -0.4067  2.9770
  161SAPE  C31618038   6.178   3.809   4.435  0.1753  0.6398  0.5705
  161SAPE  H16X18039   6.229   3.713   4.413 -1.4352 -0.8158  2.7801
  161SAPE  H16Y18040   6.070   3.792   4.415  0.4039  0.5817 -0.6904
  161SAPE  C31718041   6.202   3.843   4.580  0.6637 -1.1072 -0.3729
  161SAPE  H17X18042   6.161   3.943   4.606  2.8343 -0.0139 -0.9658
  161SAPE  H17Y18043   6.312   3.842   4.593  0.4132  0.4413  3.1382
  161SAPE  C31818044   6.152   3.737   4.678  0.4605 -0.2971 -0.2103
  161SAPE  H18X18045   6.174   3.773   4.781 -1.5943 -0.2668  0.2521
  161SAPE  H18Y18046   6.192   3.635   4.659  0.6880 -0.4144  0.8225
  161SAPE  H18Z18047   6.043   3.728   4.659  0.4185 -0.1921 -0.0191
  162SAPE     N18048   5.787   4.738   2.573 -0.1053 -0.6174  0.1491
  162SAPE   HN118049   5.751   4.759   2.668 -0.5288  0.1946 -0.1827
  162SAPE   HN218050   5.867   4.805   2.564 -1.2047  0.7120 -0.0594
  162SAPE   HN318051   5.714   4.763   2.503 -0.5670  0.5425  1.0276
  162SAPE   C1218052   5.827   4.591   2.565  0.3963 -0.0819  0.4097
  162SAPE  H12A18053   5.938   4.596   2.564  0.4325 -0.3380  1.7010
  162SAPE  H12B18054   5.794   4.549   2.467 -1.8310 -1.9702  1.8811
  162SAPE   C1118055   5.763   4.517   2.686 -0.2469 -0.3861  0.3929
  162SAPE  H11A18056   5.802   4.413   2.689 -0.0269 -0.3122  0.2006
  162SAPE  H11B18057   5.653   4.505   2.676 -0.0597 -0.9502 -1.2958
  162SAPE     P18058   5.688   4.647   2.904 -0.1954 -0.0559 -0.1844
  162SAPE   O1318059   5.671   4.782   2.844  0.1714  0.5213 -0.6539
  162SAPE   O1418060   5.570   4.567   2.946 -0.3361  0.4517  0.0087
  162SAPE   O1218061   5.791   4.567   2.815  0.5758  0.2785  0.4496
  162SAPE   O1118062   5.780   4.664   3.036  0.0616 -0.0406  0.1822
  162SAPE    C118063   5.740   4.598   3.155  0.0822 -0.5054  0.2662
  162SAPE    HA18064   5.717   4.490   3.137 -2.2096 -0.3173  1.7138
  162SAPE    HB18065   5.820   4.605   3.231  0.3889 -1.4291  0.0461
  162SAPE    C218066   5.619   4.675   3.213  0.9212  0.2983 -0.0568
  162SAPE    HS18067   5.556   4.699   3.125  1.7750 -3.6426 -1.9207
  162SAPE   O2118068   5.662   4.797   3.283 -0.1603 -0.7076  0.3784
  162SAPE   C2118069   5.563   4.889   3.285  0.1198 -0.4339  0.5662
  162SAPE   O2218070   5.458   4.888   3.220 -0.4811  0.1138  0.0676
  162SAPE   C2218071   5.601   4.989   3.386  0.4774 -0.3011  0.2596
  162SAPE   H2R18072   5.527   4.989   3.469  1.2828  2.5542  1.0994
  162SAPE   H2S18073   5.698   4.966   3.435  0.8421 -0.7708 -0.6522
  162SAPE    C318074   5.539   4.586   3.307 -0.4225  0.0872 -0.0718
  162SAPE    HX18075   5.523   4.489   3.256 -0.5565  0.1986 -0.2458
  162SAPE    HY18076   5.440   4.632   3.328  0.6754  2.6215 -0.1158
  162SAPE   O3118077   5.603   4.566   3.430  0.5377 -0.1540 -0.0169
  162SAPE   C3118078   5.581   4.656   3.525 -0.0676 -0.0418 -0.5276
  162SAPE   O3218079   5.498   4.748   3.520 -0.2990  0.0713 -0.6325
  162SAPE   C3218080   5.705   4.644   3.611 -0.2344 -1.2317 -0.4477
  162SAPE   H2X18081   5.782   4.698   3.551 -0.1365 -0.3795  0.4158
  162SAPE   H2Y18082   5.728   4.538   3.634 -4.6963 -1.8651  2.3506
  162SAPE   C2318083   5.605   5.134   3.327  0.0807 -0.9081 -1.4818
  162SAPE   H3R18084   5.521   5.156   3.258 -0.9159  1.5011  0.3618
  162SAPE   H3S18085   5.695   5.150   3.264  0.3320 -0.9567 -1.1348
  162SAPE   C2418086   5.615   5.242   3.443  0.4921 -0.4497 -0.1674
  162SAPE   H4R18087   5.644   5.342   3.403  0.0308 -0.5579 -0.7927
  162SAPE   H4S18088   5.686   5.212   3.522 -0.1217 -1.1054  0.1468
  162SAPE   C2518089   5.471   5.246   3.495 -0.0309  0.0657  0.3936
  162SAPE   H5R18090   5.397   5.301   3.436 -0.3031  1.5470  2.0406
  162SAPE   C2618091   5.438   5.203   3.618  0.5111  0.5208 -0.1539
  162SAPE   H6R18092   5.333   5.214   3.647 -0.2629 -4.9394  0.1410
  162SAPE   C2718093   5.532   5.148   3.723  0.2185 -0.1078  0.2287
  162SAPE   H7R18094   5.629   5.200   3.737 -0.2059  0.2865  2.1341
  162SAPE   H7S18095   5.553   5.044   3.693 -0.0879 -0.0773 -0.0963
  162SAPE   C2818096   5.468   5.153   3.861 -0.8371 -0.0495  0.8961
  162SAPE   H8R18097   5.363   5.120   3.864 -0.3608 -1.5923  2.4786
  162SAPE   C2918098   5.528   5.195   3.976  0.5081  0.0660 -0.7753
  162SAPE   H9R18099   5.464   5.216   4.063  1.5393 -0.9224  0.2545
  162SAPE  C21018100   5.677   5.228   3.994 -0.1827  0.0332  0.8854
  162SAPE  H10R18101   5.685   5.301   4.078  1.5681  1.0250 -0.0930
  162SAPE  H10S18102   5.719   5.283   3.907  3.2220 -1.4189  1.4489
  162SAPE  C21118103   5.762   5.109   4.021 -0.6028  0.0701 -0.6578
  162SAPE  H11R18104   5.828   5.075   3.941  3.0541  3.1802  0.7327
  162SAPE  C21218105   5.777   5.042   4.143 -0.0877 -0.0382  0.1642
  162SAPE  H12R18106   5.838   4.950   4.150 -0.9162 -0.4517  2.7265
  162SAPE  C21318107   5.709   5.066   4.269 -0.2204 -0.5016 -0.7419
  162SAPE  H13R18108   5.648   4.974   4.279  0.4234 -0.8761 -0.1405
  162SAPE  H13S18109   5.641   5.154   4.271 -0.1180 -0.4242  0.5359
  162SAPE  C21418110   5.804   5.085   4.383 -0.6978 -0.3692  0.1715
  162SAPE  H14R18111   5.893   5.143   4.357 -0.2944 -1.1199 -0.1449
  162SAPE  C21518112   5.783   5.068   4.512 -0.1497  0.3333  0.3084
  162SAPE  H15R18113   5.872   5.088   4.574  1.6753  0.3099 -2.1423
  162SAPE  C21618114   5.652   5.023   4.571 -0.6667  0.0351 -0.1942
  162SAPE  H16R18115   5.564   5.066   4.519 -0.5054 -0.0959 -0.5795
  162SAPE  H16S18116   5.652   5.051   4.678 -1.4782 -0.8433  0.0488
  162SAPE  C21718117   5.641   4.862   4.567  0.4852  0.6475 -0.4537
  162SAPE  H17R18118   5.680   4.817   4.473 -1.3936  0.4630 -1.1730
  162SAPE  H17S18119   5.532   4.847   4.581  0.7481 -1.1794 -0.0526
  162SAPE  C21818120   5.702   4.795   4.693  0.2301 -0.2061 -0.3572
  162SAPE  H18R18121   5.785   4.860   4.728  1.0106 -1.9876  1.2808
  162SAPE  H18S18122   5.758   4.711   4.646  0.8276  0.5562 -1.0595
  162SAPE  C21918123   5.604   4.746   4.809 -0.6378  0.1455  0.2592
  162SAPE  H19R18124   5.541   4.658   4.783  0.1607 -0.1269 -0.8265
  162SAPE  H19S18125   5.544   4.833   4.844  0.8450  0.7371  1.3829
  162SAPE  C22018126   5.675   4.717   4.935 -0.7659 -0.0091  0.2445
  162SAPE  H20R18127   5.737   4.807   4.956  2.4767 -2.0080  0.0146
  162SAPE  H20S18128   5.738   4.626   4.921 -1.5459 -0.7256  1.2578
  162SAPE  H20T18129   5.608   4.702   5.022  0.3185 -0.1307  1.0776
  162SAPE   C3318130   5.688   4.721   3.750  0.0293  0.5443  0.6893
  162SAPE   H3X18131   5.637   4.819   3.741  1.3894  1.5586  3.1684
  162SAPE   H3Y18132   5.788   4.743   3.792  0.0434  2.5423 -0.2720
  162SAPE   C3418133   5.604   4.655   3.855  0.0614 -0.0549 -0.3397
  162SAPE   H4X18134   5.666   4.566   3.878 -2.2551 -1.8231 -0.5360
  162SAPE   H4Y18135   5.508   4.621   3.811 -0.0538 -1.3083  0.8090
  162SAPE   C3518136   5.570   4.741   3.976  0.1979 -0.1407 -0.1263
  162SAPE   H5X18137   5.507   4.830   3.955  0.5996  0.7634  2.1658
  162SAPE   H5Y18138   5.667   4.771   4.020  1.3952 -2.3646 -1.0747
  162SAPE   C3618139   5.485   4.668   4.083  0.1325 -0.1816  0.1568
  162SAPE   H6X18140   5.537   4.573   4.104  0.8828 -0.0364 -0.9198
  162SAPE   H6Y18141   5.390   4.627   4.042  0.4071 -1.1142  0.4463
  162SAPE   C3718142   5.450   4.757   4.207 -0.2201  0.3200  0.4673
  162SAPE   H7X18143   5.535   4.779   4.275 -2.2376 -0.3778  3.4543
  162SAPE   H7Y18144   5.376   4.708   4.275  0.2840  0.8510  1.4122
  162SAPE   C3818145   5.374   4.891   4.171 -0.6046 -0.2335  0.5805
  162SAPE   H8X18146   5.305   4.865   4.087  0.2006  1.8724 -0.7871
  162SAPE   H8Y18147   5.451   4.961   4.135 -1.5002  0.5894  0.2180
  162SAPE   C3918148   5.304   4.953   4.295 -0.2145  0.3448  0.9619
  162SAPE   H9X18149   5.347   4.924   4.394  0.8343 -0.3446  0.3348
  162SAPE   H9Y18150   5.203   4.907   4.293  0.7061 -1.8604 -1.8099
  162SAPE  C31018151   5.308   5.106   4.296  0.3284  0.2389 -0.5351
  162SAPE  H10X18152   5.299   5.135   4.189 -1.2001 -3.1993 -1.4688
  162SAPE  H10Y18153   5.405   5.142   4.336  0.7176  0.1101 -1.3539
  162SAPE  C31118154   5.198   5.156   4.390  0.5361 -0.1858  0.2639
  162SAPE  H11X18155   5.217   5.136   4.498 -1.3627  0.9304  0.8593
  162SAPE  H11Y18156   5.098   5.112   4.371  0.4111 -0.4662  1.5064
  162SAPE  C31218157   5.173   5.305   4.356 -0.3122  0.6833  0.1735
  162SAPE  H12X18158   5.116   5.299   4.261 -0.3937  1.3053  0.1769
  162SAPE  H12Y18159   5.266   5.364   4.342  0.1755 -0.4590 -1.5829
  162SAPE  C31318160   5.095   5.374   4.461  0.4044 -0.2268 -0.3212
  162SAPE  H13X18161   5.016   5.308   4.505 -0.3936  0.1801 -1.1214
  162SAPE  H13Y18162   5.052   5.467   4.417 -0.5892  0.2825  1.5979
  162SAPE  C31418163   5.181   5.431   4.576 -0.0182 -0.1661 -0.2688
  162SAPE  H14X18164   5.258   5.491   4.523 -0.3086  0.3516 -0.1120
  162SAPE  H14Y18165   5.231   5.350   4.634 -0.7210  1.4370  2.8016
  162SAPE  C31518166   5.100   5.512   4.676 -0.0969  0.1069  0.2836
  162SAPE  H15X18167   5.017   5.441   4.696  1.3694 -1.3084  1.5558
  162SAPE  H15Y18168   5.052   5.604   4.635 -0.0705  0.4620  1.0387
  162SAPE  C31618169   5.163   5.542   4.811 -0.4302  0.5069  0.1402
  162SAPE  H16X18170   5.253   5.605   4.793 -0.9026  2.1520  2.9496
  162SAPE  H16Y18171   5.198   5.455   4.870 -1.9544 -0.2930 -0.0706
  162SAPE  C31718172   5.072   5.634   4.895  0.0973  0.7502  0.1134
  162SAPE  H17X18173   5.012   5.699   4.828  0.6678 -0.2835 -1.4479
  162SAPE  H17Y18174   5.127   5.694   4.970 -0.7219 -0.3006  1.6156
  162SAPE  C31818175   4.968   5.544   4.969  0.5593 -0.2644  0.0951
  162SAPE  H18X18176   5.023   5.470   5.031 -0.1860 -3.2523 -2.5744
  162SAPE  H18Y18177   4.914   5.480   4.896  1.8234 -0.9254 -0.3046
  162SAPE  H18Z18178   4.882   5.589   5.023 -0.5247 -1.6243 -0.4448
  163SAPE     N18179   5.606   3.341   2.488 -0.2706 -0.9143 -0.1582
  163SAPE   HN118180   5.710   3.339   2.483 -0.1945  0.7296  0.1123
  163SAPE   HN218181   5.573   3.291   2.573  0.1148 -1.1754 -0.1592
  163SAPE   HN318182   5.570   3.291   2.404  1.8077  2.3807 -3.2836
  163SAPE   C1218183   5.558   3.482   2.506 -0.4354  0.2632  0.3329
  163SAPE  H12A18184   5.447   3.483   2.501 -0.3819  1.0957 -1.7782
  163SAPE  H12B18185   5.591   3.543   2.419  0.1044 -0.0974  0.2796
  163SAPE   C1118186   5.610   3.539   2.637  0.2823 -0.1373  0.3968
  163SAPE  H11A18187   5.584   3.647   2.635 -0.0962 -0.1588 -3.2485
  163SAPE  H11B18188   5.721   3.537   2.634  0.3356 -0.9203 -3.9461
  163SAPE     P18189   5.464   3.524   2.855 -0.0674 -0.2930  0.0801
  163SAPE   O1318190   5.332   3.558   2.803  0.4617  0.5476 -0.3046
  163SAPE   O1418191   5.472   3.433   2.971 -0.3465  0.0334 -0.5314
  163SAPE   O1218192   5.559   3.460   2.748  0.2537  0.1713  0.4314
  163SAPE   O1118193   5.550   3.648   2.886 -0.0360 -0.0152  0.5061
  163SAPE    C118194   5.675   3.637   2.951  0.6815  0.0091 -0.1335
  163SAPE    HA18195   5.669   3.568   3.038  0.0011  0.8790  0.5406
  163SAPE    HB18196   5.752   3.599   2.882 -0.0648 -1.7614 -0.0465
  163SAPE    C218197   5.729   3.777   3.000  0.1704  0.1069 -0.9635
  163SAPE    HS18198   5.796   3.766   3.088 -1.4635  1.9537  0.6064
  163SAPE   O2118199   5.625   3.867   3.043  0.4070  0.4767 -0.3247
  163SAPE   C2118200   5.586   3.868   3.171 -0.6241  0.1630  0.2070
  163SAPE   O2218201   5.620   3.789   3.258 -0.4001 -0.5549  0.3047
  163SAPE   C2218202   5.509   3.995   3.204  0.3754 -0.5996  0.2143
  163SAPE   H2R18203   5.545   4.081   3.144 -1.1776  1.2940  1.8460
  163SAPE   H2S18204   5.403   3.982   3.174  0.6560 -0.7831 -0.7276
  163SAPE    C318205   5.826   3.846   2.897 -0.0004  0.8739  1.0280
  163SAPE    HX18206   5.771   3.840   2.801  0.3662 -1.9668  0.8825
  163SAPE    HY18207   5.918   3.784   2.890 -0.0171  0.8265  1.2198
  163SAPE   O3118208   5.859   3.987   2.928 -0.0165 -0.3323  0.2863
  163SAPE   C3118209   5.981   4.026   2.941 -0.3599 -0.3274  0.0872
  163SAPE   O3218210   6.075   3.954   2.932 -0.3931  0.2082 -0.0985
  163SAPE   C3218211   5.983   4.176   2.997  0.3323 -0.2334 -0.1118
  163SAPE   H2X18212   5.939   4.237   2.915 -1.6089  0.2663  1.2341
  163SAPE   H2Y18213   6.085   4.210   3.026 -1.0434  2.5634  1.9261
  163SAPE   C2318214   5.517   4.037   3.357  0.0927  0.2235  0.1373
  163SAPE   H3R18215   5.618   4.009   3.393 -0.4249  1.8312  3.1439
  163SAPE   H3S18216   5.446   3.983   3.422  2.0145 -1.2276  1.1306
  163SAPE   C2418217   5.487   4.192   3.359  0.8368 -0.2882  0.1168
  163SAPE   H4R18218   5.559   4.244   3.292  1.8568 -1.3929  0.3174
  163SAPE   H4S18219   5.511   4.220   3.464 -0.8456  0.1400  0.4158
  163SAPE   C2518220   5.346   4.230   3.323  0.1802 -0.0818 -0.2562
  163SAPE   H5R18221   5.305   4.192   3.228  2.2763 -1.5628 -0.6407
  163SAPE   C2618222   5.268   4.311   3.403  0.8760  0.8508 -0.2769
  163SAPE   H6R18223   5.167   4.332   3.365 -0.0975 -1.4781  0.8063
  163SAPE   C2718224   5.299   4.378   3.535  0.8272  0.0454  0.5494
  163SAPE   H7R18225   5.281   4.487   3.523 -2.5669 -0.5151 -0.6675
  163SAPE   H7S18226   5.406   4.358   3.555  0.2177 -0.9549  3.3131
  163SAPE   C2818227   5.201   4.329   3.641 -0.0979  0.0354  0.1198
  163SAPE   H8R18228   5.103   4.378   3.628  0.2123  1.2484  1.9975
  163SAPE   C2918229   5.230   4.262   3.757 -0.9962  1.2243  0.4833
  163SAPE   H9R18230   5.153   4.248   3.835  0.8499 -1.8410  1.9343
  163SAPE  C21018231   5.366   4.214   3.788 -0.1825 -0.2728 -0.3763
  163SAPE  H10R18232   5.424   4.279   3.857  0.7908 -0.2787 -1.1662
  163SAPE  H10S18233   5.433   4.199   3.700  1.0194 -1.2005  0.6704
  163SAPE  C21118234   5.353   4.082   3.861 -0.2279  0.1344 -0.1491
  163SAPE  H11R18235   5.377   3.997   3.796  2.0084 -0.4531  1.3406
  163SAPE  C21218236   5.327   4.057   3.992 -0.3232  0.1011 -0.4426
  163SAPE  H12R18237   5.324   3.956   4.035  1.1174  0.9604  1.8540
  163SAPE  C21318238   5.299   4.152   4.107  0.1701 -0.2758  0.2407
  163SAPE  H13R18239   5.314   4.257   4.072  0.9933 -0.3325  0.3995
  163SAPE  H13S18240   5.385   4.150   4.177  2.1914 -1.9526 -2.1337
  163SAPE  C21418241   5.153   4.134   4.161 -0.3817  0.0229  0.0384
  163SAPE  H14R18242   5.080   4.159   4.082 -0.1904  1.0138  0.1585
  163SAPE  C21518243   5.115   4.086   4.280 -0.3005  0.2350 -0.2008
  163SAPE  H15R18244   5.007   4.092   4.301 -0.3993 -1.9074  0.1050
  163SAPE  C21618245   5.207   4.039   4.389  0.0277  0.1093  0.2772
  163SAPE  H16R18246   5.303   4.022   4.336 -0.4529  2.0679 -1.3280
  163SAPE  H16S18247   5.170   3.941   4.426  1.2659 -0.4242  0.1336
  163SAPE  C21718248   5.214   4.130   4.506 -0.5904 -0.1865 -0.3311
  163SAPE  H17R18249   5.112   4.174   4.516 -0.2382  1.7247 -3.6955
  163SAPE  H17S18250   5.288   4.211   4.493  0.8297 -1.1706  1.1983
  163SAPE  C21818251   5.261   4.065   4.637 -0.4698 -0.1505 -0.1645
  163SAPE  H18R18252   5.371   4.083   4.638 -0.7338  1.6299 -0.1927
  163SAPE  H18S18253   5.254   3.954   4.623  1.9157 -0.6578  1.9422
  163SAPE  C21918254   5.201   4.112   4.769  0.3874  0.0499  0.1462
  163SAPE  H19R18255   5.190   4.223   4.773 -1.5444 -0.1287  0.9972
  163SAPE  H19S18256   5.259   4.064   4.850  1.2957 -1.5064 -1.3630
  163SAPE  C22018257   5.051   4.067   4.784 -0.3676 -0.1136  0.1959
  163SAPE  H20R18258   4.982   4.134   4.729  0.7806  1.6737  0.8307
  163SAPE  H20S18259   5.025   4.047   4.890 -3.0302 -1.8766 -0.6581
  163SAPE  H20T18260   5.039   3.961   4.752 -1.3161 -0.5583  1.9057
  163SAPE   C3318261   5.904   4.192   3.128  0.8974  0.4118 -1.4022
  163SAPE   H3X18262   5.796   4.167   3.118  1.2945 -2.5843  0.5111
  163SAPE   H3Y18263   5.910   4.302   3.140  0.5444  0.4393 -1.4749
  163SAPE   C3418264   5.961   4.130   3.259  0.0887 -0.0394  0.3522
  163SAPE   H4X18265   6.059   4.180   3.273 -1.2634  2.4852  1.4025
  163SAPE   H4Y18266   5.966   4.019   3.252 -0.6816 -0.2401  2.3876
  163SAPE   C3518267   5.882   4.165   3.385 -0.6970  0.1363 -0.0497
  163SAPE   H5X18268   5.779   4.152   3.344  0.1692 -0.4290 -2.1867
  163SAPE   H5Y18269   5.897   4.272   3.412  0.1908  0.0453 -0.1621
  163SAPE   C3618270   5.906   4.079   3.509  0.8700 -0.4007 -0.4153
  163SAPE   H6X18271   6.006   4.105   3.548  0.2603  1.1062  0.2086
  163SAPE   H6Y18272   5.908   3.972   3.479 -1.4182 -0.2783 -1.2401
  163SAPE   C3718273   5.812   4.104   3.629  0.4324 -0.4907  0.4427
  163SAPE   H7X18274   5.706   4.107   3.596  0.3586 -0.4141  0.6879
  163SAPE   H7Y18275   5.827   4.207   3.666  0.8581 -0.4754  0.2339
  163SAPE   C3818276   5.840   4.011   3.744  0.0594  0.6025  0.8729
  163SAPE   H8X18277   5.950   3.999   3.752  0.6969  0.2760 -4.4628
  163SAPE   H8Y18278   5.811   3.907   3.717 -1.0609  0.6580  1.7812
  163SAPE   C3918279   5.787   4.052   3.881 -0.2620 -0.7579  0.4899
  163SAPE   H9X18280   5.676   4.051   3.895 -0.2883 -0.7013  0.2861
  163SAPE   H9Y18281   5.807   4.160   3.894 -0.5299 -0.5005 -1.0578
  163SAPE  C31018282   5.858   3.983   3.996 -0.5302 -0.2988 -0.3047
  163SAPE  H10X18283   5.930   4.055   4.040 -0.1241 -0.1487 -1.2014
  163SAPE  H10Y18284   5.909   3.892   3.958 -1.2711  0.0387 -2.2036
  163SAPE  C31118285   5.776   3.947   4.113  0.2232 -0.4797  0.2782
  163SAPE  H11X18286   5.722   3.853   4.090 -2.1468  1.0717 -1.0214
  163SAPE  H11Y18287   5.687   4.014   4.115 -0.5324 -1.4790  1.3506
  163SAPE  C31218288   5.845   3.947   4.251  0.3048  1.0060  0.6867
  163SAPE  H12X18289   5.894   4.046   4.266 -0.0783  1.2720  0.2254
  163SAPE  H12Y18290   5.929   3.875   4.258  0.1749  1.0069  3.3239
  163SAPE  C31318291   5.752   3.911   4.370  0.6530 -0.5929 -0.4804
  163SAPE  H13X18292   5.712   3.809   4.349  1.7122 -1.3417  0.9794
  163SAPE  H13Y18293   5.673   3.988   4.384  1.6703  0.3434  0.2443
  163SAPE  C31418294   5.832   3.900   4.507  0.8332 -0.3063 -0.0988
  163SAPE  H14X18295   5.904   3.983   4.521 -1.6559  1.4225  5.2473
  163SAPE  H14Y18296   5.896   3.809   4.509 -0.6705 -1.4013  1.0665
  163SAPE  C31518297   5.753   3.895   4.641 -0.2331 -0.2501 -0.4941
  163SAPE  H15X18298   5.831   3.888   4.719 -1.4830  3.0614  1.2511
  163SAPE  H15Y18299   5.709   3.794   4.628  1.2457 -0.8283 -1.2112
  163SAPE  C31618300   5.660   4.012   4.666  0.0268 -0.4943  0.2494
  163SAPE  H16X18301   5.579   4.001   4.591 -1.8518  0.4978  2.0185
  163SAPE  H16Y18302   5.712   4.109   4.649 -0.5230 -0.3114 -0.4330
  163SAPE  C31718303   5.597   4.024   4.802  0.6425  0.0987  0.3365
  163SAPE  H17X18304   5.551   3.929   4.835 -1.1770  0.4410 -1.0654
  163SAPE  H17Y18305   5.529   4.112   4.801 -0.0072 -0.2129  3.8685
  163SAPE  C31818306   5.698   4.061   4.909  0.4240 -0.2652  0.5080
  163SAPE  H18X18307   5.635   4.096   4.994 -2.3806 -2.9681 -0.2549
  163SAPE  H18Y18308   5.768   4.133   4.861  2.1565  0.2449  3.5185
  163SAPE  H18Z18309   5.759   3.974   4.942  0.3158 -0.7046 -0.4291
  164SAPE     N18310   2.161   3.155   2.299  1.4006 -0.0640  0.0072
  164SAPE   HN118311   2.133   3.153   2.400 -1.5748 -0.9269 -0.7308
  164SAPE   HN218312   2.116   3.074   2.252 -1.0016  1.3133 -0.2557
  164SAPE   HN318313   2.262   3.133   2.303  1.7518  1.4430  0.1183
  164SAPE   C1218314   2.131   3.286   2.242 -0.7196 -0.7515 -0.3790
  164SAPE  H12A18315   2.189   3.292   2.147 -2.4443 -1.8229 -1.5741
  164SAPE  H12B18316   2.172   3.362   2.312 -0.0641 -1.5261  0.1001
  164SAPE   C1118317   1.979   3.301   2.227 -0.3596  0.4576  0.3010
  164SAPE  H11A18318   1.960   3.237   2.137  0.6718  0.3115  0.1684
  164SAPE  H11B18319   1.951   3.402   2.190 -1.4738 -0.4801 -1.6009
  164SAPE     P18320   1.794   3.318   2.412 -0.0013  0.1547  0.2149
  164SAPE   O1318321   1.697   3.375   2.313 -0.3722 -0.2839 -0.0721
  164SAPE   O1418322   1.739   3.221   2.508  0.2263  0.5795  0.2997
  164SAPE   O1218323   1.915   3.256   2.344  0.4037 -0.9950  0.1761
  164SAPE   O1118324   1.864   3.436   2.491  0.5214  0.7922 -0.0167
  164SAPE    C118325   1.965   3.405   2.586  0.4218 -0.4109 -0.8373
  164SAPE    HA18326   2.010   3.304   2.578  1.3721 -0.3911  2.7025
  164SAPE    HB18327   2.044   3.483   2.578  0.0019  0.2629  1.1813
  164SAPE    C218328   1.900   3.380   2.725 -0.0269  0.2320  0.1589
  164SAPE    HS18329   1.825   3.299   2.725  2.1098 -1.8585  1.0139
  164SAPE   O2118330   1.832   3.506   2.756 -0.3496 -0.2869 -0.5342
  164SAPE   C2118331   1.741   3.504   2.853 -0.7378 -0.3984 -1.3053
  164SAPE   O2218332   1.708   3.404   2.912  0.2960 -0.1634 -0.0021
  164SAPE   C2218333   1.687   3.642   2.891 -0.3765 -0.0945  0.3236
  164SAPE   H2R18334   1.767   3.703   2.938 -1.2317  0.4219  1.1495
  164SAPE   H2S18335   1.660   3.688   2.794 -0.1912 -1.3295 -0.3301
  164SAPE    C318336   2.011   3.325   2.827  0.5185 -0.5677  0.5609
  164SAPE    HX18337   2.101   3.391   2.823 -0.1421  0.3084 -0.7346
  164SAPE    HY18338   2.048   3.226   2.794  1.5401 -0.2976  0.8526
  164SAPE   O3118339   1.967   3.325   2.962  0.2306  0.7850 -0.0492
  164SAPE   C3118340   1.914   3.207   3.007 -0.2462 -0.2652  0.5564
  164SAPE   O3218341   1.899   3.110   2.940  0.2483  0.6928 -0.0878
  164SAPE   C3218342   1.856   3.219   3.143  0.1243 -0.8367 -0.7414
  164SAPE   H2X18343   1.778   3.298   3.145  1.2859  0.3733  1.5591
  164SAPE   H2Y18344   1.935   3.256   3.213 -2.0837  0.0787  1.4092
  164SAPE   C2318345   1.559   3.657   2.973  0.0981  0.4892  0.1097
  164SAPE   H3R18346   1.590   3.605   3.066 -0.7992  0.5038  0.4236
  164SAPE   H3S18347   1.490   3.583   2.927  2.3670 -0.6438 -1.7214
  164SAPE   C2418348   1.499   3.795   2.984 -0.2782 -0.0500 -0.0469
  164SAPE   H4R18349   1.467   3.825   2.881  1.2509 -1.9964 -1.1588
  164SAPE   H4S18350   1.564   3.880   3.016 -2.5373  1.6855  0.2197
  164SAPE   C2518351   1.381   3.782   3.074 -0.0486 -0.4961 -0.1846
  164SAPE   H5R18352   1.302   3.713   3.043  1.3243 -2.5240  0.5839
  164SAPE   C2618353   1.364   3.845   3.196  0.5466  0.3525 -0.2133
  164SAPE   H6R18354   1.266   3.828   3.244  1.5955  0.8985  2.3159
  164SAPE   C2718355   1.468   3.937   3.266  0.0339 -0.4240 -0.2093
  164SAPE   H7R18356   1.414   4.015   3.323  1.7228  0.1449  0.6634
  164SAPE   H7S18357   1.518   3.998   3.188  0.5663 -1.6791 -0.8853
  164SAPE   C2818358   1.565   3.856   3.346  0.5446 -0.6354 -0.6270
  164SAPE   H8R18359   1.619   3.780   3.287 -1.1452 -0.1894 -2.9083
  164SAPE   C2918360   1.573   3.873   3.485  0.6060 -0.3328 -0.7027
  164SAPE   H9R18361   1.645   3.812   3.542 -0.3020 -0.6417  0.1425
  164SAPE  C21018362   1.505   3.984   3.565  0.0405  0.2950 -0.3555
  164SAPE  H10R18363   1.498   4.070   3.496  4.5556  1.2734  0.0753
  164SAPE  H10S18364   1.569   4.002   3.654 -1.0391 -2.5607  1.1284
  164SAPE  C21118365   1.365   3.952   3.616  0.5489  0.1483  0.8757
  164SAPE  H11R18366   1.306   3.893   3.544  0.7041  2.5314 -1.3444
  164SAPE  C21218367   1.308   3.994   3.731  0.2878  0.0014  0.2271
  164SAPE  H12R18368   1.213   3.945   3.757 -0.5736  0.3884 -1.9178
  164SAPE  C21318369   1.366   4.087   3.832  0.5508  0.7453 -0.4540
  164SAPE  H13R18370   1.291   4.167   3.853 -1.3659 -1.1780  0.4335
  164SAPE  H13S18371   1.454   4.146   3.798  0.3537  0.8691 -0.7539
  164SAPE  C21418372   1.404   4.025   3.964 -0.1100 -0.0313  0.1893
  164SAPE  H14R18373   1.491   3.958   3.952  0.8080  1.2421 -0.5528
  164SAPE  C21518374   1.345   4.048   4.088  0.0527  0.1183 -0.0145
  164SAPE  H15R18375   1.389   3.997   4.174 -0.7943  0.7703  0.8300
  164SAPE  C21618376   1.229   4.138   4.134 -1.1559  0.1995 -0.1167
  164SAPE  H16R18377   1.140   4.128   4.069  0.4956  0.7658 -2.5839
  164SAPE  H16S18378   1.250   4.247   4.124 -1.4213  0.4818  1.8823
  164SAPE  C21718379   1.180   4.120   4.275  0.5110 -0.0037 -0.3865
  164SAPE  H17R18380   1.169   4.012   4.299  0.2171  0.1395  0.1480
  164SAPE  H17S18381   1.086   4.176   4.292  0.5951  0.0705 -0.1540
  164SAPE  C21818382   1.287   4.162   4.382 -0.0676  0.0343  0.2559
  164SAPE  H18R18383   1.326   4.259   4.346  1.5548 -0.7155 -0.1397
  164SAPE  H18S18384   1.380   4.100   4.385 -0.6076 -0.7761  2.3782
  164SAPE  C21918385   1.226   4.162   4.525 -0.4445  0.7713  0.4788
  164SAPE  H19R18386   1.312   4.183   4.593 -1.7344  0.0431  2.4187
  164SAPE  H19S18387   1.194   4.061   4.558  0.3044  0.0351 -0.9450
  164SAPE  C22018388   1.136   4.283   4.550 -0.7949  0.3504 -0.0170
  164SAPE  H20R18389   1.185   4.381   4.534 -0.3956  0.2691  0.6716
  164SAPE  H20S18390   1.104   4.286   4.656  2.1927 -1.2385  1.0670
  164SAPE  H20T18391   1.048   4.279   4.482 -0.5276  2.8284 -0.5934
  164SAPE   C3318392   1.801   3.081   3.198 -0.4062 -0.1799  0.1185
  164SAPE   H3X18393   1.870   2.997   3.178 -0.1725 -0.2184  1.0244
  164SAPE   H3Y18394   1.713   3.054   3.136 -0.1964  1.7741 -1.1216
  164SAPE   C3418395   1.743   3.083   3.344 -0.4053 -0.2975 -0.6708
  164SAPE   H4X18396   1.689   2.988   3.364 -2.0743  0.7101 -0.3124
  164SAPE   H4Y18397   1.664   3.160   3.336  2.4295  3.0609  0.8779
  164SAPE   C3518398   1.848   3.122   3.448 -0.2308  0.3028  0.2889
  164SAPE   H5X18399   1.894   3.220   3.426  1.4406 -1.1637 -3.5325
  164SAPE   H5Y18400   1.932   3.049   3.444  0.0476  0.6392 -0.0824
  164SAPE   C3618401   1.785   3.118   3.585 -0.5968 -0.5526 -0.1618
  164SAPE   H6X18402   1.713   3.034   3.587 -1.4808  0.1780 -0.2441
  164SAPE   H6Y18403   1.733   3.216   3.596 -1.9834 -1.2353 -0.3934
  164SAPE   C3718404   1.894   3.100   3.689  0.1715  0.4996 -0.4606
  164SAPE   H7X18405   1.962   3.188   3.684 -0.7935  1.3367  0.6624
  164SAPE   H7Y18406   1.945   3.004   3.667  0.4866  0.6946 -0.5881
  164SAPE   C3818407   1.838   3.094   3.835  0.6073  0.2158 -0.5761
  164SAPE   H8X18408   1.765   3.011   3.844 -1.9428  2.3950  0.6574
  164SAPE   H8Y18409   1.776   3.183   3.860  2.0096  1.5582 -1.6505
  164SAPE   C3918410   1.942   3.071   3.945 -0.2237  0.5869 -1.1571
  164SAPE   H9X18411   2.019   3.150   3.933  0.5035  0.5087  2.0601
  164SAPE   H9Y18412   1.994   2.978   3.914  2.5503  1.3787  0.8081
  164SAPE  C31018413   1.891   3.053   4.088 -0.3625 -0.2422  0.1595
  164SAPE  H10X18414   1.827   3.141   4.110 -0.1353 -0.1364  0.4018
  164SAPE  H10Y18415   1.977   3.034   4.155 -0.7609 -1.5517  0.3350
  164SAPE  C31118416   1.789   2.931   4.099  0.3095  0.7962 -0.6296
  164SAPE  H11X18417   1.836   2.852   4.037  0.9597  0.9220 -0.3054
  164SAPE  H11Y18418   1.706   2.965   4.034 -0.9798 -1.7036 -0.4122
  164SAPE  C31218419   1.740   2.881   4.240 -0.3249 -0.1087 -0.0082
  164SAPE  H12X18420   1.826   2.838   4.296 -0.4067  1.3075  1.2642
  164SAPE  H12Y18421   1.672   2.794   4.228 -2.3784  1.3227  0.6336
  164SAPE  C31318422   1.689   2.993   4.324  0.5370 -0.1239  0.1587
  164SAPE  H13X18423   1.767   3.071   4.333  0.6558 -0.2361  0.0999
  164SAPE  H13Y18424   1.657   2.973   4.428 -1.1940  0.6394 -0.1913
  164SAPE  C31418425   1.561   3.053   4.256  0.6804 -0.3610 -1.6310
  164SAPE  H14X18426   1.481   2.976   4.260 -1.0305  1.4027  0.4074
  164SAPE  H14Y18427   1.587   3.080   4.151 -0.2387  4.5154 -0.8491
  164SAPE  C31518428   1.513   3.189   4.313 -0.1111  0.4346  0.2638
  164SAPE  H15X18429   1.434   3.223   4.243 -0.4218  0.4117  0.6015
  164SAPE  H15Y18430   1.597   3.261   4.304  0.7101 -0.7120 -2.0847
  164SAPE  C31618431   1.456   3.182   4.456 -1.0217 -0.8825  0.2483
  164SAPE  H16X18432   1.419   3.285   4.476  0.6713 -0.1642 -0.1326
  164SAPE  H16Y18433   1.540   3.163   4.526  0.3799  0.2184 -1.0759
  164SAPE  C31718434   1.340   3.084   4.474  0.8065  0.6424 -0.1298
  164SAPE  H17X18435   1.303   3.067   4.371 -1.8093 -0.8706  0.9636
  164SAPE  H17Y18436   1.261   3.132   4.535  0.5750  0.8600 -0.5986
  164SAPE  C31818437   1.369   2.940   4.540 -0.4186 -0.6418 -0.5704
  164SAPE  H18X18438   1.451   2.888   4.486 -0.6160 -2.0134  0.4232
  164SAPE  H18Y18439   1.284   2.868   4.541 -1.4267  0.4198  2.7471
  164SAPE  H18Z18440   1.399   2.952   4.646  2.2741 -0.8051 -1.2435
  165SAPE     N18441   6.379   5.153   2.724  0.1981  0.1977 -0.5254
  165SAPE   HN118442   6.358   5.085   2.648 -3.8255  1.9644 -1.2362
  165SAPE   HN218443   6.331   5.123   2.811  0.8033  0.3917 -0.1220
  165SAPE   HN318444   6.342   5.246   2.696  0.9070  0.7983  0.4905
  165SAPE   C1218445   6.528   5.164   2.752  0.3722 -0.4200  1.0618
  165SAPE  H12A18446   6.563   5.060   2.768 -1.9112 -1.2738  0.7988
  165SAPE  H12B18447   6.542   5.207   2.853  0.3134  1.0057  0.4895
  165SAPE   C1118448   6.606   5.224   2.637  0.0798 -0.0066  0.8482
  165SAPE  H11A18449   6.698   5.277   2.670  0.5510 -1.7039  2.4226
  165SAPE  H11B18450   6.550   5.304   2.585 -1.4999 -1.0304  0.9097
  165SAPE     P18451   6.777   5.135   2.460  0.0922 -0.4347  0.2884
  165SAPE   O1318452   6.804   5.000   2.398 -0.1309 -0.2936  0.2189
  165SAPE   O1418453   6.770   5.259   2.372  0.1530  0.2232  0.2324
  165SAPE   O1218454   6.637   5.123   2.542  0.0048  0.3303 -0.0494
  165SAPE   O1118455   6.893   5.148   2.572 -0.1353  0.2996  0.1225
  165SAPE    C118456   6.952   5.042   2.648  0.8807 -0.2919  0.1833
  165SAPE    HA18457   6.905   4.948   2.611 -0.2694  0.1543  0.4653
  165SAPE    HB18458   7.063   5.032   2.641  1.1531  2.0263  0.3501
  165SAPE    C218459   6.911   5.057   2.796 -0.1563  0.0357 -0.4459
  165SAPE    HS18460   6.803   5.081   2.789  0.0536  0.9991 -0.6139
  165SAPE   O2118461   6.992   5.161   2.858  0.1802  0.1978 -0.3750
  165SAPE   C2118462   6.931   5.214   2.965  0.1394 -0.5179 -0.4787
  165SAPE   O2218463   6.808   5.216   2.983  0.2715 -0.1608  0.2110
  165SAPE   C2218464   7.029   5.312   3.027 -0.2383 -0.2509 -0.4861
  165SAPE   H2R18465   7.108   5.320   2.949 -0.3557 -1.3796 -0.7397
  165SAPE   H2S18466   6.979   5.411   3.035 -0.6255 -0.4492 -0.4549
  165SAPE    C318467   6.931   4.923   2.878  0.7058  0.0948  0.2011
  165SAPE    HX18468   7.039   4.906   2.896  0.7157  1.3526  1.4118
  165SAPE    HY18469   6.907   4.833   2.816  0.9060 -0.3676  0.7856
  165SAPE   O3118470   6.868   4.931   3.008 -0.7369  0.2657  0.0822
  165SAPE   C3118471   6.734   4.903   2.995 -0.1365  0.0321  0.2778
  165SAPE   O3218472   6.684   4.858   2.894 -0.1112 -0.1093  0.3127
  165SAPE   C3218473   6.671   4.922   3.133 -0.1885  0.2496  0.7381
  165SAPE   H2X18474   6.563   4.895   3.123  0.4000 -1.7576 -0.9253
  165SAPE   H2Y18475   6.692   5.030   3.150  0.0367  0.0929  1.4588
  165SAPE   C2318476   7.089   5.257   3.165  0.7203  0.3566  0.2153
  165SAPE   H3R18477   7.173   5.316   3.206  0.5356  1.2778 -0.6850
  165SAPE   H3S18478   7.130   5.158   3.137 -1.8262 -2.0953  4.1775
  165SAPE   C2418479   6.978   5.241   3.269 -0.4540 -0.2476  0.2790
  165SAPE   H4R18480   6.908   5.157   3.247 -2.7443  1.4548  0.6491
  165SAPE   H4S18481   6.909   5.328   3.259 -0.6643 -0.5710 -1.3838
  165SAPE   C2518482   7.038   5.221   3.407 -0.2764  0.8844 -0.0998
  165SAPE   H5R18483   7.125   5.154   3.402 -1.2023 -0.3079 -0.8608
  165SAPE   C2618484   7.010   5.285   3.514 -0.4212 -0.1878  0.2169
  165SAPE   H6R18485   7.071   5.257   3.601 -0.7780  0.9129  0.8339
  165SAPE   C2718486   6.932   5.412   3.520 -0.0052  0.3125  0.7723
  165SAPE   H7R18487   6.843   5.409   3.587  0.2252  1.3181  1.1530
  165SAPE   H7S18488   6.868   5.429   3.431  1.0462  1.1761  0.1486
  165SAPE   C2818489   7.010   5.538   3.534  0.0132  0.5640 -0.1570
  165SAPE   H8R18490   7.043   5.592   3.444 -0.3582  2.1466  0.6197
  165SAPE   C2918491   7.032   5.600   3.653  0.2750  0.0082  0.1121
  165SAPE   H9R18492   7.102   5.684   3.668 -0.3131  0.2460  1.7435
  165SAPE  C21018493   6.989   5.551   3.791  0.9678  0.3305  0.1499
  165SAPE  H10R18494   6.893   5.499   3.773  0.8704  1.7075 -4.3426
  165SAPE  H10S18495   6.953   5.643   3.842 -2.3584 -0.4468 -0.5584
  165SAPE  C21118496   7.086   5.474   3.872  0.2236 -0.8858  0.2719
  165SAPE  H11R18497   7.133   5.383   3.831  1.0984 -0.7938  1.0520
  165SAPE  C21218498   7.127   5.506   3.994  0.7606  0.5882 -0.3449
  165SAPE  H12R18499   7.190   5.438   4.053 -1.8058 -1.6557  0.0456
  165SAPE  C21318500   7.082   5.626   4.078 -0.1525  0.2845  0.2612
  165SAPE  H13R18501   7.041   5.697   4.003  1.6938  0.5438 -0.5628
  165SAPE  H13S18502   7.176   5.670   4.118 -0.5732 -0.3657  2.0490
  165SAPE  C21418503   6.982   5.585   4.179  0.5415 -0.1109 -0.7433
  165SAPE  H14R18504   6.921   5.497   4.152  0.2512  0.3794 -1.7495
  165SAPE  C21518505   6.948   5.657   4.283  0.9882  0.1958  0.0060
  165SAPE  H15R18506   6.873   5.611   4.349  1.0810 -0.2791 -0.2156
  165SAPE  C21618507   6.999   5.794   4.325  0.1493  0.2779 -0.4516
  165SAPE  H16R18508   6.965   5.881   4.265  0.8687  0.5436 -0.4890
  165SAPE  H16S18509   7.110   5.799   4.322  0.2015 -0.9197 -1.2939
  165SAPE  C21718510   6.956   5.820   4.472 -0.0796  0.0413  0.0483
  165SAPE  H17R18511   6.855   5.782   4.497  0.4266 -3.1641 -2.0898
  165SAPE  H17S18512   6.977   5.928   4.488  1.0058  0.0110 -0.9961
  165SAPE  C21818513   7.057   5.757   4.562 -0.7048 -0.7923 -0.1917
  165SAPE  H18R18514   7.158   5.801   4.547 -0.1133 -2.6490 -2.2507
  165SAPE  H18S18515   7.060   5.650   4.534 -0.8311 -0.2963 -2.2513
  165SAPE  C21918516   7.024   5.766   4.716 -0.2998  0.1615  0.0967
  165SAPE  H19R18517   7.088   5.700   4.779 -1.5521  0.2035  1.4734
  165SAPE  H19S18518   6.922   5.728   4.738 -0.4211 -0.3399 -1.2597
  165SAPE  C22018519   7.037   5.907   4.769  0.5319  0.0955  0.3680
  165SAPE  H20R18520   7.015   5.912   4.877  0.1198 -1.4277  0.3784
  165SAPE  H20S18521   6.976   5.979   4.710 -0.4118 -0.8316  0.1829
  165SAPE  H20T18522   7.144   5.935   4.755  0.6757 -0.7064 -0.2112
  165SAPE   C3318523   6.743   4.855   3.249  0.1881  0.3157  0.3282
  165SAPE   H3X18524   6.852   4.873   3.241  0.0279  1.5454  0.7163
  165SAPE   H3Y18525   6.731   4.746   3.231 -1.1428  0.7957 -2.1956
  165SAPE   C3418526   6.707   4.920   3.380 -0.3422 -0.0395 -0.4895
  165SAPE   H4X18527   6.597   4.923   3.398 -0.6702 -4.1468 -0.7978
  165SAPE   H4Y18528   6.731   5.028   3.380 -0.5281  0.0051 -0.2208
  165SAPE   C3518529   6.779   4.848   3.500  0.6416  0.0825 -0.2985
  165SAPE   H5X18530   6.890   4.848   3.492  0.7244 -1.0275  0.5117
  165SAPE   H5Y18531   6.737   4.746   3.514  0.1601  0.6387  3.5051
  165SAPE   C3618532   6.753   4.906   3.639  0.1821  0.6178 -0.2731
  165SAPE   H6X18533   6.744   5.016   3.648 -0.4460  0.4448  1.7089
  165SAPE   H6Y18534   6.830   4.857   3.703 -0.0230  0.9156  0.2091
  165SAPE   C3718535   6.611   4.860   3.692  0.2125 -0.8490  0.7429
  165SAPE   H7X18536   6.601   4.751   3.676  2.0679 -1.0762  0.9496
  165SAPE   H7Y18537   6.530   4.912   3.636  0.3989  0.9804  2.0714
  165SAPE   C3818538   6.603   4.893   3.841  0.5461 -0.3265  0.0346
  165SAPE   H8X18539   6.493   4.884   3.853  0.5693  0.9108  1.3431
  165SAPE   H8Y18540   6.633   4.999   3.856  0.7739 -0.5835  1.4975
  165SAPE   C3918541   6.672   4.800   3.938  0.5312 -0.1505  0.2147
  165SAPE   H9X18542   6.778   4.817   3.911  0.3320 -0.5107 -0.8448
  165SAPE   H9Y18543   6.656   4.693   3.912  0.4728  0.1905 -1.2673
  165SAPE  C31018544   6.622   4.836   4.080  0.9555 -0.3511  0.7799
  165SAPE  H10X18545   6.511   4.844   4.074  0.7839  0.4884  3.6319
  165SAPE  H10Y18546   6.654   4.939   4.108 -0.2666 -0.0781  1.2650
  165SAPE  C31118547   6.667   4.752   4.199 -0.1957 -0.7449  0.4392
  165SAPE  H11X18548   6.777   4.737   4.190 -0.3748 -2.4677  0.7779
  165SAPE  H11Y18549   6.622   4.650   4.195  0.4321 -0.9774 -2.1441
  165SAPE  C31218550   6.614   4.820   4.329  0.1021  0.2220 -1.2023
  165SAPE  H12X18551   6.509   4.791   4.354  1.0339 -2.0742  0.3980
  165SAPE  H12Y18552   6.618   4.929   4.308  0.0028  0.2431 -1.1117
  165SAPE  C31318553   6.711   4.778   4.444 -0.3694 -0.3794  0.2285
  165SAPE  H13X18554   6.810   4.826   4.434  0.1110 -1.1017  1.3943
  165SAPE  H13Y18555   6.717   4.668   4.440 -0.4056 -0.3439 -2.3740
  165SAPE  C31418556   6.660   4.820   4.581  0.2685  0.8927  0.6741
  165SAPE  H14X18557   6.572   4.759   4.609  1.9491 -0.8908  2.3634
  165SAPE  H14Y18558   6.632   4.928   4.587 -0.6345  0.6875  0.2563
  165SAPE  C31518559   6.753   4.792   4.696 -0.4159 -0.0561  0.0901
  165SAPE  H15X18560   6.796   4.690   4.683  1.0941  0.8218 -2.3010
  165SAPE  H15Y18561   6.698   4.793   4.793 -0.7116  0.4424 -0.0816
  165SAPE  C31618562   6.859   4.901   4.712  0.1933 -0.9058  0.2150
  165SAPE  H16X18563   6.815   4.979   4.778  0.1374 -1.2465  0.5767
  165SAPE  H16Y18564   6.881   4.946   4.612 -2.1726 -0.9051 -0.3705
  165SAPE  C31718565   6.990   4.847   4.773 -0.1797 -0.3142  0.2095
  165SAPE  H17X18566   7.041   4.790   4.692  0.1887  1.6387 -1.0011
  165SAPE  H17Y18567   6.956   4.778   4.853 -0.1148 -1.0382 -0.3754
  165SAPE  C31818568   7.074   4.962   4.838 -0.2655 -0.2026  0.2035
  165SAPE  H18X18569   7.173   4.932   4.878  0.6875  0.9123 -1.2078
  165SAPE  H18Y18570   7.017   5.008   4.921 -1.8432  1.4509 -1.6655
  165SAPE  H18Z18571   7.101   5.041   4.764 -3.1399  0.3282 -0.4112
  166SAPE     N18572   1.871   3.710   2.477  0.3312 -0.3997 -0.8161
  166SAPE   HN118573   1.854   3.607   2.474 -1.0184 -0.5248  3.4983
  166SAPE   HN218574   1.944   3.727   2.406  1.3101  0.5942  0.3852
  166SAPE   HN318575   1.907   3.747   2.567  1.5667  1.7419 -2.1127
  166SAPE   C1218576   1.744   3.789   2.447  0.0851 -0.0156  0.7623
  166SAPE  H12A18577   1.711   3.827   2.546 -0.9751 -0.6219  0.6586
  166SAPE  H12B18578   1.672   3.719   2.399  2.3687 -3.6013  2.0720
  166SAPE   C1118579   1.774   3.906   2.359  0.0047  0.1359  0.4754
  166SAPE  H11A18580   1.683   3.964   2.332 -0.6182 -1.0562 -0.0550
  166SAPE  H11B18581   1.823   3.880   2.262  2.1321  0.3943  1.4222
  166SAPE     P18582   1.877   4.142   2.412 -0.3113 -0.1884 -0.0406
  166SAPE   O1318583   1.984   4.188   2.504  0.0002  0.3744  0.4508
  166SAPE   O1418584   1.899   4.162   2.270 -0.3752  0.1492  0.2084
  166SAPE   O1218585   1.859   3.992   2.431 -0.2121  0.5540  0.5688
  166SAPE   O1118586   1.734   4.199   2.454 -0.2531  0.1614 -0.5607
  166SAPE    C118587   1.670   4.129   2.559 -0.0473 -0.3309  0.0028
  166SAPE    HA18588   1.590   4.068   2.511 -1.0517  2.3112 -1.9556
  166SAPE    HB18589   1.732   4.056   2.616 -1.3171 -0.1486  1.6959
  166SAPE    C218590   1.616   4.226   2.667 -0.0649  0.1599  0.4216
  166SAPE    HS18591   1.561   4.309   2.618 -1.1665 -0.5873  0.3618
  166SAPE   O2118592   1.731   4.271   2.739 -0.7566 -0.0061  0.1938
  166SAPE   C2118593   1.762   4.397   2.729 -0.6955  0.7939  0.2615
  166SAPE   O2218594   1.708   4.487   2.669  0.5408 -0.2979  0.1088
  166SAPE   C2218595   1.887   4.418   2.819  0.1676  0.2790 -0.3232
  166SAPE   H2R18596   1.863   4.362   2.912 -2.2813  0.3795 -0.8310
  166SAPE   H2S18597   1.980   4.383   2.769 -0.0296 -1.4120  0.4267
  166SAPE    C318598   1.509   4.165   2.758  0.9694  0.5913 -0.3854
  166SAPE    HX18599   1.549   4.078   2.813 -0.5560 -0.1269 -0.3594
  166SAPE    HY18600   1.422   4.119   2.706  1.0090 -1.8237  1.5109
  166SAPE   O3118601   1.451   4.265   2.844  0.1325  0.8225 -0.5822
  166SAPE   C3118602   1.508   4.279   2.965  0.4314  0.2283 -0.1715
  166SAPE   O3218603   1.606   4.217   3.005  0.1573 -0.2920 -0.1803
  166SAPE   C3218604   1.411   4.369   3.050  0.1288  0.2117 -0.0067
  166SAPE   H2X18605   1.311   4.347   3.008 -0.7487  3.3864  0.1664
  166SAPE   H2Y18606   1.430   4.476   3.029 -1.7537  0.6394  0.3095
  166SAPE   C2318607   1.902   4.562   2.858  1.0476 -0.1474 -0.2524
  166SAPE   H3R18608   1.929   4.632   2.777  0.4784  1.2454  0.7342
  166SAPE   H3S18609   1.995   4.565   2.918  1.2427 -0.2581 -0.5500
  166SAPE   C2418610   1.773   4.622   2.925 -0.2691  0.0256  0.4198
  166SAPE   H4R18611   1.740   4.546   2.999  1.8580 -0.2291  1.1949
  166SAPE   H4S18612   1.688   4.654   2.862  0.7752  0.6511 -0.7164
  166SAPE   C2518613   1.801   4.757   2.983  0.4289 -0.5744  0.1055
  166SAPE   H5R18614   1.813   4.840   2.913  1.6060 -0.6120  0.2450
  166SAPE   C2618615   1.804   4.792   3.114  0.4915  0.1839 -0.2582
  166SAPE   H6R18616   1.848   4.891   3.137  2.3927 -0.8345  0.7987
  166SAPE   C2718617   1.791   4.702   3.235  0.4798  0.2624  0.5898
  166SAPE   H7R18618   1.827   4.763   3.320  1.6001  0.6572 -0.1495
  166SAPE   H7S18619   1.869   4.622   3.232  1.2751  1.0512 -0.1570
  166SAPE   C2818620   1.657   4.642   3.262 -0.4819 -0.2809 -0.1522
  166SAPE   H8R18621   1.592   4.607   3.181  2.1345 -0.0888 -2.4896
  166SAPE   C2918622   1.607   4.636   3.392  0.7378  0.0239 -0.7465
  166SAPE   H9R18623   1.502   4.604   3.400  0.9839 -0.9918 -1.4530
  166SAPE  C21018624   1.680   4.664   3.516 -0.3124 -0.7101  0.0183
  166SAPE  H10R18625   1.790   4.645   3.508 -0.1875 -0.3680  0.8857
  166SAPE  H10S18626   1.665   4.586   3.593  1.0572  1.0544  2.1888
  166SAPE  C21118627   1.651   4.792   3.590 -0.0667 -0.5599 -0.2681
  166SAPE  H11R18628   1.661   4.884   3.530  2.2825 -0.4541  0.2076
  166SAPE  C21218629   1.597   4.803   3.712 -0.3247  0.6023  0.4780
  166SAPE  H12R18630   1.566   4.902   3.748  0.8253  0.9365  0.5893
  166SAPE  C21318631   1.550   4.684   3.801 -0.1857 -0.6823  0.4921
  166SAPE  H13R18632   1.625   4.678   3.884  2.2712  1.1181 -1.4384
  166SAPE  H13S18633   1.547   4.588   3.746 -1.6132  0.4135 -1.4621
  166SAPE  C21418634   1.412   4.701   3.865  0.1084 -0.0417  0.2683
  166SAPE  H14R18635   1.333   4.687   3.790  1.6871 -3.3719 -0.9793
  166SAPE  C21518636   1.373   4.712   3.990  0.2309  0.3744 -1.2853
  166SAPE  H15R18637   1.266   4.713   4.016  0.8682 -1.4073  1.8605
  166SAPE  C21618638   1.454   4.727   4.115  0.0889 -0.6765 -0.7273
  166SAPE  H16R18639   1.428   4.821   4.169  0.1260 -1.1963  0.2214
  166SAPE  H16S18640   1.563   4.732   4.094  0.2573  1.8539  0.3041
  166SAPE  C21718641   1.434   4.611   4.218  0.5154  0.0701 -0.6011
  166SAPE  H17R18642   1.460   4.518   4.164  0.7518  0.7656 -1.7362
  166SAPE  H17S18643   1.328   4.622   4.250  0.8650 -1.4782  1.2354
  166SAPE  C21818644   1.518   4.624   4.348  0.1845  0.0109 -0.4247
  166SAPE  H18R18645   1.480   4.716   4.397  1.1387 -0.2693  0.8597
  166SAPE  H18S18646   1.627   4.629   4.327 -0.1847 -0.3054 -2.7303
  166SAPE  C21918647   1.500   4.511   4.447 -0.0172  0.4569 -0.0482
  166SAPE  H19R18648   1.555   4.425   4.403  2.0994  1.2533  0.8962
  166SAPE  H19S18649   1.395   4.475   4.455  0.4453 -0.9056  0.0551
  166SAPE  C22018650   1.549   4.547   4.587  0.5266  0.8284 -0.6489
  166SAPE  H20R18651   1.601   4.464   4.640  1.3163  1.2960 -0.6731
  166SAPE  H20S18652   1.466   4.589   4.647  1.8309  0.6258  1.4212
  166SAPE  H20T18653   1.627   4.625   4.574  2.5126 -0.5928  1.7816
  166SAPE   C3318654   1.406   4.335   3.201 -0.3666 -0.1137  0.4624
  166SAPE   H3X18655   1.499   4.368   3.251 -0.3685 -0.8745  0.9905
  166SAPE   H3Y18656   1.377   4.229   3.216 -1.1890  0.0280 -0.0579
  166SAPE   C3418657   1.302   4.414   3.290  0.2058  0.1079 -0.2549
  166SAPE   H4X18658   1.205   4.393   3.241  0.6324  2.0110 -2.0590
  166SAPE   H4Y18659   1.311   4.525   3.287 -0.3847  0.1488 -0.7703
  166SAPE   C3518660   1.299   4.370   3.438 -0.2042 -0.6204 -0.2246
  166SAPE   H5X18661   1.400   4.390   3.479 -0.4558 -0.8142  0.5135
  166SAPE   H5Y18662   1.282   4.261   3.449  1.0128 -1.0590 -2.2449
  166SAPE   C3618663   1.195   4.444   3.522 -0.0557  0.0598  0.6202
  166SAPE   H6X18664   1.094   4.406   3.496 -0.2772  1.5823 -0.9031
  166SAPE   H6Y18665   1.200   4.554   3.505 -2.4304  0.0582 -0.3820
  166SAPE   C3718666   1.209   4.400   3.669 -0.1053  1.1889  0.0777
  166SAPE   H7X18667   1.312   4.414   3.709  0.8717 -0.5627 -1.6400
  166SAPE   H7Y18668   1.176   4.294   3.674 -0.1828  1.2660  3.0681
  166SAPE   C3818669   1.116   4.481   3.758 -0.1731  0.5601 -0.8448
  166SAPE   H8X18670   1.012   4.474   3.718 -0.3228 -0.4014 -0.3163
  166SAPE   H8Y18671   1.148   4.587   3.755 -0.5693  0.7778  1.2197
  166SAPE   C3918672   1.131   4.445   3.910  0.2833  0.1965  0.1221
  166SAPE   H9X18673   1.235   4.450   3.950  0.0507  0.0114  0.7581
  166SAPE   H9Y18674   1.093   4.342   3.923 -1.1782  0.7031  0.0297
  166SAPE  C31018675   1.039   4.536   3.990 -0.2763  0.1122 -0.0116
  166SAPE  H10X18676   0.943   4.521   3.936 -1.6443 -0.7664  2.5114
  166SAPE  H10Y18677   1.072   4.643   3.984 -1.1050  0.3551 -0.3052
  166SAPE  C31118678   1.020   4.483   4.129  0.0261 -0.0400 -0.5530
  166SAPE  H11X18679   1.113   4.514   4.181  1.0207  0.3086 -2.4508
  166SAPE  H11Y18680   1.016   4.372   4.120  1.8537 -0.2518  0.6245
  166SAPE  C31218681   0.888   4.526   4.194 -0.5831  0.1039  0.7214
  166SAPE  H12X18682   0.801   4.488   4.137 -0.0005 -0.2653  0.0576
  166SAPE  H12Y18683   0.897   4.636   4.189  0.7548  0.0894  1.9458
  166SAPE  C31318684   0.885   4.486   4.337  0.0380 -0.1217 -0.2398
  166SAPE  H13X18685   0.983   4.511   4.382  0.6281 -2.3045 -0.2073
  166SAPE  H13Y18686   0.865   4.378   4.347  0.0735 -0.1056  0.0051
  166SAPE  C31418687   0.767   4.562   4.403  0.8329 -0.6320  0.4586
  166SAPE  H14X18688   0.680   4.561   4.334  0.6018 -1.4403  0.7412
  166SAPE  H14Y18689   0.781   4.671   4.414  1.6552 -0.2549 -3.1568
  166SAPE  C31518690   0.736   4.513   4.544 -0.8725  0.6029  0.0530
  166SAPE  H15X18691   0.824   4.541   4.606 -1.6469  0.4064  1.3015
  166SAPE  H15Y18692   0.738   4.402   4.536 -0.5401  0.7097 -1.7512
  166SAPE  C31618693   0.602   4.558   4.602 -0.6942  0.1560  0.3558
  166SAPE  H16X18694   0.515   4.517   4.546 -1.1509  2.0497 -0.3857
  166SAPE  H16Y18695   0.596   4.665   4.574  1.8593 -0.0701 -1.3979
  166SAPE  C31718696   0.601   4.546   4.755 -0.0649 -0.1528  0.3725
  166SAPE  H17X18697   0.689   4.601   4.794 -0.4249  0.5258  0.2471
  166SAPE  H17Y18698   0.621   4.437   4.770  0.0738 -0.5253 -2.1353
  166SAPE  C31818699   0.478   4.599   4.833  0.4666 -0.4578 -0.2692
  166SAPE  H18X18700   0.511   4.666   4.916 -1.7167  0.8027 -0.3537
  166SAPE  H18Y18701   0.408   4.517   4.860 -0.8773  0.1100 -1.9080
  166SAPE  H18Z18702   0.424   4.671   4.769 -0.7381 -0.9670  0.1406
  167SAPE     N18703   0.203   1.693   3.119  0.2875  0.2347  0.1471
  167SAPE   HN118704   0.188   1.726   3.021  0.9708  1.2993  0.3864
  167SAPE   HN218705   0.274   1.618   3.123 -1.9771 -2.0351  0.2933
  167SAPE   HN318706   0.116   1.646   3.153 -1.5649  2.9699 -0.4848
  167SAPE   C1218707   0.251   1.818   3.199  0.4970 -0.3866  0.9336
  167SAPE  H12A18708   0.222   1.795   3.303  0.6537  2.2817  1.6207
  167SAPE  H12B18709   0.183   1.895   3.158  1.3966  0.2706  0.6478
  167SAPE   C1118710   0.391   1.861   3.148  0.2688 -0.1225  0.3706
  167SAPE  H11A18711   0.463   1.777   3.134  0.2980  0.1252 -1.0510
  167SAPE  H11B18712   0.427   1.920   3.235  1.0210 -0.5160  0.3289
  167SAPE     P18713   0.501   1.994   2.948 -0.0351  0.1851 -0.2610
  167SAPE   O1318714   0.550   1.882   2.862  0.2728  0.4404 -0.0395
  167SAPE   O1418715   0.461   2.111   2.867  0.4516  0.4133 -0.3431
  167SAPE   O1218716   0.373   1.937   3.030 -0.0884 -0.8274  0.3356
  167SAPE   O1118717   0.625   2.032   3.045  0.2743 -0.0875  0.5287
  167SAPE    C118718   0.644   2.174   3.058  0.5548  0.1328 -0.6301
  167SAPE    HA18719   0.687   2.216   2.965  1.2056  0.4825 -0.1765
  167SAPE    HB18720   0.553   2.230   3.087  0.0491  0.7380 -3.1416
  167SAPE    C218721   0.747   2.197   3.173 -0.7148  0.5819  0.7224
  167SAPE    HS18722   0.847   2.155   3.150 -0.1845  1.0434  2.1123
  167SAPE   O2118723   0.706   2.137   3.300  0.3400 -0.1742  0.0606
  167SAPE   C2118724   0.739   2.006   3.310 -0.0254 -0.2460 -0.0942
  167SAPE   O2218725   0.809   1.942   3.233 -0.0167  0.0931  0.2407
  167SAPE   C2218726   0.719   1.975   3.453 -0.4670  1.0462 -0.5263
  167SAPE   H2R18727   0.805   1.908   3.475 -0.9979  0.4214 -0.3481
  167SAPE   H2S18728   0.727   2.064   3.519 -0.6418  0.4256  0.3362
  167SAPE    C318729   0.760   2.352   3.188  0.4401 -0.0847  0.9806
  167SAPE    HX18730   0.666   2.407   3.165  0.9508 -0.0917 -1.4726
  167SAPE    HY18731   0.832   2.387   3.110 -0.4709 -1.0653 -0.3394
  167SAPE   O3118732   0.801   2.401   3.320 -0.4344  0.1767  0.7538
  167SAPE   C3118733   0.924   2.380   3.356 -0.9355 -0.0035 -0.2338
  167SAPE   O3218734   1.008   2.307   3.298  0.5518 -0.5899  0.0864
  167SAPE   C3218735   0.943   2.440   3.500 -0.1135  0.1375 -0.3095
  167SAPE   H2X18736   1.043   2.410   3.538 -0.6003  0.4914  1.3655
  167SAPE   H2Y18737   0.868   2.399   3.572  1.2931  1.0236  1.7440
  167SAPE   C2318738   0.594   1.891   3.480  0.1640 -0.0039 -0.5917
  167SAPE   H3R18739   0.610   1.793   3.429  0.6032 -0.7785  0.9358
  167SAPE   H3S18740   0.519   1.956   3.431  0.2212 -0.6639 -1.5934
  167SAPE   C2418741   0.572   1.864   3.625  0.1221  0.2696 -0.3384
  167SAPE   H4R18742   0.470   1.822   3.627  0.1685  0.0338 -1.5931
  167SAPE   H4S18743   0.565   1.970   3.658 -0.1897  0.5420 -1.2504
  167SAPE   C2518744   0.679   1.778   3.687  0.2705  0.1566 -0.3811
  167SAPE   H5R18745   0.709   1.697   3.619 -1.0730 -0.4540 -0.2766
  167SAPE   C2618746   0.722   1.789   3.814 -0.1056 -0.1359  0.4492
  167SAPE   H6R18747   0.806   1.729   3.851 -0.5894 -0.0512  1.7571
  167SAPE   C2718748   0.669   1.887   3.913  0.2509 -0.0669  0.8690
  167SAPE   H7R18749   0.682   1.989   3.871  2.3666 -0.5336  0.2354
  167SAPE   H7S18750   0.740   1.907   3.996 -0.1486  1.4071  0.8875
  167SAPE   C2818751   0.527   1.860   3.959 -0.3048  0.8847 -0.8322
  167SAPE   H8R18752   0.445   1.870   3.887 -0.9659  1.3939 -0.0264
  167SAPE   C2918753   0.492   1.824   4.086  0.6310 -0.5961  0.1689
  167SAPE   H9R18754   0.385   1.832   4.109  0.5671  1.4360 -0.5915
  167SAPE  C21018755   0.583   1.811   4.212  0.8804  0.2782 -0.1784
  167SAPE  H10R18756   0.566   1.903   4.272 -2.5185 -0.9492  0.9582
  167SAPE  H10S18757   0.687   1.807   4.172  0.4261 -2.6869 -1.3090
  167SAPE  C21118758   0.558   1.688   4.300  0.7638 -0.7726  0.3704
  167SAPE  H11R18759   0.482   1.618   4.262 -1.5958 -0.2096  3.6276
  167SAPE  C21218760   0.620   1.660   4.420  0.0413  0.2686  0.3780
  167SAPE  H12R18761   0.583   1.566   4.464 -1.1008 -0.6493 -2.3287
  167SAPE  C21318762   0.723   1.742   4.494  0.4510  0.6792 -0.2493
  167SAPE  H13R18763   0.679   1.843   4.507 -3.0869 -0.8844  1.2490
  167SAPE  H13S18764   0.814   1.756   4.432 -1.1724  1.0060 -2.6812
  167SAPE  C21418765   0.758   1.678   4.624 -0.1044  0.1734 -0.1310
  167SAPE  H14R18766   0.840   1.607   4.612  0.1475  0.8225 -2.9411
  167SAPE  C21518767   0.701   1.700   4.739 -0.3839 -0.2732 -0.2878
  167SAPE  H15R18768   0.731   1.647   4.831 -0.8405 -1.6354 -0.9044
  167SAPE  C21618769   0.584   1.789   4.755  0.4500  0.5573 -0.4844
  167SAPE  H16R18770   0.612   1.889   4.715 -0.9356  0.5971 -1.4255
  167SAPE  H16S18771   0.574   1.799   4.866  2.0076  1.9869 -0.4255
  167SAPE  C21718772   0.441   1.743   4.723  0.3176 -0.1907 -0.9883
  167SAPE  H17R18773   0.437   1.682   4.630 -1.1407 -0.6010 -0.6808
  167SAPE  H17S18774   0.375   1.833   4.718  1.8178  0.9645 -0.7098
  167SAPE  C21818775   0.388   1.652   4.829 -0.2992  0.0846 -0.1711
  167SAPE  H18R18776   0.427   1.684   4.928  0.5796  2.3314 -1.1482
  167SAPE  H18S18777   0.436   1.553   4.814  2.5946  1.1464  1.2992
  167SAPE  C21918778   0.236   1.626   4.827  0.0146 -0.1226 -0.5254
  167SAPE  H19R18779   0.222   1.541   4.897 -1.2444  0.8314  0.4434
  167SAPE  H19S18780   0.186   1.592   4.734  1.3724 -0.4710 -1.1438
  167SAPE  C22018781   0.149   1.737   4.888 -0.2004 -0.0298 -0.5648
  167SAPE  H20R18782   0.102   1.803   4.812  0.0634  1.7619  0.7807
  167SAPE  H20S18783   0.204   1.794   4.966  0.0252 -1.5050  0.4030
  167SAPE  H20T18784   0.064   1.688   4.940  0.3036 -2.0765 -1.5543
  167SAPE   C3318785   0.925   2.596   3.491 -0.6381 -0.1399  0.0219
  167SAPE   H3X18786   0.839   2.638   3.436 -0.4705 -1.5880 -1.4293
  167SAPE   H3Y18787   1.017   2.636   3.443  0.2867 -0.2880  1.6023
  167SAPE   C3418788   0.918   2.670   3.626  0.6327  0.9126  0.6269
  167SAPE   H4X18789   0.815   2.651   3.664  0.8176 -1.4725  0.0606
  167SAPE   H4Y18790   0.920   2.781   3.615 -2.0493  0.9057 -0.9792
  167SAPE   C3518791   1.008   2.631   3.738  0.3410  0.2807  0.3716
  167SAPE   H5X18792   1.116   2.649   3.722  0.3007  0.3258  0.1398
  167SAPE   H5Y18793   1.000   2.522   3.758  3.9196 -0.6513 -2.2754
  167SAPE   C3618794   0.977   2.695   3.883  0.2575 -0.5163  0.5540
  167SAPE   H6X18795   1.042   2.650   3.960  0.8764 -0.8520 -0.1545
  167SAPE   H6Y18796   0.873   2.667   3.910  0.3239 -2.5837 -1.0932
  167SAPE   C3718797   0.997   2.849   3.890 -0.1895 -0.7048  0.4446
  167SAPE   H7X18798   0.938   2.888   3.804 -3.7660 -0.2342  2.8534
  167SAPE   H7Y18799   1.103   2.880   3.885 -0.2583 -0.6644 -2.8290
  167SAPE   C3818800   0.942   2.909   4.021  0.8457  0.4605  0.3169
  167SAPE   H8X18801   0.831   2.897   4.023  0.7025  1.7380  1.9237
  167SAPE   H8Y18802   0.961   3.018   4.025  1.1838  0.4115  0.0690
  167SAPE   C3918803   0.997   2.866   4.158 -0.1895 -0.2864  0.5266
  167SAPE   H9X18804   1.108   2.875   4.158 -0.2018 -0.1258  0.1860
  167SAPE   H9Y18805   0.980   2.757   4.168  1.3062 -0.3788  2.8705
  167SAPE  C31018806   0.933   2.937   4.272 -0.0755 -0.0276 -1.0122
  167SAPE  H10X18807   0.822   2.926   4.277 -0.0262 -0.0870  0.0805
  167SAPE  H10Y18808   0.952   3.045   4.256  0.4332 -0.0206 -0.3898
  167SAPE  C31118809   0.985   2.894   4.409  0.7034  0.3806  0.3451
  167SAPE  H11X18810   1.089   2.929   4.425 -0.2267  2.9708  1.2110
  167SAPE  H11Y18811   0.979   2.783   4.420  2.0289  0.2856  0.3144
  167SAPE  C31218812   0.896   2.952   4.525 -0.3174 -0.1321 -0.0089
  167SAPE  H12X18813   0.787   2.936   4.508 -0.3115  0.9333 -1.2232
  167SAPE  H12Y18814   0.915   3.062   4.527  0.0644 -0.2064  0.7562
  167SAPE  C31318815   0.934   2.898   4.663 -0.1590  0.2673 -0.2592
  167SAPE  H13X18816   1.044   2.885   4.673 -0.2611  0.7366  1.7633
  167SAPE  H13Y18817   0.889   2.797   4.657 -0.7107  0.5577 -4.3928
  167SAPE  C31418818   0.899   2.985   4.784 -0.7097  0.2490  0.2677
  167SAPE  H14X18819   0.790   3.001   4.794 -0.5956  2.2006 -1.0973
  167SAPE  H14Y18820   0.944   3.086   4.774  0.1730 -0.3311 -2.6944
  167SAPE  C31518821   0.941   2.902   4.914  0.6628 -0.5890  1.3367
  167SAPE  H15X18822   1.051   2.908   4.909  0.6831 -0.9029  1.3516
  167SAPE  H15Y18823   0.907   2.796   4.903  0.1025 -0.3782  0.9574
  167SAPE  C31618824   0.883   2.965   5.042 -0.0049 -0.0905  0.3697
  167SAPE  H16X18825   0.787   2.913   5.062 -0.9482  0.9022 -1.3476
  167SAPE  H16Y18826   0.876   3.074   5.022 -0.8728 -0.2925 -0.4832
  167SAPE  C31718827   0.969   2.937   5.177  0.0321 -0.0698  0.5865
  167SAPE  H17X18828   0.894   2.928   5.259  1.8732  3.2817  2.8931
  167SAPE  H17Y18829   1.041   3.019   5.199  1.2661 -0.6653 -1.0324
  167SAPE  C31818830   1.040   2.807   5.183  0.0647  0.4161 -0.3376
  167SAPE  H18X18831   0.978   2.715   5.174  1.9938 -0.9753  0.0224
  167SAPE  H18Y18832   1.084   2.795   5.284 -3.1851  0.5378  1.2534
  167SAPE  H18Z18833   1.128   2.795   5.117 -0.2097  1.8031 -0.9910
  168SAPE     N18834   4.768   4.643   2.534  0.1942 -0.6065  0.4742
  168SAPE   HN118835   4.818   4.733   2.514 -1.4066  0.0229 -0.9347
  168SAPE   HN218836   4.730   4.618   2.440  0.1793  0.9944  0.0122
  168SAPE   HN318837   4.684   4.656   2.593  0.0869  1.1807 -0.0086
  168SAPE   C1218838   4.865   4.558   2.613  0.5471 -0.0986  0.4661
  168SAPE  H12A18839   4.887   4.474   2.544 -2.1910  0.4528 -1.2231
  168SAPE  H12B18840   4.828   4.519   2.710 -1.0536 -1.5479 -0.6787
  168SAPE   C1118841   4.999   4.635   2.619  0.5925  0.6777  0.1109
  168SAPE  H11A18842   5.029   4.676   2.520  1.0224 -1.9436 -0.9223
  168SAPE  H11B18843   5.067   4.549   2.637 -0.4481 -0.5333 -1.4197
  168SAPE     P18844   5.132   4.841   2.725 -0.0404  0.1192 -0.1021
  168SAPE   O1318845   5.254   4.770   2.706 -0.6054 -0.1249 -0.2672
  168SAPE   O1418846   5.090   4.949   2.635 -0.5777 -0.4963  0.8223
  168SAPE   O1218847   5.013   4.730   2.724  0.3081  0.1445 -0.1589
  168SAPE   O1118848   5.135   4.902   2.874  0.3624  0.0674 -0.1110
  168SAPE    C118849   5.010   4.962   2.923 -0.5552 -0.4607  0.5217
  168SAPE    HA18850   5.010   5.073   2.922  1.2019 -0.4278  1.0259
  168SAPE    HB18851   4.923   4.927   2.863 -0.0254 -0.6906 -0.1336
  168SAPE    C218852   4.974   4.917   3.066  0.4899 -0.2510  0.0208
  168SAPE    HS18853   4.876   4.964   3.089 -0.8275 -2.0539 -1.6133
  168SAPE   O2118854   5.078   4.933   3.163 -0.5289 -0.0870 -0.1807
  168SAPE   C2118855   5.034   4.994   3.277 -0.6790  0.1657  0.4634
  168SAPE   O2218856   4.945   5.077   3.281  0.4796 -0.9146 -0.0928
  168SAPE   C2218857   5.133   4.949   3.387  0.6350  0.3320 -0.0535
  168SAPE   H2R18858   5.166   4.843   3.375  0.9014  0.6094 -2.0714
  168SAPE   H2S18859   5.216   5.021   3.397  1.6446 -0.8408  0.2693
  168SAPE    C318860   4.934   4.768   3.056  0.0401 -0.0251 -0.5270
  168SAPE    HX18861   5.008   4.699   3.010  1.0295 -0.0501  1.0167
  168SAPE    HY18862   4.856   4.771   2.976  0.2525  1.6408 -0.6967
  168SAPE   O3118863   4.871   4.709   3.179  0.0052 -0.5559 -0.6921
  168SAPE   C3118864   4.922   4.609   3.247  0.0641 -0.2166 -0.1070
  168SAPE   O3218865   5.026   4.558   3.219 -0.2647  0.2856 -0.1341
  168SAPE   C3218866   4.823   4.574   3.352  0.1417  0.0441 -0.2759
  168SAPE   H2X18867   4.730   4.538   3.303  0.3454 -1.8234  0.6028
  168SAPE   H2Y18868   4.816   4.666   3.413  0.5525  0.1632 -0.4061
  168SAPE   C2318869   5.051   4.952   3.518 -0.8169 -0.1244  0.1123
  168SAPE   H3R18870   4.985   4.863   3.520  1.2173 -1.7273  2.2745
  168SAPE   H3S18871   5.018   5.057   3.533 -0.5520  0.3730 -2.2547
  168SAPE   C2418872   5.153   4.939   3.640 -0.1791 -0.3032  0.3765
  168SAPE   H4R18873   5.099   4.979   3.729  0.1319 -0.4042  0.6130
  168SAPE   H4S18874   5.236   5.011   3.625  0.1618 -0.6655  0.5036
  168SAPE   C2518875   5.196   4.796   3.651 -0.0654 -0.0986 -0.5406
  168SAPE   H5R18876   5.241   4.746   3.564  1.0901  0.6119 -0.3842
  168SAPE   C2618877   5.170   4.715   3.756 -0.0905 -0.2301 -0.6279
  168SAPE   H6R18878   5.201   4.609   3.750  1.1407 -0.0888  1.8071
  168SAPE   C2718879   5.095   4.745   3.877  0.8804  0.2637  0.1666
  168SAPE   H7R18880   5.067   4.853   3.883  0.3988  0.3059 -1.9367
  168SAPE   H7S18881   5.158   4.718   3.964  2.4704  0.0850 -0.9887
  168SAPE   C2818882   4.963   4.674   3.873  0.5512 -0.5280  0.2659
  168SAPE   H8R18883   4.919   4.665   3.773  2.3784 -1.8776 -0.4718
  168SAPE   C2918884   4.908   4.610   3.981 -0.8944 -0.3524 -0.3900
  168SAPE   H9R18885   4.810   4.568   3.951 -0.4916  1.2268 -4.6233
  168SAPE  C21018886   4.961   4.603   4.122  0.2175  0.2760 -0.2054
  168SAPE  H10R18887   4.888   4.554   4.190  1.6490 -1.7150 -0.0107
  168SAPE  H10S18888   4.980   4.708   4.152  0.5254 -0.1648  1.2413
  168SAPE  C21118889   5.091   4.522   4.138  0.4852 -0.0765  0.1923
  168SAPE  H11R18890   5.127   4.467   4.050 -0.0380 -0.0014 -0.0750
  168SAPE  C21218891   5.170   4.533   4.244 -0.7715  0.1652  0.0174
  168SAPE  H12R18892   5.266   4.481   4.245 -0.8706 -0.1214  2.7316
  168SAPE  C21318893   5.147   4.605   4.370 -0.2173 -0.1114  0.0072
  168SAPE  H13R18894   5.063   4.677   4.359 -0.4847 -0.3466  0.4577
  168SAPE  H13S18895   5.241   4.655   4.401 -0.5101  0.2242  0.3653
  168SAPE  C21418896   5.115   4.491   4.477  0.0880 -0.0507  0.0991
  168SAPE  H14R18897   5.147   4.391   4.445 -1.8014 -1.3190  1.8609
  168SAPE  C21518898   5.048   4.499   4.594 -0.5115  0.1925  1.0793
  168SAPE  H15R18899   5.022   4.401   4.635 -0.0968 -0.2399  0.3361
  168SAPE  C21618900   4.985   4.617   4.652 -0.0386 -0.4252  0.3405
  168SAPE  H16R18901   4.988   4.703   4.581  2.2616 -1.5792 -1.0691
  168SAPE  H16S18902   5.030   4.636   4.752  2.0342  0.6247 -0.7221
  168SAPE  C21718903   4.838   4.587   4.680 -0.0268  0.0699 -0.3369
  168SAPE  H17R18904   4.773   4.567   4.592 -0.0706  1.8682 -0.7468
  168SAPE  H17S18905   4.812   4.682   4.731  1.5322  0.0586  0.5435
  168SAPE  C21818906   4.808   4.478   4.787  0.3215  0.6988  0.3197
  168SAPE  H18R18907   4.838   4.377   4.754 -0.0550  0.9595 -0.8902
  168SAPE  H18S18908   4.698   4.465   4.791  0.4769 -0.4784  1.2824
  168SAPE  C21918909   4.864   4.513   4.925 -0.4526  0.5032  0.3271
  168SAPE  H19R18910   4.850   4.621   4.944  1.9130  0.3769  3.3771
  168SAPE  H19S18911   4.975   4.507   4.928 -0.4764  0.4784  1.2545
  168SAPE  C22018912   4.813   4.426   5.037  0.5224  0.6507 -0.0135
  168SAPE  H20R18913   4.835   4.472   5.136 -0.7116  0.4236  0.3842
  168SAPE  H20S18914   4.855   4.323   5.039  0.2899  0.5645  0.8487
  168SAPE  H20T18915   4.702   4.421   5.026  0.4903  0.7226  0.2656
  168SAPE   C3318916   4.871   4.473   3.454 -0.3361  0.0601  0.0536
  168SAPE   H3X18917   4.945   4.525   3.519 -0.2353  1.2382 -0.9863
  168SAPE   H3Y18918   4.907   4.373   3.421  0.9928  0.4639  0.2101
  168SAPE   C3418919   4.759   4.434   3.556  0.8613  0.8559 -0.0350
  168SAPE   H4X18920   4.691   4.362   3.506 -0.8948  1.4617  1.3652
  168SAPE   H4Y18921   4.702   4.516   3.605  0.2637 -0.1693  1.0417
  168SAPE   C3518922   4.811   4.348   3.676  0.6212 -0.4530 -0.4405
  168SAPE   H5X18923   4.888   4.415   3.720  0.3038  0.2573 -0.9451
  168SAPE   H5Y18924   4.869   4.258   3.646  1.2109 -0.3311  0.2824
  168SAPE   C3618925   4.700   4.321   3.779  0.9068 -0.7983  0.1004
  168SAPE   H6X18926   4.624   4.270   3.716  1.0073 -0.0982 -0.5991
  168SAPE   H6Y18927   4.660   4.420   3.812 -0.7904 -1.0525 -1.1159
  168SAPE   C3718928   4.741   4.246   3.903  0.0687 -0.2165  0.3763
  168SAPE   H7X18929   4.834   4.293   3.940  0.4433 -0.2591 -0.4956
  168SAPE   H7Y18930   4.750   4.138   3.876  0.3654  0.2101 -1.3332
  168SAPE   C3818931   4.637   4.254   4.017  0.2515 -0.5769  0.4306
  168SAPE   H8X18932   4.534   4.248   3.976  0.7501  0.4126 -1.0234
  168SAPE   H8Y18933   4.648   4.353   4.065  3.9922  0.1692 -1.5845
  168SAPE   C3918934   4.650   4.147   4.129 -0.3120 -0.2120 -0.5017
  168SAPE   H9X18935   4.635   4.044   4.090  0.0533 -0.4270 -0.0762
  168SAPE   H9Y18936   4.560   4.145   4.195  0.4515 -1.4267  0.5468
  168SAPE  C31018937   4.787   4.153   4.202 -0.1482 -0.3896 -0.4270
  168SAPE  H10X18938   4.870   4.137   4.130  0.3369  0.3568 -0.0419
  168SAPE  H10Y18939   4.778   4.080   4.285  1.0869  0.3979  0.4485
  168SAPE  C31118940   4.814   4.283   4.277 -0.4750 -0.5314  0.4625
  168SAPE  H11X18941   4.846   4.363   4.208 -1.1654 -1.1004 -0.5416
  168SAPE  H11Y18942   4.890   4.268   4.358 -0.9237  2.1666  1.4847
  168SAPE  C31218943   4.698   4.347   4.354 -0.4422 -0.3172 -0.0712
  168SAPE  H12X18944   4.615   4.369   4.285  0.2922  0.3916 -0.7496
  168SAPE  H12Y18945   4.725   4.443   4.404 -1.5733 -1.9344  4.1211
  168SAPE  C31318946   4.662   4.258   4.474  0.4162 -0.7476  0.7275
  168SAPE  H13X18947   4.757   4.258   4.531  0.6640 -0.3083  0.3231
  168SAPE  H13Y18948   4.633   4.163   4.425 -0.2404  0.4836 -1.4269
  168SAPE  C31418949   4.546   4.325   4.545 -0.1518  0.1640 -0.6149
  168SAPE  H14X18950   4.458   4.342   4.480 -1.7868  1.6002  1.8220
  168SAPE  H14Y18951   4.581   4.429   4.565 -0.9579  0.5495 -1.1835
  168SAPE  C31518952   4.518   4.254   4.680  0.5605  0.4630 -0.2393
  168SAPE  H15X18953   4.605   4.257   4.749 -0.9589  1.6418  1.6896
  168SAPE  H15Y18954   4.507   4.148   4.646  0.9069  0.6551 -0.9934
  168SAPE  C31618955   4.396   4.317   4.746  0.3714  0.1626 -0.4168
  168SAPE  H16X18956   4.310   4.322   4.676 -0.8694  0.8786  1.0999
  168SAPE  H16Y18957   4.419   4.422   4.775  1.3625  0.3551 -1.7690
  168SAPE  C31718958   4.341   4.239   4.870 -0.3589 -0.3231 -0.0466
  168SAPE  H17X18959   4.339   4.128   4.857 -1.6561 -0.2058 -0.9897
  168SAPE  H17Y18960   4.234   4.269   4.877 -0.3863 -0.0715 -1.2838
  168SAPE  C31818961   4.396   4.286   5.008  0.3102 -0.3688  0.6095
  168SAPE  H18X18962   4.316   4.269   5.083 -0.1910 -1.1731 -0.0806
  168SAPE  H18Y18963   4.415   4.395   5.002 -0.2039 -0.2153  1.5929
  168SAPE  H18Z18964   4.477   4.216   5.038 -1.2462 -1.7059  1.9339
  169SAPE     N18965   1.983   2.073   2.281 -0.2187  0.2380 -0.7400
  169SAPE   HN118966   2.072   2.123   2.264  0.7942 -1.0190  0.6329
  169SAPE   HN218967   1.998   2.009   2.362 -0.0941  2.5919  1.1954
  169SAPE   HN318968   1.945   2.027   2.195 -1.0241 -0.9664  0.2224
  169SAPE   C1218969   1.891   2.178   2.342  0.4061  0.3187 -0.3540
  169SAPE  H12A18970   1.789   2.135   2.348  1.4007 -2.0845  0.4702
  169SAPE  H12B18971   1.902   2.273   2.285  1.4982 -0.2790 -1.1850
  169SAPE   C1118972   1.932   2.218   2.484  0.4656  0.4099  0.0155
  169SAPE  H11A18973   1.984   2.316   2.483  1.8411 -0.3023 -1.5094
  169SAPE  H11B18974   1.985   2.136   2.537 -0.0109  0.7203  0.9981
  169SAPE     P18975   1.752   2.168   2.676  0.1432 -0.1498 -0.1755
  169SAPE   O1318976   1.625   2.224   2.722  0.6464  0.0305  1.0381
  169SAPE   O1418977   1.769   2.024   2.670 -0.4113  0.3059 -0.2848
  169SAPE   O1218978   1.806   2.244   2.546  0.0519  0.4551 -0.4703
  169SAPE   O1118979   1.861   2.209   2.783  0.4629 -0.9321 -0.6156
  169SAPE    C118980   1.885   2.343   2.833  0.0103  0.4151  0.6456
  169SAPE    HA18981   1.983   2.378   2.795 -0.5037 -0.2449 -1.4127
  169SAPE    HB18982   1.815   2.423   2.800  1.3785  1.1265 -0.6504
  169SAPE    C218983   1.897   2.349   2.989  0.6740 -0.2241 -0.6644
  169SAPE    HS18984   1.966   2.272   3.029  1.7463  1.0464  0.0181
  169SAPE   O2118985   1.761   2.325   3.036 -0.2464  0.1038  0.6652
  169SAPE   C2118986   1.732   2.197   3.062 -0.2470 -0.2188 -0.0414
  169SAPE   O2218987   1.815   2.107   3.071  0.6177  0.2160  0.2284
  169SAPE   C2218988   1.583   2.182   3.100  0.2223 -0.6747  0.1821
  169SAPE   H2R18989   1.535   2.280   3.084  0.2261 -0.6240  0.4887
  169SAPE   H2S18990   1.541   2.103   3.034 -2.4378 -0.8878  1.9614
  169SAPE    C318991   1.959   2.488   3.032  0.0648  0.0805 -0.2918
  169SAPE    HX18992   1.919   2.572   2.972 -0.4739  0.7839  1.0362
  169SAPE    HY18993   2.070   2.487   3.018  0.2953 -1.4527  1.3048
  169SAPE   O3118994   1.943   2.509   3.169 -0.8228  0.1415 -0.1730
  169SAPE   C3118995   1.831   2.567   3.202 -0.2416  0.0046 -0.1547
  169SAPE   O3218996   1.740   2.602   3.128 -0.2372  0.5084  0.5566
  169SAPE   C3218997   1.831   2.581   3.353  0.4527 -0.5825  0.5622
  169SAPE   H2X18998   1.933   2.572   3.398  1.5574 -1.4128 -1.9120
  169SAPE   H2Y18999   1.764   2.501   3.390 -2.1070  1.0878 -0.2245
  169SAPE   C2319000   1.568   2.120   3.240 -0.5065 -0.7864  0.0131
  169SAPE   H3R19001   1.624   2.025   3.251 -2.1385 -1.7168  0.5182
  169SAPE   H3S19002   1.465   2.080   3.248 -0.1384 -1.5550  1.1261
  169SAPE   C2419003   1.578   2.213   3.359  0.4945  0.2603  0.2216
  169SAPE   H4R19004   1.681   2.253   3.346  1.1453 -1.9016 -2.0672
  169SAPE   H4S19005   1.587   2.147   3.448  0.0918  0.0672  0.1203
  169SAPE   C2519006   1.486   2.330   3.393 -1.0745  0.5590  0.5240
  169SAPE   H5R19007   1.516   2.420   3.338 -0.0733 -0.0605  0.0407
  169SAPE   C2619008   1.367   2.321   3.449 -0.0071 -0.2228  0.5202
  169SAPE   H6R19009   1.310   2.415   3.456 -1.1350 -0.7341 -1.1537
  169SAPE   C2719010   1.306   2.187   3.489  0.6231  0.4533  0.0881
  169SAPE   H7R19011   1.299   2.125   3.397 -1.2070  0.8741 -0.0967
  169SAPE   H7S19012   1.200   2.212   3.509  1.0426  0.2545  3.0356
  169SAPE   C2819013   1.365   2.115   3.603  0.5523  0.6013 -0.2969
  169SAPE   H8R19014   1.463   2.064   3.596  0.0720 -0.4618  0.3979
  169SAPE   C2919015   1.305   2.092   3.727 -0.1815  0.1092  0.7115
  169SAPE   H9R19016   1.361   2.019   3.787  0.0601 -1.7588 -1.6558
  169SAPE  C21019017   1.162   2.118   3.770  0.3500  0.1849 -0.3493
  169SAPE  H10R19018   1.098   2.045   3.716 -0.1542  0.0042  0.4692
  169SAPE  H10S19019   1.119   2.213   3.730 -2.5971 -1.1740 -0.6825
  169SAPE  C21119020   1.127   2.096   3.921  0.0889  0.7665 -0.1323
  169SAPE  H11R19021   1.157   1.998   3.960 -1.4827  0.1650 -0.3675
  169SAPE  C21219022   1.052   2.172   3.999 -0.3951 -0.3103  0.0048
  169SAPE  H12R19023   1.055   2.151   4.107  0.8795  0.5831  0.1732
  169SAPE  C21319024   0.999   2.307   3.963  0.3057 -0.5974  0.4822
  169SAPE  H13R19025   1.059   2.343   3.877  0.1618 -0.5716  0.3928
  169SAPE  H13S19026   1.007   2.382   4.044  1.1204  0.5148 -0.5992
  169SAPE  C21419027   0.857   2.299   3.916 -0.4301  0.0836 -0.2131
  169SAPE  H14R19028   0.846   2.283   3.808 -0.8435 -0.2152 -0.1276
  169SAPE  C21519029   0.744   2.293   3.995  0.1103 -0.1143  0.6217
  169SAPE  H15R19030   0.643   2.284   3.952 -0.3293  2.7096  0.8952
  169SAPE  C21619031   0.727   2.328   4.140 -0.8696 -0.1081 -0.7182
  169SAPE  H16R19032   0.644   2.402   4.151 -1.0956 -0.2804 -1.2440
  169SAPE  H16S19033   0.817   2.390   4.159  0.9351 -1.9670 -2.7176
  169SAPE  C21719034   0.736   2.201   4.229  0.1727 -0.0725 -0.2535
  169SAPE  H17R19035   0.830   2.146   4.208 -0.5962 -1.5517  0.0214
  169SAPE  H17S19036   0.652   2.131   4.211  0.7988 -0.4662 -1.8041
  169SAPE  C21819037   0.730   2.240   4.378  0.2016 -0.0159  0.8585
  169SAPE  H18R19038   0.626   2.277   4.390  0.5935  1.2855  0.4499
  169SAPE  H18S19039   0.806   2.320   4.394  0.6702 -0.3851  0.4885
  169SAPE  C21919040   0.769   2.139   4.482 -0.6176 -0.0263 -0.0989
  169SAPE  H19R19041   0.877   2.119   4.495 -1.1502 -3.0701  0.5443
  169SAPE  H19S19042   0.715   2.045   4.455 -2.0117  0.9044 -0.6968
  169SAPE  C22019043   0.703   2.183   4.615 -0.5112 -0.3896 -0.5850
  169SAPE  H20R19044   0.596   2.156   4.616 -0.6100 -0.0334  1.0280
  169SAPE  H20S19045   0.701   2.293   4.634  0.4942 -0.4582 -0.0101
  169SAPE  H20T19046   0.751   2.126   4.698  2.6079  2.2301 -0.3795
  169SAPE   C3319047   1.771   2.716   3.391 -0.1671 -0.0340  0.4759
  169SAPE   H3X19048   1.678   2.740   3.335  0.5918  1.3552 -0.2445
  169SAPE   H3Y19049   1.842   2.793   3.355 -0.5613  0.3787  0.5640
  169SAPE   C3419050   1.765   2.731   3.544  0.0679  0.1970 -0.9683
  169SAPE   H4X19051   1.759   2.840   3.565 -0.7045  0.2917 -1.6456
  169SAPE   H4Y19052   1.855   2.691   3.597  0.5250 -0.1453 -1.9663
  169SAPE   C3519053   1.636   2.672   3.609  0.3613  0.5138  0.5868
  169SAPE   H5X19054   1.645   2.562   3.610  1.5185  0.5780  2.4536
  169SAPE   H5Y19055   1.545   2.707   3.556 -0.9415 -1.3098  1.5161
  169SAPE   C3619056   1.623   2.702   3.761 -0.4430 -0.3551 -0.7300
  169SAPE   H6X19057   1.600   2.811   3.766 -1.1276 -0.4823 -1.0254
  169SAPE   H6Y19058   1.715   2.682   3.820 -1.0189 -0.4961  0.1409
  169SAPE   C3719059   1.512   2.631   3.849  0.1423  0.6010  0.5226
  169SAPE   H7X19060   1.548   2.526   3.852  1.5878  0.9670 -1.5773
  169SAPE   H7Y19061   1.420   2.637   3.787 -0.2642  0.1291  1.0805
  169SAPE   C3819062   1.496   2.703   3.986 -0.5661 -0.1701 -0.1242
  169SAPE   H8X19063   1.463   2.808   3.986  0.5935  0.2103  0.4722
  169SAPE   H8Y19064   1.598   2.701   4.029 -0.8394 -0.7086  0.5101
  169SAPE   C3919065   1.414   2.613   4.085  0.1395  0.0068  0.1070
  169SAPE   H9X19066   1.474   2.520   4.081 -0.2316 -0.1963 -1.0912
  169SAPE   H9Y19067   1.316   2.597   4.035 -0.1384  0.1759  0.5884
  169SAPE  C31019068   1.391   2.678   4.217 -0.1555  0.1108 -0.4355
  169SAPE  H10X19069   1.349   2.779   4.194 -1.3149 -0.5181 -1.1854
  169SAPE  H10Y19070   1.491   2.685   4.265 -1.6246 -1.8971  3.2912
  169SAPE  C31119071   1.293   2.607   4.314 -0.7960 -0.4056  0.8186
  169SAPE  H11X19072   1.209   2.569   4.252 -0.0129 -0.6575 -0.1193
  169SAPE  H11Y19073   1.258   2.674   4.396 -2.3456 -1.8430  1.3947
  169SAPE  C31219074   1.345   2.476   4.377 -0.1764 -0.1191  0.0561
  169SAPE  H12X19075   1.437   2.502   4.434 -0.7991 -0.4990  1.2522
  169SAPE  H12Y19076   1.362   2.403   4.295 -0.2234  1.9715 -1.9177
  169SAPE  C31319077   1.248   2.405   4.481 -0.1597  0.4053 -0.2106
  169SAPE  H13X19078   1.299   2.326   4.540 -2.7702 -2.2587 -1.2681
  169SAPE  H13Y19079   1.181   2.340   4.421  1.1491  0.5554 -1.8863
  169SAPE  C31419080   1.185   2.496   4.586 -0.3563  0.2620 -0.6483
  169SAPE  H14X19081   1.124   2.566   4.525 -0.1387 -1.3186 -2.7526
  169SAPE  H14Y19082   1.270   2.556   4.625  0.0718  1.5756 -3.3736
  169SAPE  C31519083   1.107   2.428   4.701 -0.0517  0.6494 -0.4538
  169SAPE  H15X19084   1.174   2.355   4.750 -0.1305 -0.8210 -2.4132
  169SAPE  H15Y19085   1.023   2.368   4.662 -0.6654  0.9488  0.3791
  169SAPE  C31619086   1.055   2.525   4.807 -0.9128  0.3900  0.6868
  169SAPE  H16X19087   0.987   2.598   4.757 -0.5945  0.4191  0.2933
  169SAPE  H16Y19088   1.142   2.578   4.852  0.5381  0.0671 -1.5722
  169SAPE  C31719089   0.980   2.458   4.924 -0.1509  0.6300  0.2685
  169SAPE  H17X19090   0.987   2.528   5.009 -1.4641 -0.4268  1.2917
  169SAPE  H17Y19091   1.032   2.363   4.948  1.8453  0.0064 -5.0300
  169SAPE  C31819092   0.831   2.414   4.897  0.2833  0.0849  0.4044
  169SAPE  H18X19093   0.771   2.414   4.991 -0.1081  0.8861  0.1609
  169SAPE  H18Y19094   0.832   2.314   4.848 -1.2258  1.5811 -3.0072
  169SAPE  H18Z19095   0.785   2.488   4.829  1.2853 -0.0578 -0.4311
  170SAPE     N19096   3.171   4.348   2.619 -0.6348  0.2041  0.4610
  170SAPE   HN119097   3.242   4.420   2.593 -1.5869  0.2356 -2.4261
  170SAPE   HN219098   3.207   4.295   2.701  0.8986  0.1279 -0.2273
  170SAPE   HN319099   3.176   4.276   2.544  0.5918 -0.4584  1.1383
  170SAPE   C1219100   3.042   4.406   2.645  0.5234  0.2337 -0.3637
  170SAPE  H12A19101   2.975   4.358   2.570  1.1823 -0.4327 -0.5334
  170SAPE  H12B19102   3.040   4.513   2.618  0.9064  0.6279  1.0855
  170SAPE   C1119103   2.997   4.374   2.787  0.8490 -1.0193 -0.0771
  170SAPE  H11A19104   2.902   4.431   2.793  1.5731  0.2538 -0.4550
  170SAPE  H11B19105   3.079   4.409   2.854  3.3221 -2.1698 -2.2831
  170SAPE     P19106   3.066   4.124   2.878  0.0856 -0.2719 -0.0042
  170SAPE   O1319107   2.981   4.006   2.901 -0.0748 -0.2607 -0.3482
  170SAPE   O1419108   3.186   4.109   2.794  0.1328 -0.5129 -0.1686
  170SAPE   O1219109   2.978   4.233   2.810  0.1748 -0.1162 -0.4802
  170SAPE   O1119110   3.103   4.193   3.014 -0.2013 -0.3946  0.4650
  170SAPE    C119111   2.999   4.228   3.106  0.4415 -1.0001  0.7698
  170SAPE    HA19112   2.985   4.337   3.123 -0.0056 -0.6193 -1.6280
  170SAPE    HB19113   2.899   4.188   3.077 -1.1207  2.1350  1.3643
  170SAPE    C219114   3.033   4.173   3.245  0.6052 -0.0049  0.8192
  170SAPE    HS19115   2.968   4.228   3.316  0.9567  2.2122 -0.4727
  170SAPE   O2119116   3.173   4.188   3.269  0.0658  0.0804 -0.8392
  170SAPE   C2119117   3.215   4.301   3.331  0.0232  0.2838 -0.6713
  170SAPE   O2219118   3.150   4.404   3.323 -0.3926 -0.2478  0.5061
  170SAPE   C2219119   3.352   4.274   3.386  0.2690 -0.4911 -0.3107
  170SAPE   H2R19120   3.393   4.177   3.351 -0.4552 -0.9389  0.0627
  170SAPE   H2S19121   3.418   4.351   3.340 -1.8811  1.3716 -0.4685
  170SAPE    C319122   3.009   4.024   3.253  0.0984 -0.1726  0.5161
  170SAPE    HX19123   3.079   3.981   3.178 -1.8190 -0.6529 -1.0998
  170SAPE    HY19124   2.906   4.005   3.216 -0.1816  0.6341  0.8558
  170SAPE   O3119125   3.033   3.965   3.383 -0.0231  0.0140 -0.5041
  170SAPE   C3119126   2.953   4.011   3.481  0.9353  0.2888  0.3097
  170SAPE   O3219127   2.867   4.096   3.465  0.3985  0.4429  0.3550
  170SAPE   C3219128   2.981   3.945   3.609  0.2700 -0.2668  0.4225
  170SAPE   H2X19129   3.080   3.983   3.644  0.7455 -0.9152 -0.1951
  170SAPE   H2Y19130   3.004   3.837   3.591  1.8618  0.0600  0.3007
  170SAPE   C2319131   3.351   4.281   3.538  0.5157  0.3650 -0.4998
  170SAPE   H3R19132   3.314   4.376   3.582 -0.6924 -0.5217  0.4526
  170SAPE   H3S19133   3.459   4.266   3.560  0.4367 -0.4665 -0.6379
  170SAPE   C2419134   3.269   4.173   3.614 -0.3391  0.8436 -0.6961
  170SAPE   H4R19135   3.175   4.137   3.566  0.6041 -3.2695  0.1689
  170SAPE   H4S19136   3.244   4.224   3.709  1.1906  1.2232 -0.4618
  170SAPE   C2519137   3.347   4.044   3.635  0.8005  0.3012 -0.5625
  170SAPE   H5R19138   3.370   3.987   3.544  0.2596 -1.8794  0.6122
  170SAPE   C2619139   3.393   4.004   3.753 -0.0514 -0.0636  0.1417
  170SAPE   H6R19140   3.461   3.918   3.764  0.1827  0.1752  0.5786
  170SAPE   C2719141   3.385   4.078   3.883 -0.1518 -0.3212 -0.3139
  170SAPE   H7R19142   3.335   4.175   3.865  1.4964  0.6287 -0.0269
  170SAPE   H7S19143   3.486   4.111   3.917 -0.8998 -0.2457  2.0045
  170SAPE   C2819144   3.333   3.989   3.997 -0.4710  0.5286  0.2635
  170SAPE   H8R19145   3.304   3.890   3.960  0.7021 -0.0649  0.8996
  170SAPE   C2919146   3.329   4.027   4.130  1.1661 -0.4822 -0.1142
  170SAPE   H9R19147   3.308   3.954   4.210 -0.6400  0.5487  0.4076
  170SAPE  C21019148   3.358   4.169   4.188 -0.2660  0.3055  0.8094
  170SAPE  H10R19149   3.396   4.242   4.114  0.1921 -1.2889 -0.5978
  170SAPE  H10S19150   3.429   4.173   4.272  0.6813 -0.4183  0.0662
  170SAPE  C21119151   3.221   4.221   4.237  0.0004 -0.1871  0.1917
  170SAPE  H11R19152   3.143   4.232   4.160 -1.1540  1.5757  1.5438
  170SAPE  C21219153   3.176   4.224   4.367 -0.2474 -0.8968 -0.2055
  170SAPE  H12R19154   3.079   4.269   4.393 -0.1029 -1.3098  1.1315
  170SAPE  C21319155   3.249   4.174   4.491 -0.0147 -0.3350 -0.3620
  170SAPE  H13R19156   3.345   4.128   4.460  1.2482  1.1341  1.1509
  170SAPE  H13S19157   3.192   4.095   4.545  2.4016 -1.8065  0.2146
  170SAPE  C21419158   3.297   4.291   4.572 -0.1261 -0.2435 -0.1574
  170SAPE  H14R19159   3.360   4.360   4.515  3.2692  0.4481  3.9541
  170SAPE  C21519160   3.272   4.321   4.703  0.4208 -0.1396  0.9636
  170SAPE  H15R19161   3.313   4.413   4.748 -2.4323  1.9295 -0.3383
  170SAPE  C21619162   3.209   4.234   4.806 -0.3607  0.3390 -0.0340
  170SAPE  H16R19163   3.176   4.133   4.771  0.2155 -1.3978  3.8854
  170SAPE  H16S19164   3.117   4.285   4.841 -0.6629 -2.6432  4.4453
  170SAPE  C21719165   3.319   4.214   4.922  0.4455  0.5017 -0.0294
  170SAPE  H17R19166   3.268   4.168   5.010  0.2304 -0.7253 -0.7664
  170SAPE  H17S19167   3.351   4.313   4.962 -2.5783  0.7104  2.2940
  170SAPE  C21819168   3.426   4.118   4.884 -0.1878  0.4517  0.6355
  170SAPE  H18R19169   3.475   4.163   4.795 -0.4484  1.5581  1.0450
  170SAPE  H18S19170   3.376   4.020   4.865  0.6081  0.3742 -1.2961
  170SAPE  C21919171   3.540   4.106   4.992  0.5947 -0.1153  0.4664
  170SAPE  H19R19172   3.594   4.202   4.984  0.4416 -0.1634 -2.4878
  170SAPE  H19S19173   3.592   4.013   4.961 -1.1517 -1.5433  1.5968
  170SAPE  C22019174   3.482   4.088   5.135 -0.0193  0.4343 -0.1037
  170SAPE  H20R19175   3.551   4.042   5.210  1.7127  2.1742 -0.5315
  170SAPE  H20S19176   3.396   4.020   5.121 -0.2168  0.3130  1.5250
  170SAPE  H20T19177   3.444   4.186   5.171 -1.3259 -0.4467  0.9947
  170SAPE   C3319178   2.887   3.960   3.732 -0.1619  0.6982  0.6131
  170SAPE   H3X19179   2.804   3.886   3.723  0.3160  0.0899  1.1543
  170SAPE   H3Y19180   2.838   4.060   3.736 -2.1201 -0.1412 -0.7920
  170SAPE   C3419181   2.952   3.937   3.871 -0.0828 -0.2368 -0.0526
  170SAPE   H4X19182   3.040   4.006   3.868 -1.8792  2.1142 -1.4733
  170SAPE   H4Y19183   2.993   3.834   3.865  2.1697  0.5387  0.6768
  170SAPE   C3519184   2.856   3.961   3.991  0.0027 -0.2648 -0.1924
  170SAPE   H5X19185   2.765   3.898   3.980 -0.5876  0.7685 -1.4900
  170SAPE   H5Y19186   2.825   4.066   3.975  0.1594 -0.2834 -0.6099
  170SAPE   C3619187   2.924   3.939   4.125 -0.2057 -0.0346  0.4505
  170SAPE   H6X19188   3.005   4.014   4.130 -0.8674  0.6671  0.8345
  170SAPE   H6Y19189   2.954   3.832   4.133  1.6523  0.5900  2.8384
  170SAPE   C3719190   2.826   3.959   4.246 -0.0540 -0.2683 -0.2716
  170SAPE   H7X19191   2.745   3.884   4.254 -0.4339  0.3538  3.6613
  170SAPE   H7Y19192   2.794   4.061   4.218  1.6571  0.1936 -0.6735
  170SAPE   C3819193   2.892   3.958   4.385 -0.3560  0.3990  0.3391
  170SAPE   H8X19194   2.972   4.036   4.389  0.9044 -0.7324 -1.2284
  170SAPE   H8Y19195   2.944   3.864   4.411 -2.3087 -1.1792 -1.1662
  170SAPE   C3919196   2.785   3.975   4.497 -0.3263 -0.3576  0.1396
  170SAPE   H9X19197   2.716   3.889   4.511 -0.6143 -0.1165  0.2103
  170SAPE   H9Y19198   2.722   4.066   4.487  0.6702  0.2643 -0.7519
  170SAPE  C31019199   2.872   3.996   4.624  0.3572  0.4808  1.0241
  170SAPE  H10X19200   2.941   4.083   4.628 -1.0007  1.6808 -0.3437
  170SAPE  H10Y19201   2.942   3.909   4.629  0.0689  0.2989  2.2862
  170SAPE  C31119202   2.791   4.004   4.750 -0.8932 -0.6087  0.2320
  170SAPE  H11X19203   2.747   3.907   4.781 -0.3105 -0.3074  2.1178
  170SAPE  H11Y19204   2.710   4.078   4.732 -1.9181 -1.5560  0.8470
  170SAPE  C31219205   2.866   4.050   4.876 -0.6365  0.8687 -0.2018
  170SAPE  H12X19206   2.913   4.148   4.856  0.5069  0.5293  0.7483
  170SAPE  H12Y19207   2.950   3.981   4.900 -0.0357  2.6687  3.5133
  170SAPE  C31319208   2.768   4.063   4.996 -0.0618  0.0742  0.9332
  170SAPE  H13X19209   2.706   3.970   5.006 -0.4553  0.3776  1.3596
  170SAPE  H13Y19210   2.699   4.149   4.987 -0.3355 -0.1823  0.5584
  170SAPE  C31419211   2.829   4.059   5.133  0.1528  0.0048  0.1109
  170SAPE  H14X19212   2.918   4.125   5.124 -0.6532  1.0819 -0.2194
  170SAPE  H14Y19213   2.856   3.957   5.167  1.7851  0.7184  1.0667
  170SAPE  C31519214   2.733   4.105   5.245 -0.3210  0.3578 -0.4847
  170SAPE  H15X19215   2.645   4.037   5.249 -0.2369  0.2895  0.2874
  170SAPE  H15Y19216   2.697   4.206   5.213  0.0933  0.1689 -1.5931
  170SAPE  C31619217   2.797   4.109   5.385 -0.5029 -0.0144 -0.1158
  170SAPE  H16X19218   2.891   4.167   5.380 -0.7869  0.3387 -2.8380
  170SAPE  H16Y19219   2.814   4.003   5.414 -0.2990  0.5538  2.0786
  170SAPE  C31719220   2.717   4.175   5.498 -0.0388 -0.1950  0.0710
  170SAPE  H17X19221   2.706   4.285   5.495  2.4598  0.1452  0.9955
  170SAPE  H17Y19222   2.784   4.170   5.586  0.6682  1.8145 -0.2935
  170SAPE  C31819223   2.593   4.108   5.540  0.8797 -0.0968 -0.0755
  170SAPE  H18X19224   2.584   3.998   5.529 -1.3808 -0.0369  0.7431
  170SAPE  H18Y19225   2.519   4.139   5.463 -0.6276 -0.9800  0.9557
  170SAPE  H18Z19226   2.565   4.124   5.646  2.9387 -1.6743  0.7823
  171SAPE     N19227   3.544   4.333   2.617 -0.0432 -0.5300  0.2095
  171SAPE   HN119228   3.578   4.240   2.648 -0.5724 -0.1362  2.0859
  171SAPE   HN219229   3.465   4.351   2.682  1.4790 -0.5653  2.1753
  171SAPE   HN319230   3.510   4.333   2.519  2.8912 -0.0256 -0.9258
  171SAPE   C1219231   3.654   4.435   2.635 -0.1448 -0.2553  0.0525
  171SAPE  H12A19232   3.613   4.530   2.596 -2.1439 -0.8669  0.5752
  171SAPE  H12B19233   3.735   4.406   2.564 -0.2376 -0.5808  0.0778
  171SAPE   C1119234   3.696   4.451   2.785 -0.1996  0.5585  0.4997
  171SAPE  H11A19235   3.607   4.459   2.851 -2.3046  0.8446 -2.2144
  171SAPE  H11B19236   3.753   4.547   2.783  0.9552 -0.1158  0.2223
  171SAPE     P19237   3.920   4.289   2.763 -0.3298  0.3762 -0.1077
  171SAPE   O1319238   3.895   4.223   2.632 -0.9192 -0.1176 -0.2004
  171SAPE   O1419239   4.016   4.402   2.756 -0.1888  0.7418 -0.0685
  171SAPE   O1219240   3.778   4.332   2.822 -0.2888 -0.7125 -0.1829
  171SAPE   O1119241   3.960   4.193   2.879 -0.2561 -0.5126 -0.0612
  171SAPE    C119242   3.884   4.076   2.895  0.0934  0.2849 -0.3598
  171SAPE    HA19243   3.831   4.052   2.800  0.3038  0.7958 -0.6100
  171SAPE    HB19244   3.960   3.995   2.896 -2.4184 -2.2581 -0.9428
  171SAPE    C219245   3.775   4.067   3.010 -0.2747  0.5340  0.8508
  171SAPE    HS19246   3.692   4.137   2.989 -1.8064 -1.8778 -1.9327
  171SAPE   O2119247   3.844   4.097   3.135  0.3272  0.3087 -0.1655
  171SAPE   C2119248   3.771   4.137   3.234 -0.2371 -0.3592 -0.3607
  171SAPE   O2219249   3.652   4.158   3.236  0.6601  0.7010 -0.7377
  171SAPE   C2219250   3.863   4.134   3.361  0.2916 -0.4803  0.5884
  171SAPE   H2R19251   3.952   4.082   3.321 -1.0132 -1.2664 -1.4538
  171SAPE   H2S19252   3.890   4.242   3.360 -1.1932  0.0474  3.7791
  171SAPE    C319253   3.715   3.928   3.001 -0.0916 -0.0039 -0.6818
  171SAPE    HX19254   3.795   3.851   2.997 -1.1366 -1.1353 -0.2674
  171SAPE    HY19255   3.659   3.917   2.905 -2.8723  0.8521  0.7446
  171SAPE   O3119256   3.632   3.899   3.109  0.5457  0.1195 -0.3057
  171SAPE   C3119257   3.498   3.949   3.087 -0.6915  0.1881 -0.7361
  171SAPE   O3219258   3.460   4.003   2.987  0.0362 -0.2340 -0.4983
  171SAPE   C3219259   3.413   3.922   3.208 -0.0216 -0.3476 -0.2040
  171SAPE   H2X19260   3.311   3.954   3.178  0.3494 -0.4632 -1.6337
  171SAPE   H2Y19261   3.449   3.988   3.289 -0.3387  0.7684 -0.9506
  171SAPE   C2319262   3.781   4.095   3.491  0.3635  0.0652  0.2652
  171SAPE   H3R19263   3.712   4.181   3.504 -0.6706 -0.7761  0.4152
  171SAPE   H3S19264   3.851   4.081   3.577  0.9334 -0.1381 -0.2237
  171SAPE   C2419265   3.697   3.958   3.491 -0.1257  0.0308  0.5892
  171SAPE   H4R19266   3.615   3.969   3.417 -0.5831 -0.3938  1.0223
  171SAPE   H4S19267   3.644   3.958   3.589  0.9538 -1.5980  1.2267
  171SAPE   C2519268   3.766   3.828   3.464  0.2356  0.2977 -0.0340
  171SAPE   H5R19269   3.828   3.825   3.374 -0.0131 -0.5391 -0.1891
  171SAPE   C2619270   3.778   3.727   3.553  0.3229  0.4804  0.0531
  171SAPE   H6R19271   3.828   3.636   3.516 -0.4428  0.0260  0.1177
  171SAPE   C2719272   3.718   3.709   3.697  0.4027 -0.0634 -0.1358
  171SAPE   H7R19273   3.750   3.618   3.751 -0.1948 -1.1693 -1.5851
  171SAPE   H7S19274   3.609   3.692   3.691  0.4693 -1.3747  1.5757
  171SAPE   C2819275   3.740   3.822   3.793 -0.3982 -0.1455 -0.3157
  171SAPE   H8R19276   3.813   3.895   3.756 -1.0383  0.3860 -0.5386
  171SAPE   C2919277   3.678   3.838   3.924 -0.2097 -0.0844  0.6246
  171SAPE   H9R19278   3.708   3.920   3.991  0.7631  0.9813 -1.0253
  171SAPE  C21019279   3.584   3.736   3.981  0.8618 -0.0926  0.5771
  171SAPE  H10R19280   3.556   3.672   3.894  3.7012  3.7119 -3.5501
  171SAPE  H10S19281   3.496   3.788   4.025  1.3366  1.2133  0.0168
  171SAPE  C21119282   3.659   3.658   4.084 -0.2568  0.3376 -0.6014
  171SAPE  H11R19283   3.693   3.554   4.067 -0.7057 -0.4354  2.6204
  171SAPE  C21219284   3.687   3.698   4.210  0.0202  0.2576 -0.1875
  171SAPE  H12R19285   3.742   3.630   4.276  0.4818  0.7482 -0.0636
  171SAPE  C21319286   3.650   3.829   4.275 -0.0678  0.2257  0.5560
  171SAPE  H13R19287   3.588   3.812   4.366  0.9476  1.7335  1.5764
  171SAPE  H13S19288   3.581   3.888   4.211  0.1373  1.0943  1.1174
  171SAPE  C21419289   3.775   3.914   4.300  0.7922 -0.2601  0.3283
  171SAPE  H14R19290   3.857   3.907   4.227  0.9502  2.1943  0.1766
  171SAPE  C21519291   3.781   4.001   4.407 -0.1268 -0.5123 -0.1946
  171SAPE  H15R19292   3.877   4.054   4.416  0.4058 -1.4720 -0.1488
  171SAPE  C21619293   3.681   4.030   4.512 -0.2099 -0.3274 -0.8791
  171SAPE  H16R19294   3.579   4.037   4.470 -0.6902 -0.0597  0.3140
  171SAPE  H16S19295   3.704   4.134   4.544  1.4734  0.0806 -3.1051
  171SAPE  C21719296   3.686   3.928   4.627  0.4531 -0.4105 -0.1745
  171SAPE  H17R19297   3.663   3.824   4.596  2.3630 -1.8645  2.7742
  171SAPE  H17S19298   3.612   3.952   4.707 -0.3491 -0.3849 -0.9123
  171SAPE  C21819299   3.830   3.925   4.688 -0.2700  0.1098 -0.1407
  171SAPE  H18R19300   3.856   4.025   4.728 -0.1690  0.3936 -0.8942
  171SAPE  H18S19301   3.903   3.893   4.610 -0.4185 -1.2759  0.2506
  171SAPE  C21919302   3.841   3.830   4.811  0.3045  0.4148  0.3554
  171SAPE  H19R19303   3.829   3.723   4.784  1.1417  0.0114  1.5431
  171SAPE  H19S19304   3.757   3.848   4.881 -2.2966 -2.3002 -1.7861
  171SAPE  C22019305   3.977   3.845   4.881 -0.3815 -0.2509 -0.7093
  171SAPE  H20R19306   4.065   3.810   4.823  0.6603  1.6499 -0.3581
  171SAPE  H20S19307   3.974   3.785   4.975 -0.3824  1.1094  0.1791
  171SAPE  H20T19308   3.996   3.950   4.913  1.3893 -0.3794 -1.2289
  171SAPE   C3319309   3.408   3.772   3.257  0.0408 -0.9558 -0.6767
  171SAPE   H3X19310   3.503   3.748   3.311 -0.7509  0.2123  1.3099
  171SAPE   H3Y19311   3.390   3.702   3.172 -0.7614 -0.0199 -1.2934
  171SAPE   C3419312   3.299   3.754   3.364  0.2978  0.6762 -0.1160
  171SAPE   H4X19313   3.206   3.779   3.308  0.3175  0.3243 -0.3109
  171SAPE   H4Y19314   3.316   3.837   3.436  0.1849  1.1046 -0.5739
  171SAPE   C3519315   3.295   3.622   3.437  0.0393  0.0854 -0.3800
  171SAPE   H5X19316   3.396   3.576   3.435 -0.6558 -1.5003 -0.3469
  171SAPE   H5Y19317   3.227   3.548   3.391 -1.2155  1.6924 -1.2414
  171SAPE   C3619318   3.239   3.638   3.581  0.1371  0.0950  0.2321
  171SAPE   H6X19319   3.140   3.683   3.559  0.4185  0.4209 -0.3798
  171SAPE   H6Y19320   3.306   3.706   3.638  2.2929  0.3371 -2.4444
  171SAPE   C3719321   3.209   3.514   3.657 -0.1863 -0.3925 -0.2995
  171SAPE   H7X19322   3.302   3.461   3.687  0.5275  0.6109 -0.7107
  171SAPE   H7Y19323   3.158   3.451   3.581  0.9636  0.6260 -1.9640
  171SAPE   C3819324   3.129   3.540   3.788  0.0199 -0.1678  0.2542
  171SAPE   H8X19325   3.081   3.445   3.820 -1.0385  0.7186  1.3987
  171SAPE   H8Y19326   3.044   3.608   3.766 -0.9461 -1.8064 -1.5002
  171SAPE   C3919327   3.215   3.594   3.896  0.4289  0.4760 -0.0090
  171SAPE   H9X19328   3.250   3.696   3.873 -0.9537  0.5947 -1.8193
  171SAPE   H9Y19329   3.307   3.534   3.910 -0.2945 -0.8959 -0.8938
  171SAPE  C31019330   3.138   3.609   4.028 -0.6882 -0.1147  0.4395
  171SAPE  H10X19331   3.074   3.520   4.045  0.6844 -1.4716 -1.1510
  171SAPE  H10Y19332   3.080   3.704   4.027  0.1429  0.4978 -3.2277
  171SAPE  C31119333   3.228   3.612   4.150  0.4427  0.6048  0.4374
  171SAPE  H11X19334   3.310   3.686   4.134  0.3242  0.6038 -0.2079
  171SAPE  H11Y19335   3.276   3.513   4.163 -2.0137 -0.6774  0.3637
  171SAPE  C31219336   3.145   3.642   4.271 -0.9485 -0.2646 -0.0006
  171SAPE  H12X19337   3.062   3.569   4.267 -0.4573 -0.8148 -0.4537
  171SAPE  H12Y19338   3.092   3.739   4.281 -2.1202 -0.8895 -0.0073
  171SAPE  C31319339   3.228   3.632   4.402 -0.1934  0.2989 -0.2876
  171SAPE  H13X19340   3.321   3.575   4.381 -1.0480 -2.0673  1.7634
  171SAPE  H13Y19341   3.176   3.571   4.479 -0.4478  0.5450 -0.2658
  171SAPE  C31419342   3.267   3.769   4.460  0.3242 -0.0229 -0.0843
  171SAPE  H14X19343   3.171   3.816   4.489  0.3659  0.3013 -0.4695
  171SAPE  H14Y19344   3.320   3.824   4.380 -1.1699 -0.7010 -1.5917
  171SAPE  C31519345   3.353   3.761   4.586 -0.4329 -1.0067 -0.3492
  171SAPE  H15X19346   3.360   3.865   4.626  0.1953 -0.8931 -0.7374
  171SAPE  H15Y19347   3.459   3.735   4.566  0.8420  2.3096  1.3201
  171SAPE  C31619348   3.302   3.671   4.693 -0.0635  0.5356 -0.2529
  171SAPE  H16X19349   3.314   3.564   4.669  2.0776  0.4729  0.8930
  171SAPE  H16Y19350   3.196   3.698   4.712  0.0895 -0.3153  2.0699
  171SAPE  C31719351   3.373   3.692   4.829  0.7952  0.5312 -0.5234
  171SAPE  H17X19352   3.353   3.799   4.849  2.1523  0.6356  0.4382
  171SAPE  H17Y19353   3.484   3.678   4.822  0.8801  1.0533 -0.2470
  171SAPE  C31819354   3.323   3.610   4.958  0.2683 -1.1528  0.2801
  171SAPE  H18X19355   3.385   3.625   5.049  0.5540  3.4737 -0.4683
  171SAPE  H18Y19356   3.305   3.505   4.927  2.7015 -2.0867  1.7062
  171SAPE  H18Z19357   3.225   3.655   4.982  0.7194  0.2226 -0.3544
  172SAPE     N19358   2.398   5.490   2.739  0.5365 -0.0525 -1.0542
  172SAPE   HN119359   2.306   5.537   2.731  0.8510  0.7076 -0.3637
  172SAPE   HN219360   2.460   5.569   2.712 -0.7022  0.6473 -1.9564
  172SAPE   HN319361   2.403   5.431   2.653 -1.8132  4.4208 -4.7174
  172SAPE   C1219362   2.428   5.419   2.873 -0.1322  0.3301  0.0328
  172SAPE  H12A19363   2.525   5.367   2.861 -0.9081 -1.1352 -0.1810
  172SAPE  H12B19364   2.352   5.340   2.892  1.6244 -1.6918 -0.9356
  172SAPE   C1119365   2.427   5.515   2.993  0.4482  0.2202  0.7308
  172SAPE  H11A19366   2.513   5.584   2.982  0.6666  0.0947  1.6214
  172SAPE  H11B19367   2.458   5.461   3.085  1.0671 -1.0008 -0.1612
  172SAPE     P19368   2.188   5.551   3.078  0.4622 -0.2237  0.0748
  172SAPE   O1319369   2.070   5.631   3.040 -0.2097  0.5083  0.2392
  172SAPE   O1419370   2.168   5.404   3.072 -0.0694 -0.1323  0.0260
  172SAPE   O1219371   2.308   5.593   2.996 -0.3254  0.2073  0.0547
  172SAPE   O1119372   2.229   5.601   3.218 -0.8754  0.1297 -0.0909
  172SAPE    C119373   2.297   5.729   3.246 -0.9314  0.0770 -0.4849
  172SAPE    HA19374   2.406   5.725   3.225 -1.1885 -1.9768 -1.7380
  172SAPE    HB19375   2.254   5.809   3.182  0.5205  0.4186 -1.0845
  172SAPE    C219376   2.299   5.771   3.393 -0.3191 -0.3582  0.1769
  172SAPE    HS19377   2.193   5.799   3.415  0.2957  2.9662 -0.4940
  172SAPE   O2119378   2.387   5.883   3.424  0.0152 -0.4127  0.4457
  172SAPE   C2119379   2.341   6.003   3.389  0.4258 -0.2967  0.4982
  172SAPE   O2219380   2.240   6.018   3.321 -0.5758 -0.1477 -0.5864
  172SAPE   C2219381   2.420   6.115   3.451 -0.7870  0.0337  0.3221
  172SAPE   H2R19382   2.502   6.074   3.515 -0.6139 -0.4766 -0.2171
  172SAPE   H2S19383   2.470   6.174   3.371  0.9619  0.0946  1.4074
  172SAPE    C319384   2.350   5.656   3.482 -0.1484  0.5447 -0.3714
  172SAPE    HX19385   2.456   5.637   3.455 -0.7246 -0.6771 -1.9471
  172SAPE    HY19386   2.296   5.564   3.450  0.1117  0.1713  0.2365
  172SAPE   O3119387   2.327   5.675   3.625  0.0661 -0.7932  0.1113
  172SAPE   C3119388   2.380   5.577   3.692  0.7603 -0.4867  0.3882
  172SAPE   O3219389   2.428   5.476   3.639 -0.4099 -0.4126 -0.3080
  172SAPE   C3219390   2.382   5.594   3.838 -0.2427 -0.2210 -0.6524
  172SAPE   H2X19391   2.480   5.639   3.865  2.3500 -3.2834 -3.9741
  172SAPE   H2Y19392   2.379   5.491   3.881 -1.6243  0.2441  0.4447
  172SAPE   C2319393   2.330   6.207   3.538  0.0654 -0.5643  0.5632
  172SAPE   H3R19394   2.247   6.252   3.479 -0.2192  0.2496  1.5602
  172SAPE   H3S19395   2.389   6.283   3.592 -0.4455 -1.3909  2.3504
  172SAPE   C2419396   2.247   6.136   3.657  0.0575  0.6551  0.0569
  172SAPE   H4R19397   2.163   6.086   3.604  0.8608  0.8349 -1.4489
  172SAPE   H4S19398   2.196   6.220   3.710 -1.4071  0.4537 -0.9787
  172SAPE   C2519399   2.332   6.059   3.753 -0.2675 -0.6521 -0.3959
  172SAPE   H5R19400   2.367   5.965   3.708 -2.0527 -2.5882  2.0373
  172SAPE   C2619401   2.360   6.093   3.881  0.6737 -0.4830 -0.2625
  172SAPE   H6R19402   2.432   6.031   3.935  0.2256 -0.6216  0.1949
  172SAPE   C2719403   2.298   6.220   3.949  0.7767 -0.7190  0.0799
  172SAPE   H7R19404   2.189   6.222   3.928  0.5935  0.3254  0.9940
  172SAPE   H7S19405   2.335   6.302   3.883 -1.5469  1.2793  1.0880
  172SAPE   C2819406   2.328   6.234   4.096 -0.9447 -0.8003  0.2695
  172SAPE   H8R19407   2.438   6.233   4.105 -0.9084 -0.4409 -0.0702
  172SAPE   C2919408   2.247   6.206   4.196  0.2583  0.7762 -0.2591
  172SAPE   H9R19409   2.271   6.215   4.303 -0.3146  0.4954 -0.1042
  172SAPE  C21019410   2.097   6.170   4.195  0.1487  0.1501  0.1247
  172SAPE  H10R19411   2.061   6.160   4.090 -1.6035 -0.0708  0.7150
  172SAPE  H10S19412   2.047   6.262   4.234 -0.9324 -0.6345  0.6296
  172SAPE  C21119413   2.068   6.035   4.267 -0.1236 -0.2228  0.1820
  172SAPE  H11R19414   2.080   5.945   4.206 -2.4729 -3.0384  3.4370
  172SAPE  C21219415   2.034   6.016   4.396  0.1805  0.6258  0.0169
  172SAPE  H12R19416   2.017   5.911   4.425  1.4714  0.6053  0.7846
  172SAPE  C21319417   2.010   6.104   4.512  0.2763 -0.4289 -0.6570
  172SAPE  H13R19418   1.956   6.059   4.598 -0.3491 -0.4175 -1.0391
  172SAPE  H13S19419   1.952   6.193   4.479 -0.7798 -1.3375 -1.3640
  172SAPE  C21419420   2.147   6.153   4.554 -0.3050 -0.6097  0.7614
  172SAPE  H14R19421   2.235   6.087   4.542  1.4576  1.8700 -0.8001
  172SAPE  C21519422   2.182   6.269   4.603 -0.4460  0.0447  0.3610
  172SAPE  H15R19423   2.288   6.282   4.627 -0.4043 -1.0593  0.8469
  172SAPE  C21619424   2.090   6.384   4.629 -0.2375 -0.3196  0.1063
  172SAPE  H16R19425   2.095   6.400   4.739  1.2333  0.8326 -0.0926
  172SAPE  H16S19426   1.987   6.355   4.597  0.3400 -1.3179 -0.9365
  172SAPE  C21719427   2.137   6.500   4.538 -0.7403  0.2400 -0.8252
  172SAPE  H17R19428   2.229   6.546   4.580 -1.6358  2.0505 -0.7314
  172SAPE  H17S19429   2.052   6.572   4.538 -0.6312  0.3833 -0.0278
  172SAPE  C21819430   2.149   6.472   4.389 -0.2691 -0.4866  0.0477
  172SAPE  H18R19431   2.063   6.412   4.354  0.4624  0.2836 -3.4618
  172SAPE  H18S19432   2.238   6.410   4.365  0.8037  1.0738 -0.2000
  172SAPE  C21919433   2.160   6.602   4.316  0.2318 -0.1013  0.2742
  172SAPE  H19R19434   2.251   6.658   4.348  2.9140 -2.3050 -2.7813
  172SAPE  H19S19435   2.066   6.661   4.323 -0.2687 -0.9675  0.9850
  172SAPE  C22019436   2.175   6.569   4.164 -0.2417  0.1815 -0.5251
  172SAPE  H20R19437   2.279   6.537   4.141 -0.5106  0.2563 -1.8830
  172SAPE  H20S19438   2.169   6.664   4.106 -1.8166 -0.2236 -1.0585
  172SAPE  H20T19439   2.109   6.487   4.131  0.8471 -1.1566  0.4569
  172SAPE   C3319440   2.262   5.677   3.886  0.1645  0.4769 -0.1366
  172SAPE   H3X19441   2.162   5.633   3.865 -0.9326  1.8900  1.7581
  172SAPE   H3Y19442   2.257   5.779   3.842 -2.0513  1.1711  1.5529
  172SAPE   C3419443   2.293   5.717   4.032  0.9335 -0.0441 -0.3341
  172SAPE   H4X19444   2.221   5.790   4.076 -1.2458 -1.7054 -0.9942
  172SAPE   H4Y19445   2.391   5.769   4.023  0.7183  0.4633  0.1878
  172SAPE   C3519446   2.307   5.592   4.125  0.1891  0.4334  0.2520
  172SAPE   H5X19447   2.362   5.512   4.071 -0.7698 -1.3303  1.8020
  172SAPE   H5Y19448   2.200   5.562   4.134 -0.3304  0.8879 -3.0048
  172SAPE   C3619449   2.371   5.621   4.259 -0.0877 -0.3659 -0.7497
  172SAPE   H6X19450   2.479   5.641   4.241  0.0326  3.1656  2.5479
  172SAPE   H6Y19451   2.375   5.531   4.324  0.1543 -0.1096 -0.3999
  172SAPE   C3719452   2.306   5.742   4.325  0.7871  0.2853  0.0618
  172SAPE   H7X19453   2.197   5.725   4.311  1.3544 -3.3752 -0.9794
  172SAPE   H7Y19454   2.333   5.839   4.279 -2.1796  1.3285  0.3230
  172SAPE   C3819455   2.323   5.761   4.480 -0.1998 -0.0890  0.0352
  172SAPE   H8X19456   2.291   5.864   4.507 -1.9373 -0.2936 -1.0763
  172SAPE   H8Y19457   2.434   5.760   4.491  0.2845  2.0071 -3.3640
  172SAPE   C3919458   2.260   5.656   4.568  0.0277  1.0728  0.4689
  172SAPE   H9X19459   2.313   5.560   4.551 -1.1556  0.5582 -0.3979
  172SAPE   H9Y19460   2.157   5.636   4.532  0.6416  0.3117 -0.9382
  172SAPE  C31019461   2.253   5.683   4.718 -0.1084 -0.5136  0.1997
  172SAPE  H10X19462   2.188   5.600   4.753  2.6622 -1.8303  2.6812
  172SAPE  H10Y19463   2.210   5.786   4.723  1.1228  0.0294 -0.0264
  172SAPE  C31119464   2.387   5.673   4.790  0.8510 -0.5867 -0.3966
  172SAPE  H11X19465   2.465   5.725   4.730  1.3515 -0.3157  0.4652
  172SAPE  H11Y19466   2.415   5.566   4.806 -1.6372 -0.9228  2.6377
  172SAPE  C31219467   2.377   5.727   4.934 -0.3126  0.8287  0.2357
  172SAPE  H12X19468   2.300   5.673   4.992  0.9907 -1.0253  0.3182
  172SAPE  H12Y19469   2.344   5.833   4.944 -1.2335  0.8035 -1.9995
  172SAPE  C31319470   2.510   5.715   5.016 -0.5654 -0.3709 -0.4056
  172SAPE  H13X19471   2.545   5.609   5.023  0.1580 -0.0387  3.4320
  172SAPE  H13Y19472   2.481   5.739   5.121  1.1644  1.1538 -0.2193
  172SAPE  C31419473   2.630   5.805   4.974  0.7328 -0.0594 -0.7223
  172SAPE  H14X19474   2.583   5.895   4.928  0.3869 -0.4530 -1.1554
  172SAPE  H14Y19475   2.696   5.758   4.898 -0.2473 -2.0835 -0.3904
  172SAPE  C31519476   2.729   5.845   5.087 -0.1360 -0.5249  0.4994
  172SAPE  H15X19477   2.687   5.897   5.176  2.0916  0.9408  0.7861
  172SAPE  H15Y19478   2.796   5.924   5.047 -2.3961  0.3078 -1.8924
  172SAPE  C31619479   2.800   5.725   5.148  0.3627 -0.5914 -0.3789
  172SAPE  H16X19480   2.853   5.663   5.073  1.1705 -0.7354  0.3049
  172SAPE  H16Y19481   2.721   5.655   5.184 -0.9756  0.4066 -1.2439
  172SAPE  C31719482   2.898   5.763   5.259  0.3051 -0.4288 -0.2826
  172SAPE  H17X19483   2.851   5.833   5.331  0.4981 -1.7766  1.2089
  172SAPE  H17Y19484   2.977   5.826   5.212 -1.4573  1.5858 -0.7397
  172SAPE  C31819485   2.955   5.645   5.336 -0.0287 -0.2413 -0.2065
  172SAPE  H18X19486   3.016   5.571   5.279 -1.6397 -1.9907  0.2532
  172SAPE  H18Y19487   2.873   5.584   5.379  0.2165 -1.8282 -1.8415
  172SAPE  H18Z19488   3.014   5.681   5.423 -0.4118 -0.3856  0.1127
  173SLPC     N19489   1.288   3.816   7.196  0.4490 -0.2018  0.0243
  173SLPC   C1319490   1.173   3.825   7.296  0.0971  0.3886  0.4737
  173SLPC  H13A19491   1.092   3.756   7.278  0.1461  0.3574  0.3671
  173SLPC  H13B19492   1.221   3.815   7.392 -0.0596  3.8314  1.0274
  173SLPC  H13C19493   1.128   3.921   7.280  1.3662  0.8025 -0.7806
  173SLPC   C1419494   1.336   3.678   7.210 -0.7738 -0.5642  0.2934
  173SLPC  H14A19495   1.408   3.646   7.136 -1.8052 -1.0379 -0.5408
  173SLPC  H14B19496   1.377   3.672   7.309 -0.9929 -0.3561  0.3983
  173SLPC  H14C19497   1.249   3.614   7.212 -0.2582 -1.5402 -2.8270
  173SLPC   C1519498   1.393   3.913   7.243  0.2921 -0.2081 -0.3063
  173SLPC  H15A19499   1.427   3.866   7.335 -1.0414 -1.2969 -0.3292
  173SLPC  H15B19500   1.471   3.922   7.169 -0.6978  2.4550 -1.1146
  173SLPC  H15C19501   1.349   4.011   7.255 -0.6716 -0.5062 -1.2144
  173SLPC   C1219502   1.242   3.841   7.054 -0.2449 -0.7109  0.7558
  173SLPC  H12A19503   1.168   3.766   7.028 -0.4683 -0.5236  0.8447
  173SLPC  H12B19504   1.327   3.819   6.992  0.5867 -1.9757  2.2796
  173SLPC   C1119505   1.181   3.982   7.019 -0.5710 -0.3465 -0.3587
  173SLPC  H11A19506   1.149   3.982   6.913 -0.4115  2.2224 -0.4654
  173SLPC  H11B19507   1.268   4.050   7.035  0.9687 -2.5489  1.2804
  173SLPC     P19508   1.007   4.145   7.157 -0.2188 -0.3257  0.1547
  173SLPC   O1319509   0.881   4.118   7.224  0.0176 -0.3934 -1.1295
  173SLPC   O1419510   1.109   4.227   7.230  0.1833 -0.1195 -0.3017
  173SLPC   O1219511   1.074   4.005   7.105  0.3115  0.7378 -0.1710
  173SLPC   O1119512   0.985   4.219   7.024  0.4227 -0.1674  0.3914
  173SLPC    C119513   0.875   4.168   6.940 -0.2464  0.3337  0.1399
  173SLPC    HA19514   0.862   4.058   6.940  2.6514 -0.1363  2.9453
  173SLPC    HB19515   0.775   4.206   6.968  0.1493  0.6841  1.1240
  173SLPC    C219516   0.902   4.209   6.794 -0.7757  0.2837  0.1906
  173SLPC    HS19517   0.992   4.160   6.751  0.2880  1.1705  1.2926
  173SLPC   O2119518   0.910   4.354   6.786 -0.3543 -1.3052 -0.5271
  173SLPC   C2119519   0.980   4.405   6.678  0.1240  0.3217 -0.8250
  173SLPC   O2219520   1.045   4.334   6.598  0.1402 -0.4886  0.2343
  173SLPC   C2219521   0.954   4.552   6.665 -0.5814 -0.1424  0.4784
  173SLPC   H2R19522   0.865   4.583   6.725 -2.0796 -1.0619 -1.1524
  173SLPC   H2S19523   1.049   4.603   6.691  0.4511 -2.0420  0.5933
  173SLPC    C319524   0.781   4.157   6.713  0.2290  0.4204 -0.2671
  173SLPC    HX19525   0.683   4.186   6.757 -0.4483  0.5421 -1.8104
  173SLPC    HY19526   0.793   4.049   6.733  1.2812  0.7708  1.1598
  173SLPC   O3119527   0.784   4.175   6.570  0.6692 -0.1155 -0.2190
  173SLPC   C3119528   0.720   4.283   6.521 -0.0420 -0.1251  0.5925
  173SLPC   O3219529   0.648   4.354   6.588 -0.5018  0.0345  0.1803
  173SLPC   C3219530   0.751   4.299   6.369  0.2532  0.2765 -0.1036
  173SLPC   H2X19531   0.764   4.199   6.323  0.6325  0.9187 -1.4344
  173SLPC   H2Y19532   0.849   4.352   6.367  1.4520 -1.7058  1.2202
  173SLPC   C2319533   0.922   4.601   6.518  0.5872 -0.7746 -0.3804
  173SLPC   H3R19534   0.886   4.704   6.538 -1.2990 -0.9252 -2.6270
  173SLPC   H3S19535   0.841   4.532   6.487  0.0374  0.2276 -1.2259
  173SLPC   C2419536   1.040   4.593   6.425  0.2824  0.5254 -0.3790
  173SLPC   H4R19537   1.048   4.486   6.397  1.9479  0.9601 -1.7229
  173SLPC   H4S19538   1.130   4.621   6.484 -1.4874  0.9920  2.2940
  173SLPC   C2519539   1.031   4.674   6.294 -0.0982 -0.1703  0.0474
  173SLPC   H5R19540   1.134   4.684   6.251 -0.4866  0.3919 -0.7987
  173SLPC   H5S19541   1.005   4.779   6.319 -0.7482 -0.4840  0.6994
  173SLPC   C2619542   0.943   4.618   6.184  0.5430  0.0738 -0.6489
  173SLPC   H6R19543   0.836   4.613   6.214  0.9597  1.0935  1.1477
  173SLPC   H6S19544   0.977   4.514   6.166  0.7433 -0.2683  1.4736
  173SLPC   C2719545   0.939   4.696   6.053 -0.0526  0.2841  0.5000
  173SLPC   H7R19546   1.038   4.692   6.003 -1.5408 -3.1465 -2.6835
  173SLPC   H7S19547   0.908   4.799   6.079 -2.0423  0.3799 -1.8563
  173SLPC   C2819548   0.828   4.654   5.955  0.0294  0.1232  0.3015
  173SLPC   H8R19549   0.822   4.710   5.859  0.9504  1.0113  0.7551
  173SLPC   H8S19550   0.725   4.662   5.998 -0.5840  2.2626 -1.3724
  173SLPC   C2919551   0.848   4.509   5.915 -0.6645  0.6512  0.2512
  173SLPC   H9R19552   0.840   4.442   6.001 -0.0617  1.1638  0.7077
  173SLPC  C21019553   0.862   4.450   5.788  0.3401 -0.0768 -0.7130
  173SLPC  H10R19554   0.871   4.340   5.783  1.7499  0.0207 -0.6879
  173SLPC  C21119555   0.859   4.521   5.657  0.2482  0.3373 -0.8222
  173SLPC  H11R19556   0.807   4.619   5.659 -1.8295 -0.7073 -0.8977
  173SLPC  H11S19557   0.811   4.457   5.580  0.4694 -0.0317 -0.6560
  173SLPC  C21219558   0.997   4.534   5.608  0.2725  0.3187 -0.4364
  173SLPC  H12R19559   1.052   4.604   5.672  0.4253  0.0291 -0.2489
  173SLPC  C21319560   1.069   4.486   5.504  0.4585 -0.4081 -0.2985
  173SLPC  H13R19561   1.168   4.529   5.487 -0.5220  0.5339 -4.9464
  173SLPC  C21419562   1.012   4.403   5.397  0.0380  0.5416 -0.3679
  173SLPC  H14R19563   0.913   4.364   5.429  0.0208  0.8619 -0.0219
  173SLPC  H14S19564   1.071   4.311   5.375  1.4595  1.4744 -0.5663
  173SLPC  C21519565   0.994   4.474   5.260 -0.3698 -0.7070  0.2161
  173SLPC  H15R19566   1.095   4.509   5.231  0.2781 -1.2521  1.6970
  173SLPC  H15S19567   0.926   4.561   5.273  1.7401  0.8013  1.9138
  173SLPC  C21619568   0.941   4.382   5.153 -0.3879  0.0449 -0.7529
  173SLPC  H16R19569   0.846   4.333   5.182  0.0392 -0.5288 -0.2926
  173SLPC  H16S19570   1.021   4.309   5.130  1.5213  1.4256  1.0993
  173SLPC  C21719571   0.906   4.460   5.024  0.1263  0.0736  0.7648
  173SLPC  H17R19572   0.898   4.566   5.057 -2.4272 -0.0486  0.7746
  173SLPC  H17S19573   0.801   4.432   4.997 -0.4742  1.7534  1.2002
  173SLPC  C21819574   0.996   4.429   4.904 -0.6078  0.7583 -0.4299
  173SLPC  H18R19575   1.097   4.465   4.934  0.3759 -1.8412 -0.3778
  173SLPC  H18S19576   0.984   4.476   4.804  1.2834  0.7238 -0.7177
  173SLPC  H18T19577   0.994   4.319   4.890  0.3464  0.6136  0.4173
  173SLPC   C3319578   0.626   4.366   6.301 -0.1749 -0.6610  0.5209
  173SLPC   H3X19579   0.628   4.477   6.314  1.3342 -0.5012 -0.7679
  173SLPC   H3Y19580   0.531   4.328   6.343 -1.1329  2.6997  1.7525
  173SLPC   C3419581   0.611   4.324   6.159 -0.1380  0.3937  0.1794
  173SLPC   H4X19582   0.587   4.216   6.146  0.7915  0.4593 -2.5430
  173SLPC   H4Y19583   0.709   4.338   6.110 -0.5349  0.5569 -0.5841
  173SLPC   C3519584   0.488   4.401   6.094 -0.1577  0.0739 -0.1417
  173SLPC   H5X19585   0.484   4.510   6.117  3.1660  0.2793 -0.0117
  173SLPC   H5Y19586   0.402   4.349   6.141  2.0162 -1.3711  2.5959
  173SLPC   C3619587   0.486   4.381   5.941 -0.6359 -0.0536  0.2984
  173SLPC   H6X19588   0.503   4.275   5.913 -0.9485 -0.3043  1.0323
  173SLPC   H6Y19589   0.573   4.438   5.902 -1.2229 -0.1074 -1.1282
  173SLPC   C3719590   0.361   4.426   5.873  0.9267 -0.3281 -0.1811
  173SLPC   H7X19591   0.349   4.532   5.906  1.4661 -0.1242 -0.6117
  173SLPC   H7Y19592   0.284   4.367   5.927 -0.1585  0.5123 -0.7597
  173SLPC   C3819593   0.352   4.395   5.716 -0.1785  0.1484 -0.9638
  173SLPC   H8X19594   0.353   4.284   5.718  0.0098  0.1372 -1.5186
  173SLPC   H8Y19595   0.447   4.432   5.672  0.7041 -1.8259 -0.8222
  173SLPC   C3919596   0.217   4.435   5.654 -0.1691 -0.0772  0.2918
  173SLPC   H9X19597   0.200   4.543   5.669  1.4190  0.2703 -0.2318
  173SLPC   H9Y19598   0.133   4.384   5.706  0.5278 -1.3237  0.2485
  173SLPC  C31019599   0.225   4.401   5.510 -0.5212  0.2905 -0.1633
  173SLPC  H10X19600   0.285   4.309   5.497 -0.4984  0.1194  1.1007
  173SLPC  H10Y19601   0.277   4.485   5.459  1.0119  0.9705  2.3638
  173SLPC  C31119602   0.091   4.375   5.443  0.1416  1.3018 -0.3364
  173SLPC  H11X19603   0.048   4.282   5.485 -0.4978  2.6251  2.1217
  173SLPC  H11Y19604   0.109   4.359   5.334  1.5441 -1.5547  0.2125
  173SLPC  C31219605  -0.008   4.493   5.458  0.0759 -0.5838  0.0622
  173SLPC  H12X19606  -0.033   4.504   5.566  0.5347  0.5172  0.0731
  173SLPC  H12Y19607  -0.103   4.474   5.404  0.0245 -1.0869  0.3287
  173SLPC  C31319608   0.043   4.634   5.412  0.1024  0.1051 -0.7123
  173SLPC  H13X19609   0.082   4.618   5.309 -0.5651  0.1031 -0.9713
  173SLPC  H13Y19610   0.118   4.681   5.480 -0.3927  1.5503 -1.1300
  173SLPC  C31419611  -0.067   4.735   5.388 -0.0393  0.2805 -0.3083
  173SLPC  H14X19612  -0.047   4.840   5.420 -1.3110 -0.0073  1.6075
  173SLPC  H14Y19613  -0.157   4.713   5.450  0.3103  0.7178  0.3662
  173SLPC  C31519614  -0.122   4.730   5.246  0.0196 -0.1791 -0.0693
  173SLPC  H15X19615  -0.182   4.640   5.223 -1.7415  1.2456 -1.3574
  173SLPC  H15Y19616  -0.046   4.730   5.165 -2.4625  1.6278 -2.5985
  173SLPC  C31619617  -0.220   4.846   5.214 -0.2591  0.3317 -0.1088
  173SLPC  H16X19618  -0.178   4.939   5.258 -0.2330  1.0279 -1.5651
  173SLPC  H16Y19619  -0.313   4.813   5.266  0.0840 -1.0968 -0.3584
  173SLPC  C31719620  -0.262   4.874   5.069 -0.4514 -0.3436  0.1652
  173SLPC  H17X19621  -0.330   4.789   5.043 -0.2827  0.0458 -1.7044
  173SLPC  H17Y19622  -0.179   4.864   4.997 -1.3189 -2.5117 -0.6503
  173SLPC  C31819623  -0.334   5.005   5.041 -0.2694  0.1594  0.0403
  173SLPC  H18X19624  -0.284   5.095   5.082 -3.4553  2.6668 -1.1882
  173SLPC  H18Y19625  -0.424   5.012   5.105  0.1092 -1.5373  0.8395
  173SLPC  H18Z19626  -0.367   5.021   4.936 -0.8305 -1.8211 -0.1250
  174SLPC     N19627   4.514   5.644   7.216 -0.7937 -0.2386 -0.8239
  174SLPC   C1319628   4.477   5.722   7.343 -0.2960  0.9193 -0.3669
  174SLPC  H13A19629   4.493   5.667   7.434  1.1732 -1.3651 -1.8841
  174SLPC  H13B19630   4.544   5.807   7.346  1.4818 -0.4474  0.9016
  174SLPC  H13C19631   4.375   5.759   7.342 -0.8118 -0.4745 -0.8302
  174SLPC   C1419632   4.428   5.529   7.218 -0.1685  0.0525  0.2418
  174SLPC  H14A19633   4.441   5.466   7.131 -0.3132 -0.2218  0.4168
  174SLPC  H14B19634   4.438   5.468   7.307 -0.6881 -1.0437 -0.4282
  174SLPC  H14C19635   4.325   5.559   7.208 -1.2021 -3.4819 -1.1977
  174SLPC   C1519636   4.664   5.597   7.230  0.0070  0.5618  0.0093
  174SLPC  H15A19637   4.729   5.682   7.244  0.6038  0.4893 -2.0669
  174SLPC  H15B19638   4.666   5.536   7.320 -1.5831  0.4148 -0.0384
  174SLPC  H15C19639   4.694   5.551   7.137  1.7913  2.0899 -0.2376
  174SLPC   C1219640   4.491   5.726   7.100  0.5433  0.5310  0.7761
  174SLPC  H12A19641   4.541   5.822   7.102 -0.9800  1.3510  1.0261
  174SLPC  H12B19642   4.389   5.751   7.076  1.4736  1.4054 -2.9257
  174SLPC   C1119643   4.545   5.667   6.967  0.2292 -0.0903  0.5267
  174SLPC  H11A19644   4.487   5.728   6.894  0.5129 -0.9719 -0.4672
  174SLPC  H11B19645   4.509   5.565   6.941 -1.0504 -0.0336  1.9488
  174SLPC     P19646   4.769   5.817   6.955  0.1017  0.1136 -0.0306
  174SLPC   O1319647   4.703   5.907   7.056 -0.4767  0.3551  0.2696
  174SLPC   O1419648   4.913   5.786   6.983 -0.0741 -0.0665  0.3011
  174SLPC   O1219649   4.688   5.678   6.954  0.1536  0.1963 -0.3949
  174SLPC   O1119650   4.759   5.875   6.808 -0.4599  0.7006  0.1016
  174SLPC    C119651   4.734   5.792   6.694 -0.9279  0.3168  1.1480
  174SLPC    HA19652   4.645   5.728   6.713 -0.8459 -0.0149  0.4367
  174SLPC    HB19653   4.691   5.850   6.610  0.9053  0.3266  0.1754
  174SLPC    C219654   4.857   5.720   6.646  0.5991  0.7184  0.6174
  174SLPC    HS19655   4.901   5.670   6.735  0.6347  1.1439  0.8446
  174SLPC   O2119656   4.948   5.816   6.589  0.0524  0.2522  0.4717
  174SLPC   C2119657   5.077   5.780   6.576  1.2600 -0.1337 -0.1846
  174SLPC   O2219658   5.120   5.672   6.614 -0.7034 -0.6780  0.0694
  174SLPC   C2219659   5.151   5.886   6.488  0.2223 -0.4539  0.4366
  174SLPC   H2R19660   5.101   5.985   6.497 -0.7177 -0.7790 -0.9709
  174SLPC   H2S19661   5.253   5.888   6.532  0.8001  1.2487 -0.8748
  174SLPC    C319662   4.830   5.607   6.545  0.5165 -0.8229  0.2704
  174SLPC    HX19663   4.770   5.527   6.593 -0.5521 -0.5992 -0.6451
  174SLPC    HY19664   4.931   5.565   6.523  0.3265 -0.5269 -1.3222
  174SLPC   O3119665   4.765   5.647   6.424  0.5731  1.0503 -0.3097
  174SLPC   C3119666   4.631   5.640   6.404  0.4938  0.6014 -0.9276
  174SLPC   O3219667   4.552   5.578   6.474 -0.3674 -0.2885  0.3031
  174SLPC   C3219668   4.586   5.711   6.275  0.4620 -0.6941  0.2077
  174SLPC   H2X19669   4.592   5.816   6.311  3.0552 -1.4928  2.4539
  174SLPC   H2Y19670   4.483   5.675   6.253  0.2517  0.3955 -0.7352
  174SLPC   C2319671   5.165   5.837   6.332  0.2146 -0.1681 -0.9384
  174SLPC   H3R19672   5.190   5.729   6.329  1.4152  0.0682  0.0380
  174SLPC   H3S19673   5.230   5.910   6.280 -1.8904  1.5647 -1.2985
  174SLPC   C2419674   5.032   5.883   6.258 -0.7773 -0.4726 -0.4593
  174SLPC   H4R19675   5.011   5.988   6.289  0.3948 -0.4472  0.3358
  174SLPC   H4S19676   4.962   5.806   6.296 -0.1391 -0.8504 -0.0321
  174SLPC   C2519677   5.035   5.886   6.104  0.3007  0.0209  0.3578
  174SLPC   H5R19678   5.102   5.970   6.075  2.2374  0.1174  4.3633
  174SLPC   H5S19679   4.934   5.920   6.073  0.7259  0.7032 -0.2942
  174SLPC   C2619680   5.072   5.755   6.035 -0.0315  0.4172 -0.8488
  174SLPC   H6R19681   4.978   5.696   6.045  0.5580 -0.5640 -1.0095
  174SLPC   H6S19682   5.150   5.698   6.088  0.1875  1.8561  0.4326
  174SLPC   C2719683   5.087   5.771   5.883 -0.6509  0.6275 -0.7216
  174SLPC   H7R19684   4.997   5.819   5.838  0.2333  1.9941 -1.0684
  174SLPC   H7S19685   5.087   5.669   5.837  2.4818 -0.6844  1.8664
  174SLPC   C2819686   5.209   5.849   5.836  0.2562  0.4259  0.2110
  174SLPC   H8R19687   5.186   5.950   5.876 -1.6433 -0.3244  1.1454
  174SLPC   H8S19688   5.218   5.860   5.725  0.0399 -2.4880 -0.1832
  174SLPC   C2919689   5.348   5.824   5.896 -0.5786 -0.6800 -0.6613
  174SLPC   H9R19690   5.355   5.842   6.004 -4.1784 -0.5566 -0.3469
  174SLPC  C21019691   5.454   5.779   5.829 -0.1472  0.6794 -0.4182
  174SLPC  H10R19692   5.549   5.775   5.884 -1.1705  0.1398  1.4320
  174SLPC  C21119693   5.455   5.744   5.683  0.1300 -0.2651  0.0714
  174SLPC  H11R19694   5.357   5.694   5.669  0.1305 -0.6780  1.3826
  174SLPC  H11S19695   5.528   5.660   5.677  0.6757  0.2124 -0.1032
  174SLPC  C21219696   5.500   5.852   5.589 -0.7994  0.1448 -1.4934
  174SLPC  H12R19697   5.549   5.942   5.630 -3.2433  0.8062  0.1780
  174SLPC  C21319698   5.511   5.825   5.459 -0.4939  0.0303  0.0567
  174SLPC  H13R19699   5.568   5.897   5.397 -1.0447  0.2932 -0.1556
  174SLPC  C21419700   5.478   5.697   5.387  0.1622  0.2797 -0.2693
  174SLPC  H14R19701   5.405   5.720   5.307 -2.8745 -1.6123  1.7297
  174SLPC  H14S19702   5.422   5.628   5.452  0.9216 -0.3588 -0.2749
  174SLPC  C21519703   5.600   5.617   5.338  0.6054  0.0502 -0.5100
  174SLPC  H15R19704   5.664   5.693   5.287  2.6161 -1.6922 -0.7162
  174SLPC  H15S19705   5.572   5.543   5.260 -0.8425 -0.1032  0.1196
  174SLPC  C21619706   5.679   5.566   5.466  0.4255 -0.4135 -0.4336
  174SLPC  H16R19707   5.612   5.503   5.529  3.2767  0.5064  3.8568
  174SLPC  H16S19708   5.714   5.652   5.526  2.9439 -0.7466 -1.3074
  174SLPC  C21719709   5.814   5.491   5.434  0.3521 -0.4181 -0.0059
  174SLPC  H17R19710   5.870   5.481   5.529  0.1465  0.9229  0.2751
  174SLPC  H17S19711   5.873   5.553   5.364 -0.4824  0.5823  0.1480
  174SLPC  C21819712   5.783   5.347   5.391 -0.2212  0.0253 -0.3252
  174SLPC  H18R19713   5.869   5.282   5.416  1.5732  2.5826  0.6663
  174SLPC  H18S19714   5.756   5.347   5.283 -0.3479  1.3044 -0.3161
  174SLPC  H18T19715   5.696   5.316   5.452 -0.1088  1.0166  0.3699
  174SLPC   C3319716   4.679   5.681   6.152  0.2443  0.3039  0.2249
  174SLPC   H3X19717   4.782   5.697   6.192 -0.2971 -0.3073  1.9524
  174SLPC   H3Y19718   4.663   5.758   6.073  1.4591  1.4489  1.0506
  174SLPC   C3419719   4.648   5.541   6.095 -0.3826 -0.5111 -0.3765
  174SLPC   H4X19720   4.546   5.520   6.056 -0.6826 -1.8104  1.0002
  174SLPC   H4Y19721   4.661   5.464   6.174  1.0183 -1.4149 -1.4473
  174SLPC   C3519722   4.751   5.497   5.989  0.0475  0.1660 -0.4684
  174SLPC   H5X19723   4.719   5.400   5.945 -1.0861  1.6647 -3.2342
  174SLPC   H5Y19724   4.852   5.483   6.032  0.2739  3.8451  0.5728
  174SLPC   C3619725   4.762   5.588   5.862 -0.6156  0.3389 -0.8642
  174SLPC   H6X19726   4.808   5.687   5.881 -0.6534 -0.1996  2.6800
  174SLPC   H6Y19727   4.658   5.603   5.826 -1.3450 -0.9295  0.6146
  174SLPC   C3719728   4.826   5.515   5.744 -0.4840  0.0488 -0.2339
  174SLPC   H7X19729   4.777   5.417   5.723 -1.4945  0.2903  0.8790
  174SLPC   H7Y19730   4.924   5.486   5.786 -2.0178 -1.6531  2.5193
  174SLPC   C3819731   4.829   5.606   5.618 -0.2698 -0.2620 -0.2353
  174SLPC   H8X19732   4.892   5.695   5.641 -1.4324  1.0448 -1.8587
  174SLPC   H8Y19733   4.724   5.636   5.596 -0.1304  1.0442  0.7099
  174SLPC   C3919734   4.876   5.525   5.501 -0.1738  0.3196 -0.0131
  174SLPC   H9X19735   4.831   5.424   5.515 -0.8542  0.3967 -1.5038
  174SLPC   H9Y19736   4.986   5.508   5.505 -0.0809  0.8098 -0.4079
  174SLPC  C31019737   4.818   5.576   5.361 -0.9555 -0.2886  0.0971
  174SLPC  H10X19738   4.707   5.572   5.362 -0.9798 -0.4979 -1.4375
  174SLPC  H10Y19739   4.863   5.503   5.291 -0.1484 -0.1516  0.4606
  174SLPC  C31119740   4.864   5.722   5.333 -0.4506 -0.7106  0.1755
  174SLPC  H11X19741   4.797   5.781   5.400 -0.4585  0.6077 -0.9445
  174SLPC  H11Y19742   4.827   5.736   5.229  1.9120  0.8172 -0.5497
  174SLPC  C31219743   5.011   5.761   5.334  0.0796 -0.3775 -1.1324
  174SLPC  H12X19744   5.079   5.676   5.311 -1.4660 -1.7297 -0.8474
  174SLPC  H12Y19745   5.037   5.782   5.440  0.5868  0.2454 -1.3726
  174SLPC  C31319746   5.041   5.888   5.249 -0.4580  0.0290  0.5953
  174SLPC  H13X19747   4.976   5.972   5.284 -0.6603  0.3046 -0.4088
  174SLPC  H13Y19748   5.025   5.864   5.142 -1.5717 -1.3660  1.0309
  174SLPC  C31419749   5.186   5.939   5.250 -0.3839  0.4803  0.2838
  174SLPC  H14X19750   5.246   5.864   5.195  0.0422  2.0091 -1.4582
  174SLPC  H14Y19751   5.223   5.946   5.354  0.5627 -1.0517  0.0831
  174SLPC  C31519752   5.203   6.081   5.183 -0.7963  0.6515  0.0660
  174SLPC  H15X19753   5.313   6.095   5.186 -0.4961 -1.3582 -0.1037
  174SLPC  H15Y19754   5.151   6.170   5.224 -0.3993  1.4508 -1.1211
  174SLPC  C31619755   5.178   6.068   5.026  0.6750 -0.1598 -0.1570
  174SLPC  H16X19756   5.069   6.050   5.015  0.9675 -0.6359 -2.9345
  174SLPC  H16Y19757   5.232   5.977   4.991 -0.4655 -0.9848  0.1517
  174SLPC  C31719758   5.218   6.186   4.940 -0.0221 -1.0200 -0.6843
  174SLPC  H17X19759   5.177   6.273   4.995 -1.0939 -1.7085 -0.3525
  174SLPC  H17Y19760   5.161   6.182   4.845  1.5720 -0.1614 -1.7194
  174SLPC  C31819761   5.371   6.194   4.908 -0.3957 -0.0294  0.2365
  174SLPC  H18X19762   5.425   6.241   4.993  0.2239  1.3850 -0.9047
  174SLPC  H18Y19763   5.382   6.267   4.825  0.0678  0.7895  0.9990
  174SLPC  H18Z19764   5.399   6.091   4.880 -1.0356 -0.6702  1.7934
  175SLPC     N19765   6.140   2.718   7.003  0.1337 -0.0583  0.5789
  175SLPC   C1319766   6.132   2.623   7.124  0.0383 -0.0537 -0.5964
  175SLPC  H13A19767   6.208   2.546   7.123  0.6857  0.5245  1.2433
  175SLPC  H13B19768   6.140   2.674   7.218  1.1139 -0.4507 -0.4625
  175SLPC  H13C19769   6.036   2.573   7.125 -0.5099  0.9904  0.1319
  175SLPC   C1419770   6.261   2.815   7.035  0.0106 -1.1400  0.3046
  175SLPC  H14A19771   6.254   2.899   6.967  0.7698 -0.0892  1.4625
  175SLPC  H14B19772   6.261   2.846   7.139  3.4801  0.0881  0.0731
  175SLPC  H14C19773   6.358   2.776   7.011 -0.5588 -1.5657 -1.4600
  175SLPC   C1519774   6.015   2.796   6.989 -0.2654 -0.1924 -0.0013
  175SLPC  H15A19775   5.929   2.732   6.980  0.1419 -0.7068 -0.2518
  175SLPC  H15B19776   6.012   2.857   7.079 -0.2924 -2.1848  1.4199
  175SLPC  H15C19777   6.013   2.861   6.903 -2.8129 -0.6078 -0.3126
  175SLPC   C1219778   6.160   2.640   6.880  0.2172 -0.0920  0.0064
  175SLPC  H12A19779   6.081   2.567   6.868  0.4511 -0.4257  0.4780
  175SLPC  H12B19780   6.244   2.573   6.891  0.6136  0.3963 -0.0454
  175SLPC   C1119781   6.170   2.713   6.738  0.3254 -0.3638  0.3197
  175SLPC  H11A19782   6.075   2.758   6.702 -0.2964 -1.8015  0.0819
  175SLPC  H11B19783   6.185   2.638   6.657  1.3390 -2.0488  1.9972
  175SLPC     P19784   6.420   2.759   6.703 -0.3175  0.1807  0.3807
  175SLPC   O1319785   6.525   2.857   6.735 -0.3059  0.6733  0.4881
  175SLPC   O1419786   6.439   2.619   6.747 -0.3368  0.0877 -0.0331
  175SLPC   O1219787   6.276   2.814   6.731 -0.1017  0.7472  0.1638
  175SLPC   O1119788   6.418   2.764   6.547 -0.3784 -0.2136 -0.5566
  175SLPC    C119789   6.353   2.875   6.483  0.0491  0.3920  0.1323
  175SLPC    HA19790   6.325   2.966   6.540 -1.3247  0.5667 -0.7565
  175SLPC    HB19791   6.417   2.917   6.403 -1.1880  1.2635 -0.4327
  175SLPC    C219792   6.220   2.827   6.413 -0.2661  0.1022 -0.0693
  175SLPC    HS19793   6.163   2.768   6.488  1.2150  1.2359  2.0475
  175SLPC   O2119794   6.253   2.759   6.287 -0.8321 -0.1929 -0.0686
  175SLPC   C2119795   6.276   2.630   6.289  0.0595  0.5365  0.2534
  175SLPC   O2219796   6.283   2.554   6.385 -0.1555 -0.4403 -0.1044
  175SLPC   C2219797   6.309   2.587   6.144  0.5501  0.7148  0.1345
  175SLPC   H2R19798   6.232   2.522   6.097  1.7092 -1.3077  0.8656
  175SLPC   H2S19799   6.307   2.680   6.084 -2.5067  0.9987  0.5194
  175SLPC    C319800   6.117   2.942   6.389 -0.2268 -1.1754  0.0119
  175SLPC    HX19801   6.096   2.987   6.488  0.9469 -0.1234 -0.1809
  175SLPC    HY19802   6.028   2.885   6.358 -0.5969 -0.4450 -0.2913
  175SLPC   O3119803   6.153   3.036   6.279 -0.0083  0.4264 -0.8045
  175SLPC   C3119804   6.180   3.161   6.309  0.1739  0.2286 -0.3073
  175SLPC   O3219805   6.174   3.214   6.419 -0.0111  0.0714  0.1425
  175SLPC   C3219806   6.237   3.220   6.181  0.6441 -0.4985 -0.5677
  175SLPC   H2X19807   6.160   3.232   6.102 -1.2530  1.5561  1.4424
  175SLPC   H2Y19808   6.317   3.149   6.152 -0.3227 -1.4457 -0.9802
  175SLPC   C2319809   6.453   2.526   6.114 -0.2067 -0.8236 -0.0771
  175SLPC   H3R19810   6.446   2.474   6.016 -1.5895 -2.3556  0.7809
  175SLPC   H3S19811   6.480   2.456   6.196  2.4066  0.0815 -0.0626
  175SLPC   C2419812   6.568   2.637   6.109  0.4787  0.2591 -0.1628
  175SLPC   H4R19813   6.659   2.580   6.138  1.4255  2.8836  2.5376
  175SLPC   H4S19814   6.559   2.709   6.193  2.5781  1.0521 -0.5752
  175SLPC   C2519815   6.588   2.701   5.979 -0.6173  0.1585 -0.5920
  175SLPC   H5R19816   6.495   2.744   5.936  0.9896  3.7637 -0.8802
  175SLPC   H5S19817   6.620   2.618   5.912  1.7222 -0.4976  1.2001
  175SLPC   C2619818   6.689   2.817   5.995 -0.3300  0.2750 -0.1704
  175SLPC   H6R19819   6.729   2.827   5.892  0.3585  0.1575  0.0767
  175SLPC   H6S19820   6.763   2.805   6.077 -1.6685  2.5575  1.4648
  175SLPC   C2719821   6.600   2.952   6.024 -0.1946 -0.0564  0.4264
  175SLPC   H7R19822   6.529   2.946   6.110  1.0870 -0.7181  1.4763
  175SLPC   H7S19823   6.548   2.979   5.929  2.0010  1.8654 -0.3194
  175SLPC   C2819824   6.692   3.066   6.057  0.2430 -0.1062 -0.3493
  175SLPC   H8R19825   6.768   3.077   5.977 -0.0444  0.3408 -0.5671
  175SLPC   H8S19826   6.744   3.038   6.151  1.0092  2.0708 -0.0696
  175SLPC   C2919827   6.642   3.209   6.067  0.8255 -0.7908  0.1237
  175SLPC   H9R19828   6.614   3.247   6.166 -0.0629  1.9530 -1.0777
  175SLPC  C21019829   6.645   3.309   5.973 -0.0358 -0.0183 -0.1940
  175SLPC  H10R19830   6.606   3.410   5.992  0.6728  0.3343 -0.5651
  175SLPC  C21119831   6.693   3.302   5.830 -0.7531  0.0532 -0.2034
  175SLPC  H11R19832   6.784   3.240   5.819 -1.8948 -1.6342 -0.3951
  175SLPC  H11S19833   6.737   3.397   5.792  1.4651 -1.6095 -2.0738
  175SLPC  C21219834   6.589   3.249   5.741 -0.4892 -0.4143  0.7978
  175SLPC  H12R19835   6.482   3.254   5.769 -1.2998  2.0144 -2.1836
  175SLPC  C21319836   6.618   3.189   5.620  0.3776  0.3127 -0.7181
  175SLPC  H13R19837   6.527   3.178   5.559 -1.6905 -0.7631  2.3255
  175SLPC  C21419838   6.751   3.184   5.549 -0.9332  0.3528 -1.0951
  175SLPC  H14R19839   6.795   3.082   5.549 -0.9929  0.3074  0.1577
  175SLPC  H14S19840   6.828   3.253   5.591 -0.7674  0.9127 -2.2680
  175SLPC  C21519841   6.749   3.222   5.396  0.0603 -0.2124  0.3107
  175SLPC  H15R19842   6.682   3.150   5.345  0.1048 -1.8477  2.3938
  175SLPC  H15S19843   6.853   3.210   5.359  0.0203 -0.8715  0.4019
  175SLPC  C21619844   6.724   3.369   5.377  0.2697  0.2705  0.3280
  175SLPC  H16R19845   6.771   3.427   5.459 -1.2037  1.0136  0.6780
  175SLPC  H16S19846   6.615   3.386   5.386  0.1738 -0.5819  0.8411
  175SLPC  C21719847   6.791   3.408   5.243  0.0219  0.1177 -0.4559
  175SLPC  H17R19848   6.737   3.359   5.159 -0.3497 -2.2516  1.0550
  175SLPC  H17S19849   6.893   3.365   5.240 -0.4907 -1.0896 -2.7740
  175SLPC  C21819850   6.794   3.556   5.228  0.4298 -0.3061  0.2731
  175SLPC  H18R19851   6.815   3.595   5.330 -0.2378  0.4014  0.1502
  175SLPC  H18S19852   6.694   3.595   5.201 -0.3640 -1.2156  1.7657
  175SLPC  H18T19853   6.867   3.592   5.152 -0.4750 -0.3408 -0.6309
  175SLPC   C3319854   6.290   3.364   6.206 -0.1116 -0.8263 -0.2625
  175SLPC   H3X19855   6.378   3.384   6.141 -0.5681  0.3459 -0.5478
  175SLPC   H3Y19856   6.337   3.357   6.307 -0.7349  0.5296  0.1525
  175SLPC   C3419857   6.185   3.474   6.197 -0.1531 -0.2637  0.0611
  175SLPC   H4X19858   6.230   3.567   6.238  0.2770  0.3596 -1.7355
  175SLPC   H4Y19859   6.093   3.461   6.258  0.0326 -1.0153  0.1934
  175SLPC   C3519860   6.138   3.508   6.048  0.3841  0.4309  0.0546
  175SLPC   H5X19861   6.070   3.428   6.012  1.1423  0.0736 -0.6346
  175SLPC   H5Y19862   6.230   3.498   5.985 -0.3734 -1.0261 -0.8677
  175SLPC   C3619863   6.100   3.656   6.030 -0.3937  1.1955 -0.7191
  175SLPC   H6X19864   6.191   3.719   6.028 -1.7576  3.2434 -1.1979
  175SLPC   H6Y19865   6.033   3.686   6.114 -0.0094  2.9743 -1.0143
  175SLPC   C3719866   6.037   3.691   5.896 -0.4643  0.4475  0.0113
  175SLPC   H7X19867   5.988   3.790   5.909 -0.2570  0.5469  0.0331
  175SLPC   H7Y19868   5.963   3.615   5.862 -0.5337  1.0477 -1.2287
  175SLPC   C3819869   6.134   3.681   5.782 -0.4105  0.4784 -0.0186
  175SLPC   H8X19870   6.180   3.581   5.781 -0.0259  0.6426  0.6730
  175SLPC   H8Y19871   6.222   3.746   5.802  0.8704 -1.5962  1.4650
  175SLPC   C3919872   6.063   3.728   5.654  0.3461  0.5260 -0.3163
  175SLPC   H9X19873   6.004   3.819   5.677  0.6390  0.3870  1.1084
  175SLPC   H9Y19874   5.989   3.652   5.622 -0.4700  1.1051  0.1382
  175SLPC  C31019875   6.141   3.778   5.539 -1.0638 -0.3849 -0.1011
  175SLPC  H10X19876   6.192   3.692   5.492 -0.4028  0.0669 -0.2210
  175SLPC  H10Y19877   6.230   3.833   5.576 -1.5413 -0.3886  1.0864
  175SLPC  C31119878   6.064   3.853   5.440  0.2836 -0.2075  0.9619
  175SLPC  H11X19879   5.992   3.926   5.482 -0.9467 -0.3749 -0.7653
  175SLPC  H11Y19880   6.002   3.779   5.385 -1.8641  1.9184  0.3802
  175SLPC  C31219881   6.154   3.935   5.349  0.1742 -0.0538 -0.3145
  175SLPC  H12X19882   6.229   3.868   5.302  1.5221  0.5376  0.9255
  175SLPC  H12Y19883   6.207   4.014   5.406  0.7341  0.7926 -1.9612
  175SLPC  C31319884   6.077   3.991   5.226 -0.2390  0.0885  0.4408
  175SLPC  H13X19885   5.990   4.049   5.263  0.5263  2.0570 -0.6581
  175SLPC  H13Y19886   6.032   3.905   5.172 -1.5053  0.7516  0.4020
  175SLPC  C31419887   6.160   4.076   5.135 -0.5180  0.0663  0.5279
  175SLPC  H14X19888   6.233   4.005   5.089 -0.7417  0.6148 -0.6996
  175SLPC  H14Y19889   6.222   4.148   5.194 -1.6205 -0.4384  2.3963
  175SLPC  C31519890   6.071   4.142   5.024 -0.4271 -0.2956  0.1460
  175SLPC  H15X19891   6.013   4.222   5.074  2.4028  1.9448  0.0652
  175SLPC  H15Y19892   5.996   4.073   4.981 -2.2541  1.8716 -0.2717
  175SLPC  C31619893   6.159   4.194   4.915 -0.0161 -0.3823  0.2998
  175SLPC  H16X19894   6.208   4.104   4.871  1.7489 -0.1043  1.5616
  175SLPC  H16Y19895   6.236   4.263   4.955 -0.5294  0.8720 -0.8250
  175SLPC  C31719896   6.089   4.279   4.809 -0.3783 -0.1075 -0.2669
  175SLPC  H17X19897   6.048   4.366   4.864 -0.7901  0.5180 -1.5028
  175SLPC  H17Y19898   6.002   4.224   4.766 -0.3153 -0.7330  0.3973
  175SLPC  C31819899   6.191   4.324   4.708  0.0450  0.1738  0.9416
  175SLPC  H18X19900   6.175   4.432   4.686 -2.5777 -0.3324  0.0571
  175SLPC  H18Y19901   6.173   4.264   4.616 -1.7602 -0.1088  1.4395
  175SLPC  H18Z19902   6.295   4.308   4.744  0.3498 -1.5279 -0.5480
  176SLPC     N19903   5.801   0.035   7.404  0.6119 -0.0054 -0.2981
  176SLPC   C1319904   5.837  -0.092   7.478 -0.1036 -0.1251  0.3772
  176SLPC  H13A19905   5.798  -0.176   7.422 -2.3734  0.8994  0.2990
  176SLPC  H13B19906   5.943  -0.110   7.468 -0.5810 -1.9747 -2.6814
  176SLPC  H13C19907   5.803  -0.095   7.580 -1.3168 -0.0458 -0.0125
  176SLPC   C1419908   5.843   0.144   7.494 -0.4662 -0.1226  0.0621
  176SLPC  H14A19909   5.824   0.240   7.449 -2.8605 -0.6970 -0.2686
  176SLPC  H14B19910   5.782   0.138   7.583  0.0988 -0.0638  0.4574
  176SLPC  H14C19911   5.949   0.144   7.514 -0.3762 -1.7616 -0.2521
  176SLPC   C1519912   5.648   0.032   7.394 -0.3825  0.5567  0.0976
  176SLPC  H15A19913   5.604   0.012   7.490  1.2402  0.5925  0.8950
  176SLPC  H15B19914   5.617   0.131   7.362  0.1717  0.9790  0.8291
  176SLPC  H15C19915   5.632  -0.039   7.314  1.0380  0.6791 -0.3392
  176SLPC   C1219916   5.867   0.047   7.266 -0.3549 -0.2409  0.1646
  176SLPC  H12A19917   5.820   0.131   7.218 -0.1069 -0.1305  0.1146
  176SLPC  H12B19918   5.854  -0.046   7.214  0.2289 -0.5444  0.5572
  176SLPC   C1119919   6.024   0.072   7.269 -0.0036 -0.2221  0.3764
  176SLPC  H11A19920   6.045   0.165   7.327 -2.1614  0.4661  0.1423
  176SLPC  H11B19921   6.062   0.071   7.165 -0.4354  0.2469  0.2058
  176SLPC     P19922   6.239  -0.044   7.367 -0.0128  0.0702  0.4090
  176SLPC   O1319923   6.282   0.077   7.429  0.7686 -0.0542 -0.9713
  176SLPC   O1419924   6.266  -0.170   7.438 -0.1003  0.1212 -0.4146
  176SLPC   O1219925   6.086  -0.042   7.336  0.4435  0.3718  0.1890
  176SLPC   O1119926   6.311  -0.051   7.224 -0.2095  0.2346 -0.4293
  176SLPC    C119927   6.276  -0.140   7.118  0.6180 -0.3892  0.5150
  176SLPC    HA19928   6.197  -0.215   7.140 -0.6542  0.2313 -1.6886
  176SLPC    HB19929   6.234  -0.071   7.042 -0.9841  0.2636  1.9139
  176SLPC    C219930   6.389  -0.232   7.064 -0.8314 -0.5733  0.5482
  176SLPC    HS19931   6.453  -0.258   7.151  2.3996  1.6430 -0.9622
  176SLPC   O2119932   6.469  -0.164   6.966  0.5618 -0.3924 -0.0888
  176SLPC   C2119933   6.570  -0.088   7.022  0.7731  0.4278 -0.2627
  176SLPC   O2219934   6.593  -0.078   7.139  0.5802  0.4669  0.6188
  176SLPC   C2219935   6.657  -0.023   6.916 -0.1328 -0.3963 -0.1006
  176SLPC   H2R19936   6.643   0.087   6.916  0.2002 -0.2665 -3.2137
  176SLPC   H2S19937   6.760  -0.049   6.946  0.4272 -0.8747 -2.2355
  176SLPC    C319938   6.325  -0.363   6.995  0.3075 -0.3715  0.3397
  176SLPC    HX19939   6.306  -0.334   6.890  1.1901  0.7743  0.4632
  176SLPC    HY19940   6.228  -0.387   7.044 -1.0431  1.6551 -1.1656
  176SLPC   O3119941   6.431  -0.458   7.003  0.3769  0.4839 -0.1934
  176SLPC   C3119942   6.395  -0.583   6.954  0.4392 -0.1075 -0.5646
  176SLPC   O3219943   6.281  -0.608   6.921  0.4556  0.2373 -0.3313
  176SLPC   C3219944   6.518  -0.669   6.914  0.1431  0.5690  0.2177
  176SLPC   H2X19945   6.522  -0.757   6.982  0.6196  0.5728  0.1977
  176SLPC   H2Y19946   6.614  -0.614   6.922  0.2241  0.2590  1.6043
  176SLPC   C2319947   6.641  -0.079   6.771  0.4325  0.4215 -0.5443
  176SLPC   H3R19948   6.632  -0.190   6.773 -1.1208  0.4412 -2.6249
  176SLPC   H3S19949   6.729  -0.050   6.709  0.1327 -0.6045 -1.4873
  176SLPC   C2419950   6.512  -0.028   6.695  0.0457 -0.1138  0.5949
  176SLPC   H4R19951   6.508   0.083   6.698 -0.6147 -0.0424 -1.6838
  176SLPC   H4S19952   6.420  -0.066   6.745  0.4053 -3.6686 -1.1035
  176SLPC   C2519953   6.489  -0.071   6.552 -0.4224 -0.0706  0.5542
  176SLPC   H5R19954   6.388  -0.041   6.517 -0.5662 -1.1386  0.0241
  176SLPC   H5S19955   6.485  -0.181   6.561  0.1540 -0.0802  0.7447
  176SLPC   C2619956   6.598  -0.019   6.458 -0.8329 -0.4449  0.2113
  176SLPC   H6R19957   6.697  -0.034   6.505 -0.4299 -1.7256 -1.0025
  176SLPC   H6S19958   6.575   0.089   6.441 -0.5484 -0.1385  1.6551
  176SLPC   C2719959   6.611  -0.106   6.338  0.5054  0.0487 -0.3471
  176SLPC   H7R19960   6.526  -0.108   6.267  0.9648 -1.2743 -0.8928
  176SLPC   H7S19961   6.616  -0.212   6.372  0.1889  0.5928  1.5068
  176SLPC   C2819962   6.738  -0.084   6.248 -0.1998 -0.5493 -0.1242
  176SLPC   H8R19963   6.708  -0.143   6.159 -0.7458  1.0535 -1.0453
  176SLPC   H8S19964   6.833  -0.118   6.295  0.8672  0.9582 -1.1006
  176SLPC   C2919965   6.747   0.055   6.187 -0.2268  0.8776  0.6337
  176SLPC   H9R19966   6.742   0.138   6.259 -0.3880  0.8767  0.6219
  176SLPC  C21019967   6.749   0.088   6.054 -0.1091  0.7763  0.4543
  176SLPC  H10R19968   6.766   0.189   6.015  1.9726 -0.4869 -2.2406
  176SLPC  C21119969   6.758  -0.015   5.939  0.0634 -0.6542 -0.1573
  176SLPC  H11R19970   6.663  -0.066   5.914 -0.6169  1.7805 -3.1083
  176SLPC  H11S19971   6.829  -0.094   5.972 -0.8618 -1.3102  0.3249
  176SLPC  C21219972   6.835   0.031   5.812  0.0026  0.5861 -0.8261
  176SLPC  H12R19973   6.925   0.089   5.837 -0.8539  0.8341  2.0259
  176SLPC  C21319974   6.796   0.019   5.682 -0.4616  0.1286  0.1076
  176SLPC  H13R19975   6.861   0.061   5.604  3.8388 -2.4000  1.9702
  176SLPC  C21419976   6.668  -0.038   5.638  0.3920 -0.5811  0.0445
  176SLPC  H14R19977   6.610  -0.082   5.722  1.8129 -0.7461  0.9575
  176SLPC  H14S19978   6.683  -0.129   5.576  3.2177 -2.6106  3.3462
  176SLPC  C21519979   6.573   0.057   5.565  0.5032  0.4349 -0.3942
  176SLPC  H15R19980   6.548   0.146   5.627  0.0247 -0.0456  0.1137
  176SLPC  H15S19981   6.475   0.012   5.539  0.4518 -0.0307  0.5996
  176SLPC  C21619982   6.639   0.121   5.443 -0.2123 -0.6571  0.0595
  176SLPC  H16R19983   6.719   0.059   5.396 -0.6678 -0.6142 -0.8073
  176SLPC  H16S19984   6.696   0.214   5.466 -0.2534 -0.9976  1.6394
  176SLPC  C21719985   6.535   0.126   5.330 -0.2386 -0.1671 -0.0077
  176SLPC  H17R19986   6.579   0.187   5.249 -0.4306  0.7061  0.5279
  176SLPC  H17S19987   6.454   0.193   5.369  0.8898  0.6000  1.0921
  176SLPC  C21819988   6.483  -0.007   5.268  0.4257 -0.3376 -0.5653
  176SLPC  H18R19989   6.467  -0.072   5.356 -0.3974 -0.4145 -0.7590
  176SLPC  H18S19990   6.546  -0.048   5.186 -0.0020 -0.8876 -0.6280
  176SLPC  H18T19991   6.378   0.002   5.232 -0.1751 -2.2131  0.5526
  176SLPC   C3319992   6.510  -0.714   6.763  0.0810  0.6014 -0.6609
  176SLPC   H3X19993   6.404  -0.746   6.750  0.2747 -0.5587  0.4111
  176SLPC   H3Y19994   6.592  -0.788   6.751  1.7227  2.4270 -1.1107
  176SLPC   C3419995   6.529  -0.598   6.668  0.1205  0.8368  0.1865
  176SLPC   H4X19996   6.612  -0.535   6.706  0.6463 -1.1868  2.6702
  176SLPC   H4Y19997   6.442  -0.531   6.647  0.4277  1.2733  0.2828
  176SLPC   C3519998   6.573  -0.647   6.527  0.4746  0.3273  0.2006
  176SLPC   H5X19999   6.677  -0.685   6.532  0.4801  0.4320  1.0020
  176SLPC   H5Y20000   6.565  -0.561   6.456 -0.5851 -0.6528 -0.9058
  176SLPC   C3620001   6.474  -0.762   6.480 -0.5371  0.0359  0.1992
  176SLPC   H6X20002   6.369  -0.724   6.482 -0.8074 -0.5324 -1.4907
  176SLPC   H6Y20003   6.485  -0.856   6.537 -0.9892 -1.7237 -2.4579
  176SLPC   C3720004   6.499  -0.802   6.329 -0.1904 -0.5318 -1.0803
  176SLPC   H7X20005   6.598  -0.853   6.329 -0.8290 -1.9382  1.6249
  176SLPC   H7Y20006   6.490  -0.712   6.264 -4.5933 -0.2169 -0.3198
  176SLPC   C3820007   6.397  -0.912   6.286  0.6734 -0.1956  0.2209
  176SLPC   H8X20008   6.296  -0.887   6.324  0.0534 -1.3161 -0.6051
  176SLPC   H8Y20009   6.415  -1.005   6.344 -1.4123 -1.2887 -0.7853
  176SLPC   C3920010   6.408  -0.946   6.138 -0.8352  0.2131  0.6237
  176SLPC   H9X20011   6.334  -1.025   6.115  1.1624 -1.7597  0.6267
  176SLPC   H9Y20012   6.511  -0.976   6.106 -0.4781  0.5980  1.3808
  176SLPC  C31020013   6.366  -0.828   6.049 -0.1487 -0.6236 -0.1419
  176SLPC  H10X20014   6.446  -0.751   6.062  1.4612 -2.5259  2.2700
  176SLPC  H10Y20015   6.268  -0.786   6.080 -0.1099 -0.8721  0.3202
  176SLPC  C31120016   6.359  -0.858   5.900 -0.0685  0.5379  0.5993
  176SLPC  H11X20017   6.255  -0.865   5.862  0.1198 -0.4516  0.2320
  176SLPC  H11Y20018   6.409  -0.953   5.872 -1.4706  0.5667 -2.3883
  176SLPC  C31220019   6.434  -0.759   5.811  0.0858  0.2440  0.0721
  176SLPC  H12X20020   6.543  -0.765   5.835  0.1130 -0.9899 -0.3262
  176SLPC  H12Y20021   6.413  -0.653   5.839 -0.1577  0.7875 -1.9656
  176SLPC  C31320022   6.395  -0.768   5.661  0.3774 -0.1140  0.3195
  176SLPC  H13X20023   6.292  -0.725   5.655  1.2111  2.3722  1.9190
  176SLPC  H13Y20024   6.387  -0.872   5.625  0.5144 -0.2695  0.7250
  176SLPC  C31420025   6.489  -0.684   5.572 -0.2328 -0.4323  0.1910
  176SLPC  H14X20026   6.584  -0.739   5.553  0.3835  0.9065 -0.8214
  176SLPC  H14Y20027   6.507  -0.584   5.617 -3.7081  0.8836 -0.9895
  176SLPC  C31520028   6.423  -0.653   5.433 -0.4776  0.1956  0.1482
  176SLPC  H15X20029   6.332  -0.593   5.453 -1.0022 -0.4976 -0.1340
  176SLPC  H15Y20030   6.389  -0.749   5.390  0.4920 -1.6338  3.2058
  176SLPC  C31620031   6.513  -0.563   5.337  0.9862  0.3575 -0.2402
  176SLPC  H16X20032   6.622  -0.586   5.335  1.2645  1.6399 -0.8832
  176SLPC  H16Y20033   6.493  -0.456   5.359  0.3729  0.3720 -0.8408
  176SLPC  C31720034   6.462  -0.576   5.190 -0.1236  0.8766 -0.1939
  176SLPC  H17X20035   6.352  -0.569   5.183 -0.2797  0.5891  1.4726
  176SLPC  H17Y20036   6.491  -0.677   5.153 -1.8450 -0.0278  0.8157
  176SLPC  C31820037   6.530  -0.479   5.088 -0.2301  0.2171 -0.4103
  176SLPC  H18X20038   6.503  -0.373   5.108  1.6950  0.6734 -0.0580
  176SLPC  H18Y20039   6.507  -0.507   4.983  0.3617  1.9206 -1.0251
  176SLPC  H18Z20040   6.640  -0.484   5.101  0.2735  0.3558 -3.7581
  177SLPC     N20041   1.493   1.478   7.642  0.9405  0.2570 -0.1618
  177SLPC   C1320042   1.449   1.610   7.701  0.7327 -1.3392 -0.6024
  177SLPC  H13A20043   1.397   1.597   7.794 -0.1755 -0.4728 -0.9643
  177SLPC  H13B20044   1.536   1.673   7.713 -0.3759  0.4333 -1.3379
  177SLPC  H13C20045   1.388   1.653   7.623 -0.0575  0.3707  0.8931
  177SLPC   C1420046   1.540   1.382   7.751  0.0138  0.3896 -0.1696
  177SLPC  H14A20047   1.474   1.374   7.835  0.9175 -0.9242  0.4450
  177SLPC  H14B20048   1.547   1.282   7.711  2.2092 -0.1983  1.5124
  177SLPC  H14C20049   1.635   1.406   7.797 -0.2533  0.1583  0.5071
  177SLPC   C1520050   1.608   1.496   7.550 -0.3195  0.1493 -0.1431
  177SLPC  H15A20051   1.577   1.555   7.465  0.9964  1.7415  0.4320
  177SLPC  H15B20052   1.696   1.538   7.596 -0.0913  1.5592 -1.7399
  177SLPC  H15C20053   1.648   1.406   7.506 -1.1557  0.5165 -1.7496
  177SLPC   C1220054   1.369   1.413   7.581  0.5578 -0.9183  0.6443
  177SLPC  H12A20055   1.284   1.418   7.647 -0.1214  1.5798 -0.2893
  177SLPC  H12B20056   1.383   1.307   7.573  1.0246 -0.7725 -0.7186
  177SLPC   C1120057   1.314   1.461   7.441  0.2731  0.4368  0.7030
  177SLPC  H11A20058   1.305   1.572   7.434 -2.3235  0.3264  1.2248
  177SLPC  H11B20059   1.214   1.415   7.430  0.1320  0.5568  1.3995
  177SLPC     P20060   1.426   1.277   7.280 -0.3190  0.0479  0.1623
  177SLPC   O1320061   1.554   1.264   7.216 -0.1849 -0.3124 -0.3124
  177SLPC   O1420062   1.389   1.172   7.376 -0.3906  0.4768 -0.3121
  177SLPC   O1220063   1.403   1.427   7.338  0.1363  0.2831  0.6312
  177SLPC   O1120064   1.321   1.270   7.171  0.0360 -0.0271 -0.1077
  177SLPC    C120065   1.295   1.392   7.098  0.1857  0.8912 -0.2787
  177SLPC    HA20066   1.201   1.431   7.142  1.2154  1.3592  1.6292
  177SLPC    HB20067   1.370   1.474   7.100  0.7977  0.3524 -0.6533
  177SLPC    C220068   1.276   1.367   6.941 -0.2938  0.0196 -0.1887
  177SLPC    HS20069   1.191   1.296   6.934 -1.1055  1.0830 -1.7002
  177SLPC   O2120070   1.396   1.317   6.877 -0.1455  0.1887  0.4539
  177SLPC   C2120071   1.401   1.183   6.857  0.6078  0.2493 -0.3920
  177SLPC   O2220072   1.310   1.109   6.895  0.7290 -0.1495 -0.5383
  177SLPC   C2220073   1.536   1.134   6.788  0.1491  0.2820  0.9586
  177SLPC   H2R20074   1.579   1.226   6.744 -2.1239  1.4602  1.0199
  177SLPC   H2S20075   1.601   1.101   6.871 -2.2707 -1.2725  2.3681
  177SLPC    C320076   1.229   1.489   6.861 -0.2432 -0.6424 -0.1077
  177SLPC    HX20077   1.319   1.554   6.855  0.2052 -1.0393  1.7630
  177SLPC    HY20078   1.144   1.543   6.908 -0.8662 -0.6558 -1.1882
  177SLPC   O3120079   1.201   1.446   6.725  0.1046 -0.5585  0.1492
  177SLPC   C3120080   1.080   1.414   6.701 -0.6526  0.0854  0.6388
  177SLPC   O3220081   0.989   1.407   6.779  0.2046 -0.3128  0.4818
  177SLPC   C3220082   1.076   1.373   6.553  0.5990 -0.7575  0.8282
  177SLPC   H2X20083   1.171   1.324   6.524 -0.9029 -2.9030 -0.7845
  177SLPC   H2Y20084   1.069   1.469   6.498 -1.1599 -2.1486 -1.5991
  177SLPC   C2320085   1.501   1.027   6.683 -0.2860  0.4478 -0.2146
  177SLPC   H3R20086   1.443   0.944   6.727  0.2016  0.2419  0.0393
  177SLPC   H3S20087   1.603   0.999   6.651 -0.4740  0.7400 -1.1052
  177SLPC   C2420088   1.433   1.081   6.558  0.7067 -0.2228 -0.5871
  177SLPC   H4R20089   1.470   1.184   6.542 -0.5616  0.2463 -0.5409
  177SLPC   H4S20090   1.322   1.084   6.561  0.6499 -1.7415 -0.1218
  177SLPC   C2520091   1.455   0.990   6.443  0.1556 -0.2624 -0.5374
  177SLPC   H5R20092   1.425   0.888   6.474 -0.3585 -0.6644 -2.2491
  177SLPC   H5S20093   1.563   0.977   6.419  0.7046  0.6387  1.2564
  177SLPC   C2620094   1.373   1.032   6.323  0.2624  0.0711 -0.4740
  177SLPC   H6R20095   1.401   1.137   6.300  0.9231 -0.2573 -1.2294
  177SLPC   H6S20096   1.264   1.021   6.338 -0.1749  2.1180 -1.6432
  177SLPC   C2720097   1.398   0.944   6.201  0.0441  0.6640 -0.4063
  177SLPC   H7R20098   1.364   0.841   6.226  1.0470  0.6725  1.1675
  177SLPC   H7S20099   1.508   0.933   6.189  0.2400 -1.2029  2.1689
  177SLPC   C2820100   1.331   0.996   6.075  0.1676  0.1881  0.1107
  177SLPC   H8R20101   1.352   1.103   6.059 -1.3845  0.1542 -3.0382
  177SLPC   H8S20102   1.220   0.990   6.072  0.0986  1.6375 -1.4315
  177SLPC   C2920103   1.370   0.905   5.967  0.3655  0.0385  0.2086
  177SLPC   H9R20104   1.425   0.815   5.997  2.2899  1.1531  0.1768
  177SLPC  C21020105   1.352   0.904   5.839 -0.0597  0.5149  0.3760
  177SLPC  H10R20106   1.390   0.821   5.777 -0.8698 -0.0858  0.6680
  177SLPC  C21120107   1.279   1.003   5.757 -0.2166  0.1769  0.8185
  177SLPC  H11R20108   1.322   1.016   5.655 -2.9065  2.1431 -0.1965
  177SLPC  H11S20109   1.284   1.105   5.801 -0.4415  1.3759 -1.7311
  177SLPC  C21220110   1.137   0.948   5.745 -0.2173 -0.3777  0.5229
  177SLPC  H12R20111   1.093   0.925   5.843  2.7779  1.5571  2.4650
  177SLPC  C21320112   1.070   0.918   5.627 -0.3716  0.0070 -0.1681
  177SLPC  H13R20113   0.964   0.891   5.633 -0.8343  1.9688  1.8945
  177SLPC  C21420114   1.122   0.925   5.486 -0.1029 -0.1451 -0.3352
  177SLPC  H14R20115   1.173   0.831   5.457  2.1919  1.7174 -2.7148
  177SLPC  H14S20116   1.201   1.001   5.471 -1.1566  0.9282 -0.6017
  177SLPC  C21520117   1.004   0.958   5.397 -0.3327 -0.3618  0.3183
  177SLPC  H15R20118   0.942   1.041   5.437 -1.1457 -0.9926  0.4033
  177SLPC  H15S20119   0.940   0.868   5.385 -0.9107  0.2539 -1.5489
  177SLPC  C21620120   1.056   0.991   5.250 -0.2592  0.0897  0.7955
  177SLPC  H16R20121   1.123   1.080   5.255  0.6837 -0.6154  0.9110
  177SLPC  H16S20122   0.980   1.033   5.181  1.6951  1.7592 -0.4527
  177SLPC  C21720123   1.126   0.875   5.170 -0.3199  0.0161  0.2977
  177SLPC  H17R20124   1.063   0.785   5.150  0.1046 -0.3911  0.7600
  177SLPC  H17S20125   1.201   0.841   5.244 -1.7248 -1.2198  1.2222
  177SLPC  C21820126   1.178   0.921   5.036  0.8550  0.4884  0.4698
  177SLPC  H18R20127   1.238   0.850   4.975  1.7014  0.2195  1.5749
  177SLPC  H18S20128   1.246   1.009   5.037 -0.2555  1.3836  2.5899
  177SLPC  H18T20129   1.086   0.949   4.980 -0.0793  0.9915  2.1841
  177SLPC   C3320130   0.963   1.271   6.518  0.1337  0.3568 -0.5867
  177SLPC   H3X20131   0.865   1.323   6.523 -0.5905 -1.0168  0.0641
  177SLPC   H3Y20132   0.967   1.195   6.598  2.2156 -0.5807 -1.5145
  177SLPC   C3420133   0.986   1.202   6.379 -0.3318  0.1134 -0.1912
  177SLPC   H4X20134   0.982   1.091   6.391 -0.7051  0.3812  2.9661
  177SLPC   H4Y20135   1.091   1.229   6.355 -0.2247  1.2765  1.4275
  177SLPC   C3520136   0.905   1.256   6.265 -0.1468 -0.2470 -0.1787
  177SLPC   H5X20137   0.856   1.353   6.291  0.1243 -0.5308  1.4261
  177SLPC   H5Y20138   0.827   1.180   6.243  1.4777 -1.8305 -0.6804
  177SLPC   C3620139   0.990   1.284   6.139  0.3731  0.3791  0.4821
  177SLPC   H6X20140   1.060   1.199   6.123 -0.9733 -0.9540  1.2932
  177SLPC   H6Y20141   1.058   1.368   6.161  1.6428 -0.8815  1.6167
  177SLPC   C3720142   0.917   1.296   6.005 -0.3891 -0.5341 -0.0214
  177SLPC   H7X20143   0.992   1.331   5.931 -2.1169  2.4856 -0.4957
  177SLPC   H7Y20144   0.839   1.372   6.026  0.8914  0.4932  1.2109
  177SLPC   C3820145   0.863   1.162   5.947 -0.0368 -1.0874  0.1884
  177SLPC   H8X20146   0.779   1.131   6.013 -2.6302  0.2735 -2.2271
  177SLPC   H8Y20147   0.938   1.081   5.938  0.7084 -0.2544 -1.4091
  177SLPC   C3920148   0.804   1.181   5.812 -0.0683 -0.7241  0.3419
  177SLPC   H9X20149   0.870   1.211   5.729 -0.7342 -2.1834 -0.7618
  177SLPC   H9Y20150   0.731   1.264   5.823  2.0208  1.1037  1.0480
  177SLPC  C31020151   0.742   1.048   5.784  0.0443  0.0789  0.4345
  177SLPC  H10X20152   0.681   1.020   5.872  1.3967 -1.9904  0.7691
  177SLPC  H10Y20153   0.822   0.972   5.770 -0.5305 -0.1593 -2.1028
  177SLPC  C31120154   0.661   1.044   5.653  0.5535 -0.4931 -0.0116
  177SLPC  H11X20155   0.735   1.077   5.577 -0.2822  3.1010  0.5476
  177SLPC  H11Y20156   0.578   1.116   5.643 -0.7193 -2.1455 -2.2378
  177SLPC  C31220157   0.592   0.911   5.629 -0.9338 -0.4152 -0.7485
  177SLPC  H12X20158   0.505   0.908   5.697 -1.1583  1.7180 -0.8835
  177SLPC  H12Y20159   0.651   0.817   5.640 -1.5092 -0.7222 -0.2254
  177SLPC  C31320160   0.533   0.915   5.487  0.5800 -0.8144  0.5858
  177SLPC  H13X20161   0.519   1.023   5.464 -1.6789 -1.2281 -0.2479
  177SLPC  H13Y20162   0.432   0.872   5.470  1.5242 -2.7329 -0.5745
  177SLPC  C31420163   0.620   0.860   5.379 -0.2476  0.7945  0.7862
  177SLPC  H14X20164   0.632   0.750   5.388  0.6819  0.6732 -1.3492
  177SLPC  H14Y20165   0.725   0.893   5.397  0.2156  0.5915 -1.2895
  177SLPC  C31520166   0.582   0.886   5.234  0.4227 -0.0417 -0.3675
  177SLPC  H15X20167   0.655   0.826   5.175 -0.0726  0.0086 -1.0407
  177SLPC  H15Y20168   0.600   0.995   5.225 -0.2612  0.2115  1.0501
  177SLPC  C31620169   0.444   0.830   5.189 -0.2008  0.3298  0.0618
  177SLPC  H16X20170   0.362   0.883   5.240 -0.1109  0.4542  0.0766
  177SLPC  H16Y20171   0.443   0.725   5.225 -0.3825  0.1466 -0.4637
  177SLPC  C31720172   0.429   0.846   5.036  0.4001 -0.2378  0.0048
  177SLPC  H17X20173   0.517   0.796   4.989  1.2305  0.5636  0.6585
  177SLPC  H17Y20174   0.441   0.954   5.014 -1.9228 -0.1427 -1.0959
  177SLPC  C31820175   0.292   0.798   4.982 -0.5963 -0.3783 -0.0206
  177SLPC  H18X20176   0.273   0.822   4.875  3.2838  2.3626 -0.3024
  177SLPC  H18Y20177   0.208   0.832   5.046 -1.4238  0.7293 -1.6035
  177SLPC  H18Z20178   0.287   0.687   4.988 -0.1063 -0.6079 -2.5374
  178SLPC     N20179   3.373   4.931   7.580 -0.1143  0.5935  0.4154
  178SLPC   C1320180   3.377   5.058   7.650  1.1034  0.4525 -0.4551
  178SLPC  H13A20181   3.309   5.132   7.610 -2.7762 -0.7603  3.1143
  178SLPC  H13B20182   3.334   5.044   7.748 -2.1993  0.1016 -1.8072
  178SLPC  H13C20183   3.475   5.100   7.666  0.5734  1.6276 -0.1119
  178SLPC   C1420184   3.236   4.880   7.571 -0.2801 -0.0617  0.0662
  178SLPC  H14A20185   3.222   4.786   7.519  2.4875 -0.9267  0.7186
  178SLPC  H14B20186   3.203   4.867   7.673  0.5663  1.4310  0.5527
  178SLPC  H14C20187   3.185   4.964   7.525 -0.6339  0.2425  0.9931
  178SLPC   C1520188   3.457   4.819   7.639  0.6773 -0.1515  0.1650
  178SLPC  H15A20189   3.457   4.730   7.578 -1.4422 -0.3773  0.4233
  178SLPC  H15B20190   3.560   4.844   7.661  0.5080  1.8048 -0.9908
  178SLPC  H15C20191   3.418   4.787   7.735 -0.8695 -0.1521 -0.4418
  178SLPC   C1220192   3.423   4.958   7.438  0.3507  0.0633  0.0104
  178SLPC  H12A20193   3.412   4.866   7.383  1.1478 -0.1673  0.2371
  178SLPC  H12B20194   3.524   4.994   7.436  0.4349  0.1593  2.4530
  178SLPC   C1120195   3.351   5.055   7.341  0.0215  0.8465  0.2185
  178SLPC  H11A20196   3.249   5.012   7.342  0.3259  0.0921  2.2327
  178SLPC  H11B20197   3.391   5.054   7.237 -1.2861 -1.1857 -0.3234
  178SLPC     P20198   3.420   5.305   7.307  0.0476  0.1287  0.0370
  178SLPC   O1320199   3.378   5.432   7.374  0.9074 -0.8514 -0.1128
  178SLPC   O1420200   3.565   5.277   7.322  0.2601  0.4386 -0.5491
  178SLPC   O1220201   3.338   5.194   7.382  0.3104  0.1117  0.6323
  178SLPC   O1120202   3.376   5.300   7.157 -0.4560 -0.2282 -0.2506
  178SLPC    C120203   3.240   5.272   7.125 -0.0050 -0.0236  0.4046
  178SLPC    HA20204   3.227   5.162   7.117  0.5921 -0.0377 -0.6341
  178SLPC    HB20205   3.171   5.302   7.206 -0.2162  1.1531 -0.1894
  178SLPC    C220206   3.204   5.343   6.986  0.5317 -0.7122  0.2208
  178SLPC    HS20207   3.093   5.335   6.984  0.4474  0.3102 -2.4409
  178SLPC   O2120208   3.280   5.284   6.881  0.0934 -0.0759 -0.0837
  178SLPC   C2120209   3.218   5.196   6.807 -0.7367  0.1623 -0.3139
  178SLPC   O2220210   3.104   5.157   6.818  0.1304 -0.4186 -0.3736
  178SLPC   C2220211   3.310   5.148   6.695  0.4907  0.5270  0.5965
  178SLPC   H2R20212   3.369   5.237   6.665  1.5534  0.1093  1.3959
  178SLPC   H2S20213   3.381   5.067   6.721 -0.2468 -0.7220 -1.0804
  178SLPC    C320214   3.241   5.497   6.997 -0.0635 -0.0744 -0.0114
  178SLPC    HX20215   3.341   5.499   7.046 -0.3575  0.3853  0.5681
  178SLPC    HY20216   3.160   5.539   7.060 -1.6219 -0.0886 -1.8851
  178SLPC   O3120217   3.243   5.566   6.863 -0.1285  0.8568 -0.2031
  178SLPC   C3120218   3.226   5.694   6.875 -0.7653  0.5093  0.7096
  178SLPC   O3220219   3.209   5.756   6.980  0.2847  0.5424 -0.3579
  178SLPC   C3220220   3.208   5.759   6.733  0.1949  0.3242  0.1128
  178SLPC   H2X20221   3.306   5.781   6.686  0.4880 -1.2440 -0.0770
  178SLPC   H2Y20222   3.151   5.851   6.757  0.1589  0.4550 -0.4491
  178SLPC   C2320223   3.237   5.098   6.565 -0.2607  0.4418  0.3627
  178SLPC   H3R20224   3.163   5.178   6.543  0.8930  0.8974 -2.3180
  178SLPC   H3S20225   3.184   5.002   6.582 -0.6897  0.6099 -0.0053
  178SLPC   C2420226   3.339   5.086   6.450 -0.9874  0.4154 -0.3903
  178SLPC   H4R20227   3.415   5.012   6.484 -0.9802  0.4930 -0.2378
  178SLPC   H4S20228   3.393   5.182   6.435 -1.8167  0.8796 -0.4578
  178SLPC   C2520229   3.274   5.050   6.314 -0.1751 -0.2338 -0.6242
  178SLPC   H5R20230   3.197   5.130   6.299 -0.4860 -0.2135  0.9011
  178SLPC   H5S20231   3.215   4.958   6.332 -1.2298  0.7447  1.3132
  178SLPC   C2620232   3.384   5.035   6.204  0.2401 -0.0075  0.2130
  178SLPC   H6R20233   3.451   4.950   6.226  0.8946  0.3514 -0.3585
  178SLPC   H6S20234   3.456   5.120   6.211  2.4704 -1.8056 -0.0028
  178SLPC   C2720235   3.315   5.040   6.070  0.1693 -0.0577  0.2393
  178SLPC   H7R20236   3.242   5.124   6.065 -0.8472 -0.8659  1.1278
  178SLPC   H7S20237   3.259   4.944   6.067  0.0700 -0.0879  2.1342
  178SLPC   C2820238   3.405   5.035   5.950 -0.3732  0.1657 -0.3474
  178SLPC   H8R20239   3.496   4.980   5.985 -1.1966 -1.2956 -0.4360
  178SLPC   H8S20240   3.436   5.140   5.936  2.5153 -0.3719  1.1191
  178SLPC   C2920241   3.352   4.979   5.823  1.0861 -0.1314  0.4689
  178SLPC   H9R20242   3.272   5.036   5.774  0.1231 -0.7242  1.3002
  178SLPC  C21020243   3.401   4.872   5.757 -0.0494 -0.4127 -0.1234
  178SLPC  H10R20244   3.362   4.846   5.658 -2.1376 -2.7614  1.1891
  178SLPC  C21120245   3.517   4.780   5.794 -0.8282 -0.2782  0.7634
  178SLPC  H11R20246   3.480   4.678   5.770  2.4388 -1.9098  1.9624
  178SLPC  H11S20247   3.533   4.789   5.904 -1.3860 -0.7777  0.8888
  178SLPC  C21220248   3.655   4.803   5.727 -0.0529  0.0548 -0.3474
  178SLPC  H12R20249   3.713   4.890   5.764  0.5138 -0.2776 -0.4341
  178SLPC  C21320250   3.706   4.734   5.625 -0.2862 -0.8782  0.1723
  178SLPC  H13R20251   3.807   4.754   5.586  0.6556 -1.9521  1.8979
  178SLPC  C21420252   3.633   4.620   5.546 -0.4162 -0.2416  0.2970
  178SLPC  H14R20253   3.662   4.629   5.439  1.9748 -0.2784  0.8727
  178SLPC  H14S20254   3.524   4.640   5.554 -0.0619  1.7422  0.7167
  178SLPC  C21520255   3.664   4.479   5.594  0.5281  0.7181 -0.0641
  178SLPC  H15R20256   3.612   4.461   5.691  0.1829  1.3875 -0.1270
  178SLPC  H15S20257   3.770   4.464   5.627  0.1902 -0.1483  0.6757
  178SLPC  C21620258   3.643   4.370   5.493  0.3995 -0.2799 -0.5356
  178SLPC  H16R20259   3.560   4.378   5.420 -0.8836 -4.9394  0.1147
  178SLPC  H16S20260   3.610   4.289   5.562 -1.5495  2.9198  2.6123
  178SLPC  C21720261   3.772   4.330   5.424 -0.3933 -0.6644  0.4790
  178SLPC  H17R20262   3.858   4.319   5.493 -0.5279  1.3138  1.0416
  178SLPC  H17S20263   3.803   4.412   5.355  2.4592 -0.2445  2.1125
  178SLPC  C21820264   3.752   4.211   5.324 -0.0870 -0.3077 -0.1256
  178SLPC  H18R20265   3.714   4.122   5.380 -3.0397 -1.4437 -3.5761
  178SLPC  H18S20266   3.840   4.181   5.264 -0.4538 -1.2695 -0.1987
  178SLPC  H18T20267   3.670   4.224   5.251 -2.7182  1.3913  2.8827
  178SLPC   C3320268   3.125   5.681   6.629 -0.1417 -0.1489  0.1356
  178SLPC   H3X20269   3.045   5.629   6.685 -0.0419  1.0904  1.4869
  178SLPC   H3Y20270   3.188   5.603   6.581  2.1290  1.3131  0.5898
  178SLPC   C3420271   3.060   5.768   6.524  0.1197 -0.5039 -0.2504
  178SLPC   H4X20272   3.016   5.705   6.443  0.8291 -0.6036 -0.5701
  178SLPC   H4Y20273   3.141   5.830   6.481  1.0987 -0.3086  1.7556
  178SLPC   C3520274   2.948   5.870   6.562  0.4327  0.1533 -0.0074
  178SLPC   H5X20275   2.976   5.926   6.653 -1.8102  0.0078  0.8529
  178SLPC   H5Y20276   2.856   5.811   6.585 -0.0404  0.1678 -1.6773
  178SLPC   C3620277   2.938   5.960   6.441  0.0120 -0.4536 -0.0975
  178SLPC   H6X20278   2.909   5.906   6.348 -1.1590  0.3314 -0.2077
  178SLPC   H6Y20279   3.037   6.002   6.414  1.2836 -2.6757  0.8715
  178SLPC   C3720280   2.828   6.073   6.449 -0.0401  0.6409 -0.6477
  178SLPC   H7X20281   2.843   6.126   6.545  3.4611  0.1501 -0.7794
  178SLPC   H7Y20282   2.727   6.027   6.459 -0.5851  2.1951  1.8169
  178SLPC   C3820283   2.821   6.176   6.336  0.9793 -0.4713  0.0448
  178SLPC   H8X20284   2.918   6.231   6.335  1.0129 -0.5198 -1.2523
  178SLPC   H8Y20285   2.747   6.256   6.356  0.5465 -0.4472 -1.5514
  178SLPC   C3920286   2.803   6.113   6.201  0.4562  1.1533 -0.0316
  178SLPC   H9X20287   2.715   6.047   6.218  1.2644  0.5867  2.2671
  178SLPC   H9Y20288   2.887   6.042   6.186 -1.9056 -1.6224 -1.2334
  178SLPC  C31020289   2.765   6.199   6.086  0.6415  0.9994  0.1996
  178SLPC  H10X20290   2.759   6.143   5.990 -0.5029 -1.4761  1.6160
  178SLPC  H10Y20291   2.834   6.283   6.062 -1.7009  2.8141 -0.5717
  178SLPC  C31120292   2.627   6.268   6.103  0.5381 -0.0167  0.2925
  178SLPC  H11X20293   2.649   6.334   6.190  3.1701 -0.6594  0.1933
  178SLPC  H11Y20294   2.538   6.205   6.122  1.4989 -1.2928  0.6957
  178SLPC  C31220295   2.590   6.365   5.983 -0.0026  0.2079  0.1831
  178SLPC  H12X20296   2.684   6.421   5.963  0.8690 -1.9283 -2.2959
  178SLPC  H12Y20297   2.517   6.442   6.017 -1.0192  1.6273 -4.4636
  178SLPC  C31320298   2.535   6.297   5.861  0.5601  0.0617 -0.4276
  178SLPC  H13X20299   2.610   6.225   5.822 -0.6026 -0.0078 -2.7492
  178SLPC  H13Y20300   2.529   6.377   5.784  0.7254  2.9516  2.3526
  178SLPC  C31420301   2.393   6.229   5.880 -0.1344 -0.4462 -0.0848
  178SLPC  H14X20302   2.338   6.302   5.943 -0.3908  1.6997 -2.6102
  178SLPC  H14Y20303   2.394   6.138   5.943  0.1436 -0.7543 -0.5324
  178SLPC  C31520304   2.317   6.212   5.748 -0.1532 -0.0211  0.1472
  178SLPC  H15X20305   2.318   6.308   5.692  0.8798 -0.1304 -0.0355
  178SLPC  H15Y20306   2.211   6.185   5.766 -0.1172 -1.3930 -1.4492
  178SLPC  C31620307   2.369   6.108   5.658  0.6721 -0.0900 -0.0155
  178SLPC  H16X20308   2.367   6.005   5.701  1.0290 -0.7118 -1.4472
  178SLPC  H16Y20309   2.474   6.139   5.646  0.3066  1.0370 -0.3907
  178SLPC  C31720310   2.293   6.103   5.524  0.3451  0.0487 -0.2147
  178SLPC  H17X20311   2.278   6.203   5.478 -0.2564  0.4552  0.8234
  178SLPC  H17Y20312   2.187   6.080   5.547 -0.2152  0.6165 -2.0851
  178SLPC  C31820313   2.350   6.014   5.414  0.3562  0.2323 -0.3558
  178SLPC  H18X20314   2.319   5.909   5.430  1.3812 -0.2615 -1.4697
  178SLPC  H18Y20315   2.461   6.020   5.420  0.3823 -0.3583 -0.1738
  178SLPC  H18Z20316   2.321   6.045   5.311 -1.7247 -1.8307 -0.4833
  179SLPC     N20317   3.852   0.886   2.333 -0.1826 -0.1758  0.1677
  179SLPC   C1320318   3.943   0.789   2.393  0.6718 -0.2868 -0.6096
  179SLPC  H13A20319   3.923   0.789   2.499 -0.3169  1.1078 -0.7667
  179SLPC  H13B20320   3.932   0.693   2.344 -0.2904  0.2710 -1.5550
  179SLPC  H13C20321   4.044   0.824   2.381 -0.0131  2.4413  0.7218
  179SLPC   C1420322   3.882   0.882   2.186  0.2581  0.1672 -0.4145
  179SLPC  H14A20323   3.897   0.779   2.158 -1.6478  0.5367 -3.2121
  179SLPC  H14B20324   3.800   0.916   2.125  1.0219  0.8420 -1.0902
  179SLPC  H14C20325   3.977   0.930   2.166  0.0066  2.7778  3.5954
  179SLPC   C1520326   3.872   1.023   2.395 -0.1315 -0.3996 -0.5533
  179SLPC  H15A20327   3.800   1.100   2.370  0.3211  0.0241 -0.5614
  179SLPC  H15B20328   3.851   1.012   2.500 -3.4512  0.4857 -0.9849
  179SLPC  H15C20329   3.973   1.057   2.379  0.5691 -1.8916  0.4814
  179SLPC   C1220330   3.704   0.846   2.341  0.5293 -0.0193 -0.2891
  179SLPC  H12A20331   3.684   0.761   2.276 -1.1503 -0.6996  1.0442
  179SLPC  H12B20332   3.641   0.928   2.311 -3.3586 -1.6627  2.5887
  179SLPC   C1120333   3.651   0.815   2.477  0.2464 -0.2528 -0.5139
  179SLPC  H11A20334   3.701   0.725   2.520 -0.8238 -1.6738 -2.1053
  179SLPC  H11B20335   3.544   0.785   2.470 -0.5271  0.7111  4.0190
  179SLPC     P20336   3.547   1.041   2.545  0.0205 -0.0436 -0.1064
  179SLPC   O1320337   3.589   1.119   2.431  0.0648 -0.4952 -0.3230
  179SLPC   O1420338   3.412   0.986   2.544 -0.6055 -0.8930  0.1859
  179SLPC   O1220339   3.653   0.927   2.569 -0.5327  0.3462  0.2262
  179SLPC   O1120340   3.567   1.128   2.682  0.7581  0.4760  0.1998
  179SLPC    C120341   3.567   1.052   2.809  0.2455  0.0731 -0.0310
  179SLPC    HA20342   3.460   1.052   2.839  0.3413 -1.2765  0.3884
  179SLPC    HB20343   3.598   0.946   2.793 -2.5920 -0.9190  0.4807
  179SLPC    C220344   3.648   1.121   2.922  0.2833 -0.2499 -0.8427
  179SLPC    HS20345   3.748   1.075   2.939  1.6728  3.1620  1.0540
  179SLPC   O2120346   3.580   1.127   3.050 -0.6684  0.0297  0.4262
  179SLPC   C2120347   3.554   1.010   3.100  0.3459 -0.1650 -0.8763
  179SLPC   O2220348   3.587   0.904   3.049  0.0407  0.1982  0.1715
  179SLPC   C2220349   3.496   1.021   3.239 -0.0059 -0.3430 -0.0024
  179SLPC   H2R20350   3.387   1.023   3.217 -0.0197  0.0415  0.0877
  179SLPC   H2S20351   3.524   0.925   3.287 -0.7600 -0.7667 -0.3922
  179SLPC    C320352   3.682   1.270   2.885  0.3499 -0.3066  0.0472
  179SLPC    HX20353   3.588   1.323   2.858 -0.0333  0.6477  2.8750
  179SLPC    HY20354   3.743   1.265   2.792  1.1788  0.4439  0.5235
  179SLPC   O3120355   3.765   1.331   2.985  0.2226  0.6248  0.6920
  179SLPC   C3120356   3.740   1.458   2.998 -0.3524 -0.2711  0.2465
  179SLPC   O3220357   3.675   1.526   2.922  0.1443  0.0470  0.4253
  179SLPC   C3220358   3.816   1.519   3.110  0.4130 -0.0833 -0.6105
  179SLPC   H2X20359   3.792   1.627   3.116 -1.5468 -0.5046  0.2455
  179SLPC   H2Y20360   3.925   1.514   3.092  0.5008 -1.5581  0.1172
  179SLPC   C2320361   3.543   1.143   3.314 -0.2351 -0.2617  0.2602
  179SLPC   H3R20362   3.512   1.236   3.263  1.7495  0.1704 -0.2713
  179SLPC   H3S20363   3.654   1.136   3.318  0.1556  2.7775 -1.9483
  179SLPC   C2420364   3.481   1.154   3.459  0.1909 -0.1120  0.1384
  179SLPC   H4R20365   3.378   1.113   3.457  0.8804 -2.0323  0.7943
  179SLPC   H4S20366   3.480   1.265   3.469  0.8055 -0.0776 -0.1443
  179SLPC   C2520367   3.577   1.082   3.560 -0.2403 -0.6884 -0.2280
  179SLPC   H5R20368   3.683   1.112   3.547 -0.5738  0.3552 -0.6287
  179SLPC   H5S20369   3.584   0.972   3.545  1.5540 -0.4200 -1.6365
  179SLPC   C2620370   3.533   1.119   3.706  0.4865 -0.1990  0.0720
  179SLPC   H6R20371   3.441   1.059   3.716  0.7433 -0.4347  1.1141
  179SLPC   H6S20372   3.525   1.229   3.719 -1.0071 -0.4515  1.6385
  179SLPC   C2720373   3.638   1.075   3.808  0.1234  0.7829 -0.0650
  179SLPC   H7R20374   3.732   1.133   3.804 -0.0909  1.0562 -1.8400
  179SLPC   H7S20375   3.669   0.969   3.805 -1.2203  0.3692 -0.0277
  179SLPC   C2820376   3.585   1.108   3.951  0.3792  0.2294 -0.1499
  179SLPC   H8R20377   3.552   1.214   3.947  1.6220  0.5893 -3.4678
  179SLPC   H8S20378   3.669   1.090   4.021  0.9993 -1.0332 -1.1945
  179SLPC   C2920379   3.473   1.017   3.992  0.5299 -0.7133  0.7461
  179SLPC   H9R20380   3.467   0.920   3.940 -0.6165 -0.4665  0.3800
  179SLPC  C21020381   3.377   1.045   4.080  0.0892 -0.2412 -0.2775
  179SLPC  H10R20382   3.313   0.960   4.109  1.1989 -0.3940  1.9437
  179SLPC  C21120383   3.357   1.160   4.174 -0.2517 -0.0629  0.3468
  179SLPC  H11R20384   3.357   1.253   4.113  2.0826 -1.7220 -2.4467
  179SLPC  H11S20385   3.442   1.166   4.245 -0.3221  0.4139  0.3903
  179SLPC  C21220386   3.220   1.171   4.238  0.0399  0.1539  0.1642
  179SLPC  H12R20387   3.133   1.154   4.173 -0.0587  0.1875  0.2863
  179SLPC  C21320388   3.198   1.190   4.368 -0.4396 -0.0579 -0.8692
  179SLPC  H13R20389   3.093   1.188   4.403 -0.1681  1.3088  0.0941
  179SLPC  C21420390   3.302   1.215   4.478  0.6604  0.4258  0.1046
  179SLPC  H14R20391   3.403   1.245   4.443  0.9597  0.0606  0.6450
  179SLPC  H14S20392   3.321   1.117   4.527 -1.2675  1.1391  2.4573
  179SLPC  C21520393   3.248   1.314   4.584 -0.5280 -0.0976 -0.4569
  179SLPC  H15R20394   3.311   1.306   4.675  0.0695  0.0809 -0.8529
  179SLPC  H15S20395   3.145   1.299   4.623 -0.1914 -0.4643  0.3150
  179SLPC  C21620396   3.255   1.454   4.532  0.0442  0.2502 -0.1712
  179SLPC  H16R20397   3.240   1.527   4.615 -0.8735 -0.1302  0.0037
  179SLPC  H16S20398   3.178   1.464   4.454  1.3617  0.7595 -1.4459
  179SLPC  C21720399   3.389   1.500   4.469 -0.3958  0.4647  0.0786
  179SLPC  H17R20400   3.404   1.451   4.370  0.3504 -0.6904  0.7451
  179SLPC  H17S20401   3.479   1.474   4.529  0.1390 -0.2693 -1.0080
  179SLPC  C21820402   3.381   1.652   4.448  1.1532 -0.6844 -0.3223
  179SLPC  H18R20403   3.477   1.695   4.413  1.3415 -1.9674 -1.5022
  179SLPC  H18S20404   3.343   1.707   4.536 -2.4332 -1.5443 -1.1493
  179SLPC  H18T20405   3.305   1.677   4.370  2.3121  2.7278 -0.5157
  179SLPC   C3320406   3.772   1.455   3.239 -0.5511 -0.8906  0.1465
  179SLPC   H3X20407   3.798   1.347   3.239 -1.2783 -1.0836 -1.0901
  179SLPC   H3Y20408   3.668   1.476   3.272  0.5379  2.0678  2.1564
  179SLPC   C3420409   3.863   1.504   3.352  0.4528 -0.2398 -0.8990
  179SLPC   H4X20410   3.866   1.615   3.352 -2.1795  0.0022  2.3452
  179SLPC   H4Y20411   3.964   1.458   3.346  0.8751  0.5512 -0.0836
  179SLPC   C3520412   3.818   1.455   3.493  0.2195  0.1783 -0.3391
  179SLPC   H5X20413   3.720   1.504   3.514  1.2239  3.4050 -2.4180
  179SLPC   H5Y20414   3.809   1.345   3.489  1.1338 -0.0931  2.5394
  179SLPC   C3620415   3.925   1.482   3.606  0.0541 -0.4996  0.5236
  179SLPC   H6X20416   3.937   1.591   3.618 -1.2025 -0.5386  2.5554
  179SLPC   H6Y20417   4.023   1.439   3.576  0.1365  0.9585 -1.4625
  179SLPC   C3720418   3.871   1.411   3.733 -0.3115 -0.7999 -0.0915
  179SLPC   H7X20419   3.792   1.338   3.705 -0.5233 -0.9710  0.8975
  179SLPC   H7Y20420   3.832   1.495   3.795 -1.1807 -1.1607 -0.1368
  179SLPC   C3820421   3.970   1.321   3.813 -0.5912  0.6704  0.0645
  179SLPC   H8X20422   4.070   1.368   3.812 -0.7205  0.9473 -0.1410
  179SLPC   H8Y20423   3.967   1.223   3.760  2.1080  2.1256 -3.1835
  179SLPC   C3920424   3.926   1.318   3.959 -0.0463  0.3771 -1.3412
  179SLPC   H9X20425   3.823   1.277   3.973 -0.1412  1.5961  2.8273
  179SLPC   H9Y20426   3.920   1.422   3.997 -0.0782  0.1023 -0.5780
  179SLPC  C31020427   4.017   1.235   4.044  0.1501  0.4190  0.0882
  179SLPC  H10X20428   4.122   1.252   4.011  0.4088 -1.3020 -0.0560
  179SLPC  H10Y20429   3.986   1.128   4.037 -0.9756  0.8145 -1.2807
  179SLPC  C31120430   4.005   1.260   4.200  0.1625 -0.1384  0.4933
  179SLPC  H11X20431   4.061   1.349   4.235 -0.2848  0.9941 -1.5387
  179SLPC  H11Y20432   4.054   1.168   4.239  1.1659  0.2500  0.1907
  179SLPC  C31220433   3.864   1.267   4.248  0.5072 -0.8436 -0.1418
  179SLPC  H12X20434   3.792   1.187   4.222  0.1349 -1.3452  2.1548
  179SLPC  H12Y20435   3.824   1.364   4.213  1.0618  0.0826  1.6403
  179SLPC  C31320436   3.843   1.264   4.406  0.3809 -0.6033  0.3227
  179SLPC  H13X20437   3.928   1.320   4.451  0.9997 -0.9038 -0.4465
  179SLPC  H13Y20438   3.861   1.164   4.450 -0.3833  0.3131  2.8976
  179SLPC  C31420439   3.714   1.334   4.457 -0.2928  0.4513 -0.0428
  179SLPC  H14X20440   3.631   1.294   4.395  0.6718 -0.1777 -0.9813
  179SLPC  H14Y20441   3.708   1.444   4.442 -1.9539  0.4265  0.2563
  179SLPC  C31520442   3.690   1.318   4.607  0.3099 -0.2890 -0.5165
  179SLPC  H15X20443   3.674   1.209   4.626 -1.8803  0.0741  0.0031
  179SLPC  H15Y20444   3.595   1.362   4.644 -0.6041 -3.2102  0.9108
  179SLPC  C31620445   3.794   1.364   4.704  0.2495 -0.0421  0.5663
  179SLPC  H16X20446   3.891   1.317   4.675 -0.0893  1.3024 -3.4781
  179SLPC  H16Y20447   3.768   1.323   4.803  0.6325 -1.9236 -0.0740
  179SLPC  C31720448   3.805   1.512   4.717  0.7890  0.0328 -0.1215
  179SLPC  H17X20449   3.711   1.570   4.730  0.5447  0.9270 -4.5210
  179SLPC  H17Y20450   3.843   1.546   4.619  2.0483  0.3998  0.4649
  179SLPC  C31820451   3.911   1.550   4.833  1.0243 -0.1954  1.2474
  179SLPC  H18X20452   3.865   1.519   4.929  0.3532 -2.2030  0.3191
  179SLPC  H18Y20453   3.931   1.660   4.830 -1.2377  0.2485  0.4059
  179SLPC  H18Z20454   3.996   1.486   4.802 -0.1373 -1.7109  1.0792
  180SLPC     N20455   2.731   0.475   2.527 -0.5786 -0.0326 -0.6549
  180SLPC   C1320456   2.628   0.439   2.425  0.0411 -0.0706  0.4948
  180SLPC  H13A20457   2.611   0.334   2.409 -0.1043  0.0085  0.1113
  180SLPC  H13B20458   2.530   0.478   2.448 -1.2883 -3.6648  1.5327
  180SLPC  H13C20459   2.661   0.478   2.329 -1.3994 -1.5600 -0.6571
  180SLPC   C1420460   2.714   0.621   2.550  0.1030 -0.5162 -0.0754
  180SLPC  H14A20461   2.789   0.656   2.618 -0.5132  2.4682 -0.7737
  180SLPC  H14B20462   2.733   0.681   2.462  1.2913  1.3912  1.4179
  180SLPC  H14C20463   2.615   0.647   2.584  0.3995  3.2328 -1.6087
  180SLPC   C1520464   2.868   0.427   2.486 -0.5435 -0.2888 -0.0105
  180SLPC  H15A20465   2.900   0.489   2.403 -1.3803  0.0714 -0.0698
  180SLPC  H15B20466   2.945   0.432   2.562  1.0741 -3.0744 -1.2961
  180SLPC  H15C20467   2.863   0.328   2.443  3.4168 -1.0282  0.7760
  180SLPC   C1220468   2.699   0.391   2.663 -0.9643 -0.1856 -0.0938
  180SLPC  H12A20469   2.597   0.416   2.689 -0.0689  2.6552  1.0521
  180SLPC  H12B20470   2.764   0.417   2.745 -0.9974  1.7692 -0.6517
  180SLPC   C1120471   2.699   0.235   2.659 -0.6200 -0.0708  1.0270
  180SLPC  H11A20472   2.702   0.191   2.761  3.6872  0.0372  1.1316
  180SLPC  H11B20473   2.797   0.199   2.620 -0.8791  1.4649 -1.2121
  180SLPC     P20474   2.450   0.177   2.651 -0.3113  0.0749 -0.2154
  180SLPC   O1320475   2.430   0.278   2.754 -0.7582 -0.1148 -0.0146
  180SLPC   O1420476   2.341   0.162   2.555 -0.3287 -0.3867  0.2348
  180SLPC   O1220477   2.595   0.186   2.579 -0.2994 -0.1315 -0.3085
  180SLPC   O1120478   2.464   0.038   2.717 -1.1841 -0.1731  0.2859
  180SLPC    C120479   2.376  -0.008   2.820 -0.9182  0.2177  0.4608
  180SLPC    HA20480   2.296   0.067   2.839 -1.9499 -1.0718  1.3654
  180SLPC    HB20481   2.333  -0.102   2.781  0.6404 -0.1518 -0.4767
  180SLPC    C220482   2.458  -0.059   2.946  0.1017 -0.6956 -0.2073
  180SLPC    HS20483   2.384  -0.115   3.007  1.0015 -1.3560  0.3112
  180SLPC   O2120484   2.534   0.049   3.003 -0.0575  0.3931  0.0069
  180SLPC   C2120485   2.465   0.146   3.052  0.0432 -0.5696 -0.2754
  180SLPC   O2220486   2.346   0.143   3.072  0.6523  0.3219 -0.7890
  180SLPC   C2220487   2.555   0.259   3.096  0.0995 -0.5655  0.4008
  180SLPC   H2R20488   2.657   0.216   3.102  0.5090  0.0032 -1.7535
  180SLPC   H2S20489   2.547   0.341   3.022 -1.5262  2.2171  3.3870
  180SLPC    C320490   2.559  -0.167   2.908 -0.1333 -0.3192 -0.2232
  180SLPC    HX20491   2.634  -0.122   2.840 -0.5561  1.7370  0.5954
  180SLPC    HY20492   2.497  -0.244   2.857 -2.1441  1.3969 -0.4977
  180SLPC   O3120493   2.634  -0.221   3.025  0.6051  0.1418  0.9192
  180SLPC   C3120494   2.584  -0.316   3.095  0.4369 -0.0170 -0.0107
  180SLPC   O3220495   2.469  -0.362   3.084 -0.0415 -0.5844 -0.1340
  180SLPC   C3220496   2.697  -0.392   3.165 -0.3547  0.5780 -0.2869
  180SLPC   H2X20497   2.794  -0.342   3.143  0.3482 -1.8880 -3.5058
  180SLPC   H2Y20498   2.701  -0.490   3.114 -1.1034  1.1020 -1.3926
  180SLPC   C2320499   2.513   0.303   3.240 -0.3588 -0.1634  0.2698
  180SLPC   H3R20500   2.503   0.211   3.302 -1.6019  0.4270  0.9896
  180SLPC   H3S20501   2.417   0.358   3.245 -0.5757 -0.2171 -2.1069
  180SLPC   C2420502   2.625   0.375   3.316 -0.2028 -0.4153  0.5237
  180SLPC   H4R20503   2.674   0.446   3.246  1.9693 -2.3786 -0.0853
  180SLPC   H4S20504   2.706   0.300   3.331 -1.8502 -2.3138  0.3986
  180SLPC   C2520505   2.582   0.438   3.447 -0.1676 -0.9983  0.2561
  180SLPC   H5R20506   2.537   0.358   3.509 -0.7510 -0.8066  0.0858
  180SLPC   H5S20507   2.504   0.515   3.435 -0.6205 -1.6753 -1.4247
  180SLPC   C2620508   2.706   0.509   3.519  0.4932  0.1598 -0.2676
  180SLPC   H6R20509   2.736   0.600   3.464 -2.8265  0.6692 -1.4623
  180SLPC   H6S20510   2.790   0.436   3.530  1.2043  0.9435 -0.3921
  180SLPC   C2720511   2.660   0.560   3.658 -0.6538 -0.0498  0.5331
  180SLPC   H7R20512   2.751   0.603   3.705 -1.9261  2.1575  1.1403
  180SLPC   H7S20513   2.611   0.478   3.715  1.4224 -2.1068 -0.4889
  180SLPC   C2820514   2.560   0.681   3.659 -0.8204 -0.5761  0.2353
  180SLPC   H8R20515   2.520   0.690   3.762  0.5632  1.1763  0.6652
  180SLPC   H8S20516   2.466   0.658   3.603 -0.5533  0.4869 -0.6933
  180SLPC   C2920517   2.617   0.813   3.614 -0.6212  0.1145  0.3169
  180SLPC   H9R20518   2.607   0.827   3.506 -2.8438 -0.0490  0.4558
  180SLPC  C21020519   2.672   0.912   3.683 -0.6617 -0.3618  0.2841
  180SLPC  H10R20520   2.706   1.002   3.630  0.8386 -1.3758 -0.5636
  180SLPC  C21120521   2.701   0.906   3.833  0.2377 -0.4283 -0.7203
  180SLPC  H11R20522   2.807   0.881   3.853  0.1524  0.4263  1.0474
  180SLPC  H11S20523   2.647   0.823   3.883  0.9977  0.7407  2.2683
  180SLPC  C21220524   2.649   1.024   3.908  0.4117  0.0106 -0.2707
  180SLPC  H12R20525   2.553   1.070   3.880  0.4437  1.1803  1.3992
  180SLPC  C21320526   2.708   1.072   4.021  0.5014  1.1073 -0.2005
  180SLPC  H13R20527   2.667   1.163   4.067  0.0935  0.7693  0.1094
  180SLPC  C21420528   2.830   1.015   4.087  0.0057  0.1023  0.3498
  180SLPC  H14R20529   2.924   1.038   4.032 -1.2549 -0.7302 -2.3602
  180SLPC  H14S20530   2.821   0.904   4.077  1.6246 -0.2280  1.9416
  180SLPC  C21520531   2.852   1.031   4.240 -0.0412 -0.2003 -0.1638
  180SLPC  H15R20532   2.857   1.138   4.268  0.7034 -0.4848  0.8525
  180SLPC  H15S20533   2.953   1.001   4.275 -0.0882  0.6297  0.7047
  180SLPC  C21620534   2.745   0.973   4.329  0.2152 -0.5654  0.1744
  180SLPC  H16R20535   2.710   0.871   4.300  1.0452  0.2092 -4.2257
  180SLPC  H16S20536   2.650   1.028   4.319 -0.3896 -1.7244 -0.7822
  180SLPC  C21720537   2.798   0.971   4.475 -0.1774  0.5721 -0.6963
  180SLPC  H17R20538   2.893   0.915   4.475  0.5104  1.7020  0.2298
  180SLPC  H17S20539   2.725   0.918   4.539  1.4774 -2.6849 -1.3332
  180SLPC  C21820540   2.823   1.104   4.531 -0.3313 -0.2233 -0.3065
  180SLPC  H18R20541   2.906   1.157   4.479 -0.3263 -0.4075 -0.4881
  180SLPC  H18S20542   2.836   1.112   4.641 -2.8123  0.0018  0.0370
  180SLPC  H18T20543   2.746   1.183   4.513 -1.6740 -1.5634 -0.7165
  180SLPC   C3320544   2.687  -0.398   3.323  0.1744  0.6042  0.5856
  180SLPC   H3X20545   2.750  -0.479   3.366 -1.0793 -0.4421  0.5284
  180SLPC   H3Y20546   2.584  -0.426   3.355 -0.3248 -0.2908 -1.6377
  180SLPC   C3420547   2.735  -0.272   3.372  0.1229  0.4691 -0.0145
  180SLPC   H4X20548   2.663  -0.194   3.338  1.4549  3.5314  3.5150
  180SLPC   H4Y20549   2.830  -0.235   3.329 -0.2595  2.5156  0.8017
  180SLPC   C3520550   2.724  -0.250   3.526 -0.3260 -0.4854 -0.0990
  180SLPC   H5X20551   2.615  -0.257   3.546  0.1215  0.2665  3.1180
  180SLPC   H5Y20552   2.744  -0.142   3.542 -0.9347 -0.1688 -1.3072
  180SLPC   C3620553   2.824  -0.330   3.610 -0.3066  1.3076  0.0850
  180SLPC   H6X20554   2.931  -0.298   3.604 -0.2502  0.8918 -2.0761
  180SLPC   H6Y20555   2.829  -0.428   3.558 -2.2467  1.2415 -0.0176
  180SLPC   C3720556   2.778  -0.343   3.753 -0.5778 -0.2877 -0.5248
  180SLPC   H7X20557   2.668  -0.358   3.750 -0.6766  0.2859 -0.0308
  180SLPC   H7Y20558   2.800  -0.249   3.808  0.6666 -0.1864 -1.1671
  180SLPC   C3820559   2.857  -0.454   3.828 -0.6019  0.0303 -0.5568
  180SLPC   H8X20560   2.968  -0.445   3.820 -0.2396 -3.2853 -0.6927
  180SLPC   H8Y20561   2.838  -0.556   3.787 -1.2613 -1.1386  2.3669
  180SLPC   C3920562   2.818  -0.461   3.979 -0.3904  0.2291  0.0307
  180SLPC   H9X20563   2.883  -0.540   4.021  0.1291  0.0123 -1.1463
  180SLPC   H9Y20564   2.711  -0.491   3.988 -0.0683 -1.0707 -0.2695
  180SLPC  C31020565   2.838  -0.329   4.056 -0.0979  0.3397 -0.3437
  180SLPC  H10X20566   2.786  -0.243   4.009 -0.7207 -1.1186 -2.4444
  180SLPC  H10Y20567   2.948  -0.314   4.053  0.2931 -1.5586  1.6988
  180SLPC  C31120568   2.775  -0.334   4.199 -0.0811  0.7517  0.0095
  180SLPC  H11X20569   2.834  -0.256   4.251  1.0330  0.3325 -0.5816
  180SLPC  H11Y20570   2.791  -0.434   4.244  0.4389 -0.0083 -1.7923
  180SLPC  C31220571   2.627  -0.302   4.208  0.3723  0.3780 -0.0810
  180SLPC  H12X20572   2.580  -0.351   4.119 -1.0222  0.0461  0.8146
  180SLPC  H12Y20573   2.615  -0.193   4.192  1.8352  0.6394  0.4629
  180SLPC  C31320574   2.566  -0.336   4.343 -0.2844  0.0446  0.5286
  180SLPC  H13X20575   2.588  -0.438   4.381 -1.0352  0.2537  1.5875
  180SLPC  H13Y20576   2.455  -0.330   4.343 -0.5632 -3.3232 -0.3793
  180SLPC  C31420577   2.609  -0.243   4.460  0.4319  0.1438  0.3580
  180SLPC  H14X20578   2.614  -0.140   4.419 -1.2148  0.4949  0.9717
  180SLPC  H14Y20579   2.709  -0.274   4.496 -0.1385 -0.2150  1.7101
  180SLPC  C31520580   2.510  -0.239   4.580  0.0914  0.2916  0.1658
  180SLPC  H15X20581   2.498  -0.346   4.606  2.7702 -0.6767 -2.0915
  180SLPC  H15Y20582   2.417  -0.203   4.530  0.6424  1.4108 -0.0705
  180SLPC  C31620583   2.547  -0.155   4.711  0.0867  0.9618  0.2454
  180SLPC  H16X20584   2.563  -0.048   4.690 -1.2144  0.5162 -3.9537
  180SLPC  H16Y20585   2.635  -0.203   4.758 -0.8600  0.7346  1.8599
  180SLPC  C31720586   2.428  -0.166   4.813 -0.2373 -0.5750 -0.3774
  180SLPC  H17X20587   2.434  -0.269   4.853 -0.0350  0.0972  1.4252
  180SLPC  H17Y20588   2.330  -0.148   4.764 -1.3753 -2.3110  1.1789
  180SLPC  C31820589   2.427  -0.060   4.925 -0.2701 -0.1230  0.4859
  180SLPC  H18X20590   2.358  -0.089   5.008  2.2199 -1.2183  2.2900
  180SLPC  H18Y20591   2.387   0.031   4.876 -0.7242 -1.2288 -1.2981
  180SLPC  H18Z20592   2.531  -0.053   4.962  0.4758 -1.7391 -1.1296
  181SLPC     N20593   2.062   6.403   2.254 -0.8249 -0.1740 -1.0613
  181SLPC   C1320594   2.016   6.255   2.232 -0.3565  0.2194 -0.1528
  181SLPC  H13A20595   2.033   6.208   2.328 -0.8515 -1.0967 -0.6848
  181SLPC  H13B20596   1.911   6.235   2.217 -0.2421 -1.4471  1.0309
  181SLPC  H13C20597   2.077   6.200   2.163  0.2820  1.8643 -0.9543
  181SLPC   C1420598   1.973   6.461   2.360  0.0158 -0.4240  0.6305
  181SLPC  H14A20599   1.872   6.426   2.345  0.1687  0.0628 -2.1520
  181SLPC  H14B20600   2.011   6.448   2.460 -2.2070  1.0344  1.7205
  181SLPC  H14C20601   1.977   6.568   2.351  2.8938 -0.4287  0.8811
  181SLPC   C1520602   2.043   6.472   2.122  0.1633  0.2155 -0.4463
  181SLPC  H15A20603   1.938   6.462   2.100  0.6110 -0.6900 -2.4260
  181SLPC  H15B20604   2.064   6.578   2.122 -2.5527  0.8515 -2.0233
  181SLPC  H15C20605   2.100   6.421   2.046  1.9776  2.3543 -0.6241
  181SLPC   C1220606   2.207   6.406   2.278 -0.1175 -0.6665 -0.8389
  181SLPC  H12A20607   2.236   6.507   2.304 -0.2855 -1.1629  1.4623
  181SLPC  H12B20608   2.267   6.386   2.190  2.4481 -1.1002  0.8828
  181SLPC   C1120609   2.257   6.318   2.387  0.2100  0.4450 -0.4585
  181SLPC  H11A20610   2.368   6.319   2.385  0.2927 -0.2757  1.2544
  181SLPC  H11B20611   2.229   6.213   2.363 -1.1875  0.6176  0.2721
  181SLPC     P20612   2.254   6.434   2.624  0.5380  0.1859  0.1608
  181SLPC   O1320613   2.400   6.420   2.624  0.4665  0.9856  0.0122
  181SLPC   O1420614   2.191   6.563   2.592  0.1433 -0.0265 -0.4345
  181SLPC   O1220615   2.196   6.323   2.519 -0.1015 -0.5907  0.3492
  181SLPC   O1120616   2.187   6.380   2.754 -0.3629  0.3839  0.2912
  181SLPC    C120617   2.043   6.406   2.776 -0.3664  0.2353  0.5633
  181SLPC    HA20618   1.985   6.404   2.681 -0.2251 -2.6930  0.4340
  181SLPC    HB20619   1.998   6.324   2.837 -1.4037 -0.5176 -1.1165
  181SLPC    C220620   2.022   6.532   2.852  0.4184  0.4529 -0.2227
  181SLPC    HS20621   2.046   6.619   2.787 -1.5056  0.4903 -0.9642
  181SLPC   O2120622   2.109   6.528   2.976  0.2766  0.1992  0.1889
  181SLPC   C2120623   2.105   6.641   3.052  0.1294  1.2673  0.3501
  181SLPC   O2220624   2.061   6.746   3.016  0.1155 -0.1482  0.0921
  181SLPC   C2220625   2.156   6.611   3.193 -0.4739 -0.1868 -0.4248
  181SLPC   H2R20626   2.074   6.556   3.243  1.2721 -1.7893  0.7777
  181SLPC   H2S20627   2.238   6.536   3.187 -0.9513 -0.8928  1.3623
  181SLPC    C320628   1.871   6.560   2.888 -0.7044 -0.4059  0.0565
  181SLPC    HX20629   1.814   6.543   2.794 -0.1645 -1.8034 -0.0378
  181SLPC    HY20630   1.866   6.664   2.927 -0.7002 -0.4707  0.2280
  181SLPC   O3120631   1.827   6.479   2.997  0.4132 -0.1961 -0.1575
  181SLPC   C3120632   1.734   6.380   2.969 -0.3936 -0.1937  0.4152
  181SLPC   O3220633   1.683   6.362   2.864  0.1180  0.3863  0.1918
  181SLPC   C3220634   1.706   6.294   3.094  0.0176  0.6422 -0.1931
  181SLPC   H2X20635   1.694   6.187   3.065  2.2910  0.2267  0.2395
  181SLPC   H2Y20636   1.609   6.331   3.134 -0.5109  0.6369 -1.4475
  181SLPC   C2320637   2.182   6.742   3.280 -0.1501 -0.0723  0.0184
  181SLPC   H3R20638   2.089   6.780   3.328 -0.5577 -0.0687 -0.7521
  181SLPC   H3S20639   2.234   6.822   3.223  1.0189  0.6781  2.0255
  181SLPC   C2420640   2.276   6.700   3.401  0.6156  0.2877  0.2774
  181SLPC   H4R20641   2.280   6.793   3.461 -0.3128  0.2126  0.4790
  181SLPC   H4S20642   2.371   6.674   3.351  0.1074  0.4152 -0.7893
  181SLPC   C2520643   2.226   6.575   3.471 -0.6881 -0.0216 -0.2113
  181SLPC   H5R20644   2.226   6.481   3.411 -2.8280 -0.9843  1.1762
  181SLPC   H5S20645   2.121   6.605   3.490  0.5432  2.5314  4.0146
  181SLPC   C2620646   2.296   6.554   3.607  0.6884  0.1515  0.6897
  181SLPC   H6R20647   2.397   6.510   3.590  0.3597 -1.5954  2.7898
  181SLPC   H6S20648   2.235   6.496   3.679  0.9759  0.5319  1.2449
  181SLPC   C2720649   2.328   6.680   3.697  0.6246 -0.2893 -0.6101
  181SLPC   H7R20650   2.238   6.737   3.726  1.3311  0.5197  0.0518
  181SLPC   H7S20651   2.375   6.760   3.636 -1.5910 -0.4822 -2.7248
  181SLPC   C2820652   2.417   6.636   3.820 -0.3617  0.3133 -0.5189
  181SLPC   H8R20653   2.519   6.615   3.783 -0.3521 -1.0794  0.2014
  181SLPC   H8S20654   2.378   6.538   3.858  4.2559 -1.3375  0.5749
  181SLPC   C2920655   2.421   6.739   3.932 -0.4346  0.0511 -0.4366
  181SLPC   H9R20656   2.323   6.754   3.980  1.3034  1.8383  2.8868
  181SLPC  C21020657   2.525   6.818   3.970 -0.1323 -0.0824 -0.0635
  181SLPC  H10R20658   2.503   6.896   4.045 -0.6107  1.8870 -2.1462
  181SLPC  C21120659   2.665   6.825   3.918  0.6525  0.0150  0.7059
  181SLPC  H11R20660   2.684   6.725   3.874  1.4976  0.5457 -0.1747
  181SLPC  H11S20661   2.739   6.826   4.002  0.8959 -1.9970  0.5590
  181SLPC  C21220662   2.688   6.946   3.823  0.1539 -0.2225  0.9713
  181SLPC  H12R20663   2.659   6.919   3.720 -1.3189 -2.1419  1.8370
  181SLPC  C21320664   2.736   7.066   3.853  0.0093 -0.0871  0.3720
  181SLPC  H13R20665   2.748   7.144   3.777 -0.0489 -1.3710 -0.9890
  181SLPC  C21420666   2.758   7.104   4.000 -0.2114 -0.1063 -0.7330
  181SLPC  H14R20667   2.861   7.146   4.006  0.8592 -2.4737 -1.3991
  181SLPC  H14S20668   2.748   7.021   4.074 -1.9968  0.6913 -0.0166
  181SLPC  C21520669   2.672   7.222   4.039  0.3955 -0.4561  0.1710
  181SLPC  H15R20670   2.650   7.296   3.960 -2.3338 -2.8774 -1.5629
  181SLPC  H15S20671   2.725   7.279   4.118  2.3562  0.5720 -1.7823
  181SLPC  C21620672   2.535   7.183   4.095  0.2983 -0.5724  0.2418
  181SLPC  H16R20673   2.551   7.104   4.171  4.4603 -0.2902 -0.1439
  181SLPC  H16S20674   2.475   7.135   4.015 -0.4910  2.8735 -1.4262
  181SLPC  C21720675   2.463   7.294   4.175 -0.2624 -0.1736 -0.2403
  181SLPC  H17R20676   2.516   7.305   4.272  0.3111 -1.4247 -0.3824
  181SLPC  H17S20677   2.366   7.240   4.180  0.2577 -1.0634  1.1592
  181SLPC  C21820678   2.451   7.424   4.105  0.0025  0.2110 -0.1910
  181SLPC  H18R20679   2.351   7.470   4.121  0.5821  1.6360 -0.5596
  181SLPC  H18S20680   2.470   7.403   3.998  0.1993 -2.6597  0.3251
  181SLPC  H18T20681   2.526   7.493   4.147 -1.3778  1.7328 -0.1193
  181SLPC   C3320682   1.808   6.306   3.213 -0.4057  0.1639  0.2825
  181SLPC   H3X20683   1.824   6.413   3.238 -2.5409  0.2064  1.7528
  181SLPC   H3Y20684   1.898   6.245   3.190 -1.0497 -0.9699  0.6693
  181SLPC   C3420685   1.754   6.231   3.333 -0.0688 -0.5039 -0.6040
  181SLPC   H4X20686   1.745   6.126   3.296  1.8994 -0.5545 -1.0092
  181SLPC   H4Y20687   1.654   6.263   3.370  0.3070 -0.4995  0.4335
  181SLPC   C3520688   1.845   6.240   3.454 -0.4989 -0.7675 -0.9546
  181SLPC   H5X20689   1.953   6.230   3.431 -0.3344 -1.4007  0.0131
  181SLPC   H5Y20690   1.818   6.153   3.518  2.4162 -0.7990  0.3911
  181SLPC   C3620691   1.817   6.370   3.535 -0.2247 -0.4206 -0.3292
  181SLPC   H6X20692   1.709   6.394   3.523  0.0870  1.1132 -0.2806
  181SLPC   H6Y20693   1.871   6.460   3.499 -0.6726  0.1764  0.4763
  181SLPC   C3720694   1.850   6.358   3.685  0.5972  0.2292 -0.6795
  181SLPC   H7X20695   1.846   6.464   3.718  1.1076 -0.0101  0.1792
  181SLPC   H7Y20696   1.941   6.300   3.712  1.0807  0.7854 -1.0828
  181SLPC   C3820697   1.730   6.299   3.765 -0.5804  0.1724 -0.1764
  181SLPC   H8X20698   1.738   6.190   3.745 -2.9485 -0.3392  1.3135
  181SLPC   H8Y20699   1.630   6.338   3.736 -1.2698  0.1617  2.0018
  181SLPC   C3920700   1.745   6.324   3.921  0.0978 -0.1573  0.2046
  181SLPC   H9X20701   1.733   6.428   3.958  0.3416  0.0736 -0.3518
  181SLPC   H9Y20702   1.848   6.294   3.949  0.7225  1.2703 -0.4337
  181SLPC  C31020703   1.647   6.232   3.993  0.1613 -0.3868  0.5062
  181SLPC  H10X20704   1.669   6.125   3.978 -1.4352 -0.4786 -1.7412
  181SLPC  H10Y20705   1.548   6.245   3.944  0.1312 -1.7319  0.1813
  181SLPC  C31120706   1.606   6.257   4.133 -0.4773 -0.1939 -0.1787
  181SLPC  H11X20707   1.552   6.353   4.140 -0.1702 -0.0727  0.6705
  181SLPC  H11Y20708   1.700   6.255   4.192  1.2229 -0.4530 -2.7395
  181SLPC  C31220709   1.500   6.154   4.196  0.4339  0.3558 -0.7564
  181SLPC  H12X20710   1.543   6.052   4.185 -0.6202 -0.0871 -0.9063
  181SLPC  H12Y20711   1.408   6.163   4.135  1.0381  2.7530 -1.3896
  181SLPC  C31320712   1.469   6.174   4.346 -0.2519 -0.7099  0.8718
  181SLPC  H13X20713   1.373   6.132   4.383 -1.6670  1.1406 -0.4757
  181SLPC  H13Y20714   1.450   6.281   4.368  0.1288  0.0194 -1.9368
  181SLPC  C31420715   1.582   6.127   4.436 -0.6529 -0.1824  0.1894
  181SLPC  H14X20716   1.667   6.198   4.427 -1.6030  1.0572  0.7013
  181SLPC  H14Y20717   1.620   6.029   4.400 -0.2728  0.3687 -0.9648
  181SLPC  C31520718   1.538   6.111   4.582 -0.3969  0.4542  0.5394
  181SLPC  H15X20719   1.465   6.029   4.599  1.9241 -2.5164 -2.4124
  181SLPC  H15Y20720   1.499   6.207   4.623 -1.2746 -0.6408  2.3731
  181SLPC  C31620721   1.659   6.063   4.661  0.1023  0.7278 -0.1849
  181SLPC  H16X20722   1.716   6.158   4.664 -2.7587  2.6279 -1.9600
  181SLPC  H16Y20723   1.718   5.986   4.607  0.7161  1.5158 -0.6461
  181SLPC  C31720724   1.626   6.019   4.800  0.5447  0.3031  0.7152
  181SLPC  H17X20725   1.724   5.991   4.844  1.7548 -0.6126 -2.2666
  181SLPC  H17Y20726   1.554   5.934   4.790 -0.1937  0.7688  1.8633
  181SLPC  C31820727   1.561   6.118   4.897  0.7829  0.2773 -0.3100
  181SLPC  H18X20728   1.464   6.158   4.858 -0.4651  0.5857  2.8149
  181SLPC  H18Y20729   1.621   6.206   4.928  1.4127 -0.7085  1.3705
  181SLPC  H18Z20730   1.549   6.059   4.990 -0.4143 -0.1959 -0.7397
  182SLPC     N20731   6.569   6.106   2.556  0.4799  0.2512 -0.6618
  182SLPC   C1320732   6.544   6.005   2.670 -0.3016 -0.9567  0.3688
  182SLPC  H13A20733   6.608   5.919   2.669  0.9417 -0.1688  3.3324
  182SLPC  H13B20734   6.584   6.049   2.760 -2.5982 -2.9267  2.5243
  182SLPC  H13C20735   6.442   5.975   2.688 -1.1490  1.4962  0.0048
  182SLPC   C1420736   6.529   6.035   2.427  0.2991 -0.0622  0.3082
  182SLPC  H14A20737   6.560   5.932   2.433 -1.2050 -0.5063  1.0794
  182SLPC  H14B20738   6.422   6.031   2.415  0.3937 -0.0397 -0.5721
  182SLPC  H14C20739   6.570   6.075   2.336  0.7980 -1.2850 -0.0221
  182SLPC   C1520740   6.721   6.115   2.551 -0.2161 -0.2683  0.8002
  182SLPC  H15A20741   6.756   6.013   2.541  2.9673  0.8712 -0.9823
  182SLPC  H15B20742   6.755   6.179   2.471 -0.9599 -0.3241  0.4259
  182SLPC  H15C20743   6.759   6.156   2.644  0.6646 -1.4619  0.9932
  182SLPC   C1220744   6.507   6.240   2.588 -0.1212  0.4840 -0.5886
  182SLPC  H12A20745   6.400   6.228   2.582 -0.4033  1.0141  2.2048
  182SLPC  H12B20746   6.527   6.303   2.502 -1.3510  0.0295 -1.2338
  182SLPC   C1120747   6.532   6.312   2.726 -0.7918  0.8408 -0.3489
  182SLPC  H11A20748   6.501   6.241   2.805 -1.6019  0.6227 -0.8514
  182SLPC  H11B20749   6.470   6.404   2.721 -2.0046  0.0032 -1.5021
  182SLPC     P20750   6.738   6.470   2.695  0.0536  0.4135 -0.3342
  182SLPC   O1320751   6.886   6.460   2.696 -0.5759  0.5193 -0.5164
  182SLPC   O1420752   6.680   6.486   2.559 -0.2722  0.7151  0.2778
  182SLPC   O1220753   6.676   6.336   2.746  0.2887  0.5065 -0.2145
  182SLPC   O1120754   6.695   6.586   2.784  0.0839 -0.0611  0.4694
  182SLPC    C120755   6.766   6.622   2.905 -0.2795  0.3688  0.6890
  182SLPC    HA20756   6.877   6.629   2.894 -0.4951  0.5199 -2.2405
  182SLPC    HB20757   6.718   6.717   2.937 -1.5085  0.7290 -1.9430
  182SLPC    C220758   6.736   6.515   3.016  0.6536 -0.6651 -0.1619
  182SLPC    HS20759   6.794   6.428   2.979  1.3177  0.0070 -0.7462
  182SLPC   O2120760   6.595   6.505   3.032 -0.0740  0.0378 -0.1272
  182SLPC   C2120761   6.546   6.394   3.083  0.2998 -0.9322 -0.3891
  182SLPC   O2220762   6.607   6.290   3.101  0.0007 -0.0925 -0.2324
  182SLPC   C2220763   6.396   6.419   3.080 -0.2022 -0.0715 -0.4108
  182SLPC   H2R20764   6.351   6.508   3.130  0.2312 -1.2066  2.1519
  182SLPC   H2S20765   6.375   6.425   2.971 -1.2144  0.8525 -0.1822
  182SLPC    C320766   6.788   6.553   3.148 -0.5655 -0.0816 -0.1018
  182SLPC    HX20767   6.738   6.643   3.190 -0.0586 -0.8687  2.3491
  182SLPC    HY20768   6.894   6.585   3.138 -0.8141  0.4221 -1.2015
  182SLPC   O3120769   6.763   6.459   3.256  0.1465 -0.1968  0.0687
  182SLPC   C3120770   6.867   6.387   3.293 -0.7992  1.1858  0.5250
  182SLPC   O3220771   6.978   6.392   3.237 -0.8540  0.4376 -0.5155
  182SLPC   C3220772   6.845   6.303   3.420 -0.3965 -0.5271  0.3085
  182SLPC   H2X20773   6.928   6.229   3.422 -1.5315 -2.2306 -4.2119
  182SLPC   H2Y20774   6.749   6.248   3.429 -1.5175  1.1815 -0.8359
  182SLPC   C2320775   6.327   6.295   3.152 -0.2837 -0.6264 -0.0334
  182SLPC   H3R20776   6.343   6.196   3.103  1.2292 -0.5556  0.2938
  182SLPC   H3S20777   6.220   6.325   3.152  0.4367  2.1898 -0.4483
  182SLPC   C2420778   6.361   6.268   3.304  0.1325 -0.3042  0.2326
  182SLPC   H4R20779   6.466   6.234   3.316  1.8298  3.8447 -0.7835
  182SLPC   H4S20780   6.295   6.188   3.344  1.1570 -1.5463 -0.5159
  182SLPC   C2520781   6.351   6.396   3.385  0.0109  0.2454  0.4543
  182SLPC   H5R20782   6.260   6.453   3.354 -0.2267 -0.5010 -0.2529
  182SLPC   H5S20783   6.435   6.466   3.369 -0.4039  0.7328  0.3542
  182SLPC   C2620784   6.326   6.376   3.533  0.4090 -0.3608  0.4242
  182SLPC   H6R20785   6.233   6.319   3.552 -0.6232  1.3185  0.6129
  182SLPC   H6S20786   6.316   6.472   3.588  4.3484 -0.4023  1.5360
  182SLPC   C2720787   6.443   6.298   3.602  0.0959 -0.2134 -0.6675
  182SLPC   H7R20788   6.540   6.350   3.585  0.3939 -0.7172 -0.5156
  182SLPC   H7S20789   6.456   6.193   3.567  0.7345 -1.0663  1.9678
  182SLPC   C2820790   6.441   6.287   3.756 -0.3508 -0.3269  0.8321
  182SLPC   H8R20791   6.467   6.389   3.791  3.7061  0.1584 -2.7330
  182SLPC   H8S20792   6.527   6.229   3.796  1.2937  0.2784 -1.6159
  182SLPC   C2920793   6.304   6.239   3.794  0.0829  0.0408 -0.2827
  182SLPC   H9R20794   6.259   6.166   3.724  0.3399 -0.2281 -0.1695
  182SLPC  C21020795   6.258   6.244   3.916  0.3434  0.4283 -0.1617
  182SLPC  H10R20796   6.157   6.205   3.936 -0.1589  1.8726  0.3413
  182SLPC  C21120797   6.314   6.321   4.040 -0.1857  1.3076  0.0115
  182SLPC  H11R20798   6.228   6.338   4.109 -1.1287  0.5544 -0.9406
  182SLPC  H11S20799   6.349   6.423   4.014  1.5853  0.6475 -0.3602
  182SLPC  C21220800   6.425   6.240   4.102 -0.7398  0.7495  0.4647
  182SLPC  H12R20801   6.513   6.234   4.037 -1.6190 -2.1363 -0.6643
  182SLPC  C21320802   6.433   6.178   4.216  0.0479 -0.2818 -1.1179
  182SLPC  H13R20803   6.529   6.134   4.248 -0.7520  0.0084  1.9423
  182SLPC  C21420804   6.328   6.169   4.325 -0.2572 -0.7552 -0.5911
  182SLPC  H14R20805   6.309   6.063   4.355 -0.4169 -0.2890  1.0332
  182SLPC  H14S20806   6.230   6.203   4.285  0.7169 -0.2113 -2.6285
  182SLPC  C21520807   6.364   6.262   4.446  0.1518 -0.0650 -0.5106
  182SLPC  H15R20808   6.394   6.362   4.408  1.0317 -0.5235 -1.0627
  182SLPC  H15S20809   6.459   6.214   4.480  1.1357  1.4872 -0.9988
  182SLPC  C21620810   6.270   6.275   4.571 -0.2593 -0.3749  0.1330
  182SLPC  H16R20811   6.326   6.304   4.663 -0.6953 -2.2542  1.0413
  182SLPC  H16S20812   6.230   6.174   4.596 -0.8523 -0.1416  0.1257
  182SLPC  C21720813   6.153   6.363   4.533 -0.0986 -0.1175 -0.1016
  182SLPC  H17R20814   6.114   6.301   4.450 -3.4404  1.6688 -0.0435
  182SLPC  H17S20815   6.173   6.462   4.486 -1.3883  1.2240  2.0238
  182SLPC  C21820816   6.030   6.380   4.630  0.5184  0.5476 -0.1824
  182SLPC  H18R20817   5.933   6.399   4.579 -0.9101 -0.0468  2.1562
  182SLPC  H18S20818   6.040   6.469   4.696 -0.9307  0.6945 -0.1382
  182SLPC  H18T20819   6.017   6.284   4.683  1.1041 -0.1967 -1.3388
  182SLPC   C3320820   6.845   6.392   3.543  0.5109 -0.1862 -0.3797
  182SLPC   H3X20821   6.762   6.466   3.544  0.6772  0.0443  1.6917
  182SLPC   H3Y20822   6.940   6.450   3.550  0.5180 -0.1438 -0.8273
  182SLPC   C3420823   6.815   6.297   3.664  0.4796  0.1353  0.2150
  182SLPC   H4X20824   6.888   6.214   3.663 -1.5331 -1.7109 -1.0616
  182SLPC   H4Y20825   6.718   6.245   3.655  0.9877 -0.8191  0.1418
  182SLPC   C3520826   6.816   6.381   3.796  0.0682 -0.6399  0.5644
  182SLPC   H5X20827   6.726   6.447   3.798 -1.2907 -2.3983  0.8208
  182SLPC   H5Y20828   6.901   6.448   3.819 -0.5192 -0.4101  2.2191
  182SLPC   C3620829   6.818   6.283   3.919 -0.6463 -0.1924  0.2233
  182SLPC   H6X20830   6.902   6.211   3.905  0.4168  1.4519 -2.9582
  182SLPC   H6Y20831   6.729   6.218   3.927  0.1689 -1.3564  0.1072
  182SLPC   C3720832   6.821   6.365   4.057  0.4150 -0.1758  0.5612
  182SLPC   H7X20833   6.721   6.411   4.071 -0.6592 -2.1031 -0.3761
  182SLPC   H7Y20834   6.896   6.446   4.068  0.0528  0.1898  0.3915
  182SLPC   C3820835   6.839   6.270   4.181  0.3825  0.6335 -0.6212
  182SLPC   H8X20836   6.922   6.203   4.151  1.0802  0.0946  2.1508
  182SLPC   H8Y20837   6.750   6.206   4.203  0.7256 -0.1814 -1.5434
  182SLPC   C3920838   6.868   6.326   4.323 -0.8356 -0.4453 -0.1365
  182SLPC   H9X20839   6.794   6.404   4.352  1.2903  1.9201 -0.6663
  182SLPC   H9Y20840   6.965   6.380   4.321 -1.6118  0.9838 -0.8020
  182SLPC  C31020841   6.879   6.211   4.430  0.2882 -0.2263  0.1850
  182SLPC  H10X20842   6.956   6.144   4.385 -0.0616  0.1743 -1.0465
  182SLPC  H10Y20843   6.786   6.150   4.436  0.7261 -0.9945 -0.5325
  182SLPC  C31120844   6.924   6.260   4.562 -0.4777 -0.1694 -0.1966
  182SLPC  H11X20845   6.873   6.212   4.648  1.0008 -2.5263 -0.5518
  182SLPC  H11Y20846   6.900   6.368   4.575 -0.0188 -0.2343  1.3571
  182SLPC  C31220847   7.077   6.248   4.578  0.5024  0.8136 -0.8028
  182SLPC  H12X20848   7.126   6.295   4.490  0.3868 -2.4721 -2.7810
  182SLPC  H12Y20849   7.085   6.137   4.574  2.3422  0.6660  2.6154
  182SLPC  C31320850   7.122   6.298   4.712 -0.4268 -0.5260 -0.3528
  182SLPC  H13X20851   7.086   6.236   4.797 -1.8235  0.7967  0.0781
  182SLPC  H13Y20852   7.066   6.394   4.726  3.9671  2.4704 -1.2036
  182SLPC  C31420853   7.270   6.320   4.706 -0.0860 -0.4917 -0.2772
  182SLPC  H14X20854   7.291   6.407   4.639  1.4447 -1.2826 -0.8584
  182SLPC  H14Y20855   7.329   6.232   4.673  3.0317 -0.2368  3.9183
  182SLPC  C31520856   7.319   6.367   4.848 -0.0950 -0.5595  0.0107
  182SLPC  H15X20857   7.240   6.433   4.890  1.1422 -0.3733  2.2377
  182SLPC  H15Y20858   7.407   6.433   4.830 -0.1395 -1.0938 -2.5549
  182SLPC  C31620859   7.354   6.254   4.945 -0.0198  0.1796 -0.1110
  182SLPC  H16X20860   7.435   6.187   4.908  0.4178 -0.5786  2.0627
  182SLPC  H16Y20861   7.262   6.195   4.964 -0.5395  1.6520  2.3362
  182SLPC  C31720862   7.394   6.307   5.085 -0.3437  0.7292 -0.0202
  182SLPC  H17X20863   7.488   6.365   5.080  1.1030 -1.5835 -1.0465
  182SLPC  H17Y20864   7.417   6.213   5.140  1.2417  0.8199 -0.4753
  182SLPC  C31820865   7.273   6.368   5.161 -0.4920  0.5223 -0.4094
  182SLPC  H18X20866   7.299   6.384   5.267 -2.9350 -0.8108  0.4656
  182SLPC  H18Y20867   7.176   6.315   5.159  0.0078 -0.4613  0.4800
  182SLPC  H18Z20868   7.259   6.468   5.116  0.8332  0.9856  0.1703
  183SLPC     N20869   1.680   2.741   2.166  0.0672 -0.0107  0.3753
  183SLPC   C1320870   1.765   2.621   2.188  0.3541 -0.2731  0.2717
  183SLPC  H13A20871   1.740   2.568   2.279 -2.4985 -0.0510 -0.3022
  183SLPC  H13B20872   1.749   2.547   2.110 -1.6861 -0.0900  0.4689
  183SLPC  H13C20873   1.870   2.648   2.186 -0.4188  3.1527  0.0960
  183SLPC   C1420874   1.543   2.688   2.128  0.5476 -0.0027  0.4500
  183SLPC  H14A20875   1.483   2.777   2.116  3.1287  1.8050  0.0555
  183SLPC  H14B20876   1.549   2.629   2.038 -0.2709  0.4008  0.1216
  183SLPC  H14C20877   1.505   2.625   2.208  2.1891 -1.8219 -0.1299
  183SLPC   C1520878   1.742   2.827   2.062 -0.8665  0.5626 -0.8302
  183SLPC  H15A20879   1.833   2.873   2.100 -1.5405  0.4352  1.0389
  183SLPC  H15B20880   1.772   2.760   1.983  1.0846 -0.7816  0.9553
  183SLPC  H15C20881   1.672   2.905   2.036  0.1581  1.8845  0.2115
  183SLPC   C1220882   1.675   2.814   2.298  0.2633 -0.4748  0.8293
  183SLPC  H12A20883   1.772   2.820   2.346  0.3919 -1.7806  0.7611
  183SLPC  H12B20884   1.622   2.751   2.368 -1.2768  0.1408  0.2401
  183SLPC   C1120885   1.609   2.952   2.302  0.3420 -0.5428 -0.3218
  183SLPC  H11A20886   1.667   3.019   2.235  1.3101 -0.3775  0.6525
  183SLPC  H11B20887   1.633   3.002   2.398  2.2475  0.6699 -1.3552
  183SLPC     P20888   1.373   2.920   2.392 -0.0331  0.6088  0.4310
  183SLPC   O1320889   1.337   3.054   2.449 -0.0389 -0.3340  0.0582
  183SLPC   O1420890   1.262   2.832   2.342 -0.6556  0.1227  0.8282
  183SLPC   O1220891   1.474   2.945   2.271 -0.3172  0.2622  0.2463
  183SLPC   O1120892   1.464   2.847   2.493  0.7860 -0.2908  0.2594
  183SLPC    C120893   1.412   2.771   2.604 -0.6364 -0.7978 -0.7114
  183SLPC    HA20894   1.356   2.681   2.571 -0.7549 -1.2138  0.5574
  183SLPC    HB20895   1.497   2.712   2.645 -1.3395 -1.5498 -0.3024
  183SLPC    C220896   1.354   2.858   2.719 -0.4112 -0.2098 -0.0691
  183SLPC    HS20897   1.288   2.928   2.664  0.3500  0.5914  0.0306
  183SLPC   O2120898   1.455   2.923   2.788 -0.2993 -0.0289  0.0037
  183SLPC   C2120899   1.428   3.050   2.810  0.8849 -0.1130 -1.3110
  183SLPC   O2220900   1.333   3.114   2.764 -0.4551  0.5960 -0.5378
  183SLPC   C2220901   1.529   3.102   2.915  0.0420 -0.6195  0.0482
  183SLPC   H2R20902   1.538   3.007   2.972 -1.9897 -0.2326  1.0881
  183SLPC   H2S20903   1.621   3.130   2.858  0.1547 -1.1987 -0.0636
  183SLPC    C320904   1.269   2.772   2.815 -0.1326  0.1914 -0.2828
  183SLPC    HX20905   1.333   2.696   2.865 -0.6752 -0.5288 -0.6638
  183SLPC    HY20906   1.191   2.728   2.751 -1.7836  2.2101  0.2360
  183SLPC   O3120907   1.202   2.851   2.917  0.4561  0.5040 -0.6774
  183SLPC   C3120908   1.087   2.910   2.886  0.3055  0.0885  0.4631
  183SLPC   O3220909   1.034   2.919   2.777  0.5901  0.0789  0.8250
  183SLPC   C3220910   1.032   2.978   3.007  0.3195  0.3182  0.0071
  183SLPC   H2X20911   1.067   3.084   3.009 -0.0149  0.4250  0.4494
  183SLPC   H2Y20912   1.067   2.926   3.098 -0.4857 -0.2812 -0.0173
  183SLPC   C2320913   1.486   3.223   2.997  0.1531  0.0823  0.0407
  183SLPC   H3R20914   1.469   3.310   2.931  0.5448 -0.5788 -0.9630
  183SLPC   H3S20915   1.570   3.234   3.069  1.1479 -1.2912 -0.8590
  183SLPC   C2420916   1.360   3.199   3.084 -0.0486  0.0611 -0.1132
  183SLPC   H4R20917   1.372   3.128   3.169 -1.3850  1.7367  1.5709
  183SLPC   H4S20918   1.283   3.162   3.014 -0.6179  1.1537 -0.0895
  183SLPC   C2520919   1.297   3.333   3.139 -0.1211 -0.1678  0.5132
  183SLPC   H5R20920   1.206   3.310   3.199  1.1373  0.6519  2.8918
  183SLPC   H5S20921   1.257   3.388   3.051  0.6333 -0.5964 -0.1114
  183SLPC   C2620922   1.385   3.422   3.221  0.1093 -0.0886 -0.1028
  183SLPC   H6R20923   1.323   3.512   3.241 -1.9701 -1.2519 -0.9099
  183SLPC   H6S20924   1.479   3.451   3.171 -0.3977 -0.2524 -1.1880
  183SLPC   C2720925   1.419   3.345   3.350  0.5421 -0.5191 -0.0823
  183SLPC   H7R20926   1.470   3.252   3.316  2.2893 -0.0736  1.1759
  183SLPC   H7S20927   1.319   3.324   3.395  0.3493 -1.4332 -0.8890
  183SLPC   C2820928   1.499   3.427   3.446  0.5383 -0.5054  0.0775
  183SLPC   H8R20929   1.579   3.464   3.378 -0.3024 -0.4448 -0.9064
  183SLPC   H8S20930   1.556   3.357   3.511 -0.4984  0.1232  1.6963
  183SLPC   C2920931   1.424   3.537   3.517 -1.0079 -0.2298 -0.2784
  183SLPC   H9R20932   1.345   3.591   3.463 -1.4162  2.1506  2.4316
  183SLPC  C21020933   1.440   3.574   3.647 -0.1473  0.4166  0.2474
  183SLPC  H10R20934   1.389   3.658   3.695  0.5661  0.7058  0.5126
  183SLPC  C21120935   1.537   3.516   3.749 -0.0752 -0.7511  0.4474
  183SLPC  H11R20936   1.603   3.597   3.787 -0.0672 -0.2304 -0.6336
  183SLPC  H11S20937   1.606   3.453   3.689  2.4482  1.2644  1.1078
  183SLPC  C21220938   1.469   3.448   3.864 -0.3914 -0.5128  0.5994
  183SLPC  H12R20939   1.420   3.355   3.831 -0.4760  0.1890 -1.3942
  183SLPC  C21320940   1.496   3.462   3.991  0.7450  0.3102 -1.1760
  183SLPC  H13R20941   1.445   3.389   4.055 -1.5224  2.7535 -0.0217
  183SLPC  C21420942   1.553   3.581   4.068 -0.2908  0.2675 -0.0751
  183SLPC  H14R20943   1.575   3.658   3.990  2.8053 -1.9120 -1.5694
  183SLPC  H14S20944   1.650   3.560   4.118 -0.5626  1.2101  0.8982
  183SLPC  C21520945   1.465   3.634   4.188 -0.2281  0.5307 -0.5507
  183SLPC  H15R20946   1.356   3.636   4.170 -0.5809  1.2401  1.3934
  183SLPC  H15S20947   1.484   3.744   4.184 -2.5878  0.9678 -1.8230
  183SLPC  C21620948   1.488   3.545   4.307  0.1766  0.2510 -0.5140
  183SLPC  H16R20949   1.597   3.531   4.326 -0.1106 -0.7183  0.4949
  183SLPC  H16S20950   1.447   3.446   4.278  0.3050 -0.7130  2.3302
  183SLPC  C21720951   1.407   3.597   4.428 -0.7432 -0.5166 -0.0740
  183SLPC  H17R20952   1.410   3.522   4.511 -1.7941  0.4899  0.9036
  183SLPC  H17S20953   1.300   3.602   4.400 -0.1120  0.2818 -2.5597
  183SLPC  C21820954   1.444   3.728   4.479  0.0445 -0.0856 -0.9450
  183SLPC  H18R20955   1.364   3.745   4.554 -1.0922  3.0396 -2.6930
  183SLPC  H18S20956   1.436   3.805   4.399 -2.4823 -0.9108 -1.5843
  183SLPC  H18T20957   1.544   3.730   4.526  0.1154  1.7479 -1.1170
  183SLPC   C3320958   0.883   2.976   3.007  0.1783 -0.7131  0.4594
  183SLPC   H3X20959   0.847   2.871   3.015 -1.9631 -0.1154 -0.4721
  183SLPC   H3Y20960   0.837   3.009   2.911  2.0087  0.1934 -0.1537
  183SLPC   C3420961   0.814   3.062   3.116  0.0574  0.4640 -0.0879
  183SLPC   H4X20962   0.706   3.043   3.104  0.5695 -0.9626 -3.8895
  183SLPC   H4Y20963   0.836   3.169   3.098  0.9568  0.2467 -0.3482
  183SLPC   C3520964   0.855   3.025   3.252  0.1960 -0.1984 -0.5081
  183SLPC   H5X20965   0.956   3.067   3.270 -0.7145  2.8057 -1.8103
  183SLPC   H5Y20966   0.882   2.917   3.250 -0.3540 -0.3477 -0.0822
  183SLPC   C3620967   0.763   3.079   3.361 -0.5536  0.5115 -0.6545
  183SLPC   H6X20968   0.658   3.050   3.338 -0.8734  0.9830  0.1756
  183SLPC   H6Y20969   0.776   3.189   3.371  1.8295  0.0663  4.1066
  183SLPC   C3720970   0.803   3.013   3.486  0.0365 -0.3351 -0.0299
  183SLPC   H7X20971   0.909   3.036   3.512  0.0559  0.0026 -0.3996
  183SLPC   H7Y20972   0.784   2.905   3.468 -2.9457 -0.0832  1.1725
  183SLPC   C3820973   0.714   3.049   3.600  0.0200 -0.7803  0.2488
  183SLPC   H8X20974   0.748   2.999   3.693 -0.6205 -0.0656  0.8821
  183SLPC   H8Y20975   0.605   3.035   3.585  0.0659 -0.3414 -0.5020
  183SLPC   C3920976   0.730   3.192   3.645 -0.1242  0.3970  0.6485
  183SLPC   H9X20977   0.694   3.258   3.563 -0.5457  1.4709  1.6832
  183SLPC   H9Y20978   0.839   3.210   3.657 -0.2348  0.7164  1.1854
  183SLPC  C31020979   0.649   3.233   3.769  0.0963  0.0534  0.5472
  183SLPC  H10X20980   0.539   3.223   3.765  0.2083 -3.7250  2.4907
  183SLPC  H10Y20981   0.687   3.332   3.799  2.9352 -1.0984  1.0985
  183SLPC  C31120982   0.696   3.144   3.894 -0.0004  0.2904 -0.6358
  183SLPC  H11X20983   0.805   3.162   3.908 -0.0580 -0.9478  2.3709
  183SLPC  H11Y20984   0.686   3.035   3.878 -2.0266  0.5000 -0.9844
  183SLPC  C31220985   0.629   3.195   4.021  0.1356  0.3697 -0.5968
  183SLPC  H12X20986   0.651   3.118   4.098  2.1944  1.9262  0.4658
  183SLPC  H12Y20987   0.520   3.192   4.000 -0.4536  0.3086  2.1115
  183SLPC  C31320988   0.679   3.335   4.075  0.8466 -0.1406  0.5379
  183SLPC  H13X20989   0.642   3.415   4.007  4.2575 -0.0621 -1.4644
  183SLPC  H13Y20990   0.788   3.337   4.055  0.5923  0.5361 -0.9257
  183SLPC  C31420991   0.635   3.387   4.209 -0.1812  0.4559  0.1572
  183SLPC  H14X20992   0.526   3.366   4.202 -0.4579  2.0376 -0.7544
  183SLPC  H14Y20993   0.638   3.498   4.201  1.8473  0.4030 -0.4299
  183SLPC  C31520994   0.708   3.334   4.330 -0.0568  0.2566 -0.0675
  183SLPC  H15X20995   0.702   3.406   4.415 -1.1855  1.3990 -1.0632
  183SLPC  H15Y20996   0.817   3.324   4.309 -0.1672  1.9024 -1.7611
  183SLPC  C31620997   0.669   3.193   4.381 -1.3624  0.6679  0.0809
  183SLPC  H16X20998   0.722   3.168   4.476  0.6779 -0.1935 -1.2239
  183SLPC  H16Y20999   0.712   3.114   4.316  1.7799  0.5662  2.0257
  183SLPC  C31721000   0.521   3.181   4.418 -0.2187 -0.0522  0.1076
  183SLPC  H17X21001   0.456   3.179   4.328  0.5255 -0.0584 -0.4395
  183SLPC  H17Y21002   0.493   3.281   4.457  1.6098  1.5945 -2.4891
  183SLPC  C31821003   0.478   3.066   4.510  0.1132 -0.5737 -0.6355
  183SLPC  H18X21004   0.528   3.083   4.608  1.0641  1.9573 -1.4837
  183SLPC  H18Y21005   0.502   2.964   4.471 -1.8771 -1.2506 -0.1979
  183SLPC  H18Z21006   0.369   3.073   4.527  0.4105  0.3760  1.0367
  184SLPC     N21007   0.554   1.593   2.666 -0.1166 -0.4576  0.4197
  184SLPC   C1321008   0.524   1.707   2.575 -0.0990 -0.0692 -0.9634
  184SLPC  H13A21009   0.524   1.801   2.628  0.5697  0.3973 -1.7767
  184SLPC  H13B21010   0.589   1.721   2.490  0.7580  0.9613 -0.1755
  184SLPC  H13C21011   0.425   1.693   2.535 -0.1020 -2.8527 -0.2363
  184SLPC   C1421012   0.703   1.584   2.691  0.0096  0.9037  0.1518
  184SLPC  H14A21013   0.716   1.498   2.755  1.2659  1.2395  0.3609
  184SLPC  H14B21014   0.760   1.573   2.600 -0.0184  0.4841  0.1830
  184SLPC  H14C21015   0.730   1.672   2.746  1.7333  0.3501  0.2401
  184SLPC   C1521016   0.521   1.466   2.592  0.3337  0.0689 -0.8278
  184SLPC  H15A21017   0.588   1.450   2.509  0.1339 -0.2779 -0.9222
  184SLPC  H15B21018   0.535   1.383   2.659  2.5273  2.6854  2.3125
  184SLPC  H15C21019   0.417   1.468   2.562 -0.1085  0.6688  0.6255
  184SLPC   C1221020   0.472   1.600   2.790 -1.0920  0.2037 -0.3606
  184SLPC  H12A21021   0.367   1.581   2.774 -0.7914 -0.9736 -1.1183
  184SLPC  H12B21022   0.473   1.701   2.828 -1.6409  0.1816 -0.2754
  184SLPC   C1121023   0.520   1.498   2.903 -0.2321 -0.0421  0.1080
  184SLPC  H11A21024   0.435   1.509   2.974  0.8307 -1.0379  1.5834
  184SLPC  H11B21025   0.612   1.541   2.948  1.2089 -0.8530 -1.9242
  184SLPC     P21026   0.437   1.254   2.879 -0.1225  0.1226  0.3229
  184SLPC   O1321027   0.317   1.280   2.798  0.3814  0.7551  0.6656
  184SLPC   O1421028   0.492   1.119   2.856  0.0163 -0.5139 -0.0921
  184SLPC   O1221029   0.542   1.366   2.850 -0.1508 -0.4916 -0.1061
  184SLPC   O1121030   0.396   1.254   3.029 -0.2181  0.2917 -0.5980
  184SLPC    C121031   0.260   1.235   3.060 -0.4599  0.5784  0.3587
  184SLPC    HA21032   0.196   1.317   3.022 -2.8791 -0.3396  2.1980
  184SLPC    HB21033   0.212   1.144   3.019  0.3696 -1.0649  2.8088
  184SLPC    C221034   0.229   1.247   3.219 -0.3921  0.0518  0.0257
  184SLPC    HS21035   0.150   1.325   3.221 -1.2766 -0.8263  0.9623
  184SLPC   O2121036   0.340   1.269   3.303  0.0095  0.0814 -0.4678
  184SLPC   C2121037   0.384   1.398   3.298  0.0929 -1.2071  0.2341
  184SLPC   O2221038   0.338   1.488   3.229  0.5145  0.1761  0.1779
  184SLPC   C2221039   0.511   1.413   3.389  0.0073 -0.0123 -1.0549
  184SLPC   H2R21040   0.559   1.314   3.403  0.0627  0.0149 -1.0528
  184SLPC   H2S21041   0.583   1.467   3.325 -0.9173 -1.4348 -3.4015
  184SLPC    C321042   0.141   1.125   3.264 -0.5460 -0.8404  1.2604
  184SLPC    HX21043   0.218   1.045   3.267  0.8725  0.4737  0.6599
  184SLPC    HY21044   0.055   1.108   3.195 -0.2867  1.2626  0.3679
  184SLPC   O3121045   0.096   1.155   3.392  0.1125 -0.2507  0.0742
  184SLPC   C3121046   0.079   1.060   3.481 -0.8380 -0.1442  0.1235
  184SLPC   O3221047   0.093   0.940   3.458 -0.6556 -0.4163 -0.3987
  184SLPC   C3221048   0.059   1.132   3.613  0.2505 -0.4534  0.1140
  184SLPC   H2X21049  -0.007   1.220   3.598 -1.0335 -1.5380 -0.7913
  184SLPC   H2Y21050   0.157   1.166   3.653 -0.1468  0.7477  0.1005
  184SLPC   C2321051   0.495   1.486   3.526 -0.2919 -0.0782 -0.7080
  184SLPC   H3R21052   0.453   1.589   3.526  0.5284  0.2650 -0.5983
  184SLPC   H3S21053   0.589   1.489   3.584 -1.6929  0.1724  1.6699
  184SLPC   C2421054   0.404   1.403   3.618 -0.1135 -0.3651 -0.6335
  184SLPC   H4R21055   0.418   1.295   3.596 -1.9281 -0.3893 -1.9465
  184SLPC   H4S21056   0.298   1.426   3.594 -1.4446 -2.7139  2.3285
  184SLPC   C2521057   0.431   1.425   3.770  0.7272  0.2036  0.5603
  184SLPC   H5R21058   0.428   1.532   3.800  0.7837  0.8425 -1.5575
  184SLPC   H5S21059   0.536   1.395   3.788  0.9491 -0.1994 -1.1783
  184SLPC   C2621060   0.331   1.348   3.859 -0.4186 -0.5592 -0.2182
  184SLPC   H6R21061   0.349   1.239   3.868 -2.4597 -0.9694 -0.4526
  184SLPC   H6S21062   0.227   1.357   3.820  0.6453 -0.1375 -3.2121
  184SLPC   C2721063   0.335   1.396   4.007 -0.0936  0.0707 -0.0179
  184SLPC   H7R21064   0.309   1.504   4.005  0.0923  0.1781  1.7756
  184SLPC   H7S21065   0.437   1.378   4.046  0.0826  1.8335  0.4200
  184SLPC   C2821066   0.240   1.329   4.105  0.2130  0.2879  0.6057
  184SLPC   H8R21067   0.291   1.233   4.128 -1.4372 -1.0606 -1.0191
  184SLPC   H8S21068   0.152   1.287   4.052  1.2219 -1.5452  0.2851
  184SLPC   C2921069   0.214   1.417   4.219 -0.1702  0.1179  0.1650
  184SLPC   H9R21070   0.138   1.494   4.197  0.8592  0.7983 -1.1632
  184SLPC  C21021071   0.271   1.407   4.346 -0.5945 -0.3731  0.2288
  184SLPC  H10R21072   0.239   1.485   4.417  0.4576  0.9188 -0.6461
  184SLPC  C21121073   0.374   1.310   4.391  1.2043  0.8297 -0.0297
  184SLPC  H11R21074   0.457   1.363   4.441  1.4350  1.4123 -1.0055
  184SLPC  H11S21075   0.430   1.265   4.306 -1.0199 -1.6175 -0.3185
  184SLPC  C21221076   0.320   1.191   4.479 -0.4219 -0.1277 -0.7239
  184SLPC  H12R21077   0.264   1.117   4.420  0.9439  0.7261 -3.2753
  184SLPC  C21321078   0.330   1.182   4.607  0.0148  0.0304  0.0907
  184SLPC  H13R21079   0.287   1.095   4.658 -1.7502  0.5660 -0.4040
  184SLPC  C21421080   0.400   1.285   4.696 -0.0953  0.4310 -0.8008
  184SLPC  H14R21081   0.330   1.365   4.730  0.4842  0.1449  1.2395
  184SLPC  H14S21082   0.479   1.349   4.650  0.0315  1.1869  0.3966
  184SLPC  C21521083   0.470   1.216   4.820 -0.1406  0.0759 -0.3134
  184SLPC  H15R21084   0.385   1.182   4.883  0.6670  2.4120  2.2483
  184SLPC  H15S21085   0.518   1.293   4.885 -0.2022 -0.6248  0.5817
  184SLPC  C21621086   0.573   1.108   4.781 -0.3988  0.3620  0.3149
  184SLPC  H16R21087   0.639   1.129   4.694 -0.1391 -3.0194 -0.4613
  184SLPC  H16S21088   0.516   1.014   4.766 -0.9013  0.9099 -1.4099
  184SLPC  C21721089   0.682   1.073   4.882 -0.9309  0.3422 -0.1713
  184SLPC  H17R21090   0.638   1.043   4.980 -2.3357  0.8266 -0.6266
  184SLPC  H17S21091   0.729   1.168   4.915 -1.0535  0.0996  0.7272
  184SLPC  C21821092   0.784   0.968   4.833 -0.3100 -0.0866  0.4839
  184SLPC  H18R21093   0.852   0.939   4.916  0.5918 -2.9579 -1.1140
  184SLPC  H18S21094   0.840   1.019   4.752 -2.1854 -0.7485 -1.3241
  184SLPC  H18T21095   0.741   0.874   4.791 -2.1308  0.6813  0.5444
  184SLPC   C3321096  -0.010   1.048   3.723 -0.1519  0.0429 -0.5497
  184SLPC   H3X21097   0.027   0.944   3.716 -1.2409 -0.3080 -1.2853
  184SLPC   H3Y21098  -0.120   1.050   3.715 -0.1481  0.8093 -0.5439
  184SLPC   C3421099   0.022   1.096   3.865 -0.3933  0.6190  0.5169
  184SLPC   H4X21100  -0.009   1.202   3.883  0.3571  1.0694 -0.7172
  184SLPC   H4Y21101   0.133   1.096   3.868 -0.2982 -1.9168 -0.4379
  184SLPC   C3521102  -0.024   1.012   3.984  0.9329 -0.4568  0.8794
  184SLPC   H5X21103   0.010   0.909   3.960  0.3369 -0.4355 -0.1056
  184SLPC   H5Y21104  -0.134   0.994   3.980  0.5175  1.8428  0.7677
  184SLPC   C3621105   0.028   1.056   4.124 -0.5327 -0.3229  0.4873
  184SLPC   H6X21106  -0.001   1.161   4.148 -0.3069 -0.3156  0.7314
  184SLPC   H6Y21107   0.139   1.060   4.119 -0.5523  0.4439  0.5260
  184SLPC   C3721108  -0.027   0.957   4.229 -0.7922  0.1580 -0.0644
  184SLPC   H7X21109   0.015   0.855   4.217 -0.6135  0.0243  1.5744
  184SLPC   H7Y21110  -0.137   0.948   4.212 -1.2037  0.1373  2.3318
  184SLPC   C3821111  -0.006   1.000   4.383 -0.0375  0.2080  0.7147
  184SLPC   H8X21112  -0.058   1.096   4.403  1.0979  1.0798 -0.3329
  184SLPC   H8Y21113   0.102   1.010   4.408 -0.4694  0.5025  2.6316
  184SLPC   C3921114  -0.052   0.883   4.468  0.6766  0.1149 -0.0541
  184SLPC   H9X21115   0.000   0.799   4.418 -0.3818  0.1566 -1.2703
  184SLPC   H9Y21116  -0.161   0.867   4.462  0.6076  0.4112  0.3180
  184SLPC  C31021117   0.000   0.890   4.617 -0.2784 -0.4242 -0.4471
  184SLPC  H10X21118  -0.049   0.968   4.679  1.5262 -1.6229  2.7081
  184SLPC  H10Y21119   0.105   0.926   4.606 -0.3508 -0.0998 -0.0983
  184SLPC  C31121120   0.005   0.756   4.694  0.0357 -0.0603  0.1534
  184SLPC  H11X21121   0.077   0.767   4.778  0.2853 -0.1954 -0.0406
  184SLPC  H11Y21122   0.037   0.682   4.618  0.9946  0.7188 -0.2174
  184SLPC  C31221123  -0.147   0.720   4.735 -0.5157  0.0334 -0.6612
  184SLPC  H12X21124  -0.151   0.614   4.769 -1.4550  0.3443  0.2419
  184SLPC  H12Y21125  -0.207   0.732   4.641  0.4122  0.8600 -1.1671
  184SLPC  C31321126  -0.216   0.817   4.836 -0.0628 -0.2224  0.1218
  184SLPC  H13X21127  -0.315   0.774   4.860 -1.0047  1.7541 -0.0776
  184SLPC  H13Y21128  -0.227   0.915   4.786 -2.0828 -0.5060 -0.0634
  184SLPC  C31421129  -0.127   0.832   4.960  0.7214 -0.1037  0.0767
  184SLPC  H14X21130  -0.187   0.874   5.043 -0.5780 -0.1696 -0.8007
  184SLPC  H14Y21131  -0.043   0.902   4.941  1.3937 -0.9146  0.0157
  184SLPC  C31521132  -0.073   0.704   5.024  0.4887 -0.6251  0.0068
  184SLPC  H15X21133  -0.008   0.720   5.113  1.0714 -0.7954 -0.3842
  184SLPC  H15Y21134  -0.007   0.646   4.956  1.1519  0.4696 -0.3105
  184SLPC  C31621135  -0.179   0.600   5.067  1.0018  0.0167 -0.5774
  184SLPC  H16X21136  -0.188   0.519   4.991 -0.1840  0.2191 -0.6782
  184SLPC  H16Y21137  -0.278   0.649   5.080  0.5404 -1.1031  0.3766
  184SLPC  C31721138  -0.149   0.530   5.205 -0.3480 -0.3756 -0.0137
  184SLPC  H17X21139  -0.089   0.597   5.271 -1.1860  0.3099  0.0688
  184SLPC  H17Y21140  -0.086   0.441   5.185  1.5351  0.5317  1.5290
  184SLPC  C31821141  -0.275   0.493   5.278  0.5742  0.9339 -0.2669
  184SLPC  H18X21142  -0.328   0.407   5.231 -1.0505  0.4708  2.1968
  184SLPC  H18Y21143  -0.352   0.572   5.295  1.1804  1.4041  0.3639
  184SLPC  H18Z21144  -0.249   0.459   5.381  1.0300 -0.4380 -0.8080
  185POPC     N21145   0.995   4.993   7.222 -0.5140  0.0004 -0.9000
  185POPC   C1221146   0.963   4.852   7.159  0.0481 -0.2735 -0.2769
  185POPC  H12A21147   0.861   4.827   7.186  0.3308 -0.0068  1.1004
  185POPC  H12B21148   1.043   4.785   7.187  2.9383  1.8129 -2.8974
  185POPC   C1321149   0.956   4.999   7.365  0.5116 -0.3053 -0.9246
  185POPC  H13A21150   0.997   4.921   7.427 -0.9631  0.3225  0.9583
  185POPC  H13B21151   0.978   5.090   7.418  1.2857 -1.0286  0.0371
  185POPC  H13C21152   0.849   4.989   7.376  0.1770  3.4427  0.8409
  185POPC   C1421153   1.146   5.007   7.199  0.5736 -0.3442  0.0552
  185POPC  H14A21154   1.183   5.103   7.231  0.8817 -0.2679 -0.5158
  185POPC  H14B21155   1.206   4.931   7.247  1.8966 -0.0407 -1.0648
  185POPC  H14C21156   1.150   4.998   7.091 -3.2348 -0.3908 -0.2388
  185POPC   C1521157   0.936   5.102   7.141 -0.5809  0.8407  0.0303
  185POPC  H15A21158   0.829   5.088   7.128 -0.0697 -1.8686 -2.2566
  185POPC  H15B21159   0.976   5.092   7.041 -0.4022 -0.2907  0.2046
  185POPC  H15C21160   0.964   5.195   7.187 -1.6681  1.9076 -1.3417
  185POPC   C1121161   0.976   4.837   7.008  0.0517  0.4677  0.8614
  185POPC  H11A21162   0.905   4.904   6.955  2.3632  1.8796 -0.6765
  185POPC  H11B21163   0.939   4.741   6.967 -0.2633  0.7071  0.5780
  185POPC     P21164   1.210   4.753   6.940 -0.0192  0.0412 -0.5762
  185POPC   O1321165   1.164   4.639   7.011 -0.4626  0.3463  0.0635
  185POPC   O1421166   1.343   4.805   6.994  0.4369  0.5122 -0.1086
  185POPC   O1221167   1.106   4.868   6.961  0.1430  0.2126  0.1674
  185POPC   O1121168   1.220   4.722   6.783  0.3746  0.2113  0.0176
  185POPC    C121169   1.350   4.680   6.734  0.4705  0.3212 -0.8236
  185POPC    HA21170   1.344   4.609   6.648 -0.5235 -0.9749  0.2752
  185POPC    HB21171   1.408   4.635   6.817 -2.3613 -2.0525  0.0434
  185POPC    C221172   1.422   4.810   6.668 -0.9264  0.7505 -0.0144
  185POPC    HS21173   1.397   4.891   6.739 -0.8219 -0.0729  0.9931
  185POPC   O2121174   1.360   4.823   6.537  0.0303 -0.0412 -0.1864
  185POPC   C2121175   1.390   4.936   6.481  0.1832 -0.0727 -0.5568
  185POPC   O2221176   1.445   5.034   6.532  0.6167 -0.7314  0.5809
  185POPC   C2221177   1.326   4.922   6.349  0.8143  0.5706  0.4247
  185POPC   H2R21178   1.219   4.904   6.373  0.7182 -0.0004 -0.3773
  185POPC   H2S21179   1.362   4.834   6.291  0.7946  0.3945  0.6814
  185POPC    C321180   1.583   4.787   6.664 -0.0475 -0.0836 -0.9032
  185POPC    HX21181   1.610   4.685   6.697  1.2002  0.2488 -0.8410
  185POPC    HY21182   1.615   4.852   6.749  1.3985  0.4056 -1.7834
  185POPC   O3121183   1.643   4.817   6.532 -0.0246 -0.2003 -0.0397
  185POPC   C3121184   1.774   4.854   6.549 -0.0848 -0.1508  1.2299
  185POPC   O3221185   1.837   4.864   6.652  0.1024  0.7424  0.3995
  185POPC   C3221186   1.830   4.871   6.397  0.0044  0.2467 -0.8689
  185POPC   H2X21187   1.888   4.777   6.386  1.1034  0.9161 -0.9817
  185POPC   H2Y21188   1.889   4.965   6.410 -1.5170  1.1086  0.2150
  185POPC   C2321189   1.349   5.047   6.263  1.2067  0.1391  0.1609
  185POPC   H3R21190   1.457   5.052   6.239  0.8504  0.8691 -1.4220
  185POPC   H3S21191   1.316   5.136   6.321 -2.0395 -0.9945  0.2406
  185POPC   C2421192   1.256   5.057   6.144 -0.1158  0.1151  0.0432
  185POPC   H4R21193   1.267   5.163   6.115  1.7557 -0.0295  0.1524
  185POPC   H4S21194   1.147   5.049   6.166 -0.6939  3.0018 -1.3402
  185POPC   C2521195   1.295   4.974   6.020 -0.4998  0.2958  0.5160
  185POPC   H5R21196   1.281   4.865   6.035 -0.6995 -0.5556 -4.2055
  185POPC   H5S21197   1.398   4.999   5.985 -0.4863  0.6636  0.8158
  185POPC   C2621198   1.206   5.014   5.897 -1.3252  0.4271 -0.0533
  185POPC   H6R21199   1.229   5.120   5.871 -0.4382  0.7280  1.7747
  185POPC   H6S21200   1.098   5.011   5.924 -1.4352  1.7201 -0.2763
  185POPC   C2721201   1.246   4.927   5.782 -0.1516  0.6925 -0.4070
  185POPC   H7R21202   1.250   4.820   5.809  1.5300  1.3831  2.4480
  185POPC   H7S21203   1.347   4.954   5.746 -1.5979  1.8573 -4.1657
  185POPC   C2821204   1.142   4.941   5.664 -0.3358 -0.1429 -0.8521
  185POPC   H8R21205   1.137   5.044   5.622 -0.0177  1.0990  1.9259
  185POPC   H8S21206   1.044   4.928   5.715  1.2814  2.9869  3.7348
  185POPC   C2921207   1.181   4.826   5.567 -0.2828 -0.3079 -0.0500
  185POPC   H9121208   1.236   4.740   5.609 -0.6866  0.1420  1.4815
  185POPC  C21021209   1.150   4.828   5.434  0.7135  0.4000 -0.2050
  185POPC  H10121210   1.172   4.743   5.368  0.5732  1.8797 -2.2423
  185POPC  C21121211   1.086   4.950   5.368  0.8078  0.0372  0.3105
  185POPC  H11R21212   1.154   5.000   5.295  1.5468 -2.0280 -0.4694
  185POPC  H11S21213   1.043   5.015   5.447 -1.5724 -1.0600 -0.0106
  185POPC  C21221214   0.964   4.906   5.285  0.2619  0.1808 -0.3522
  185POPC  H12R21215   0.910   4.998   5.254  0.9247  0.4555 -0.7131
  185POPC  H12S21216   0.895   4.857   5.357 -0.1727  0.8938 -0.2768
  185POPC  C21321217   0.995   4.827   5.152  0.1776  0.3705  0.2498
  185POPC  H13R21218   0.903   4.768   5.134  0.0171  0.4969  0.6582
  185POPC  H13S21219   1.078   4.761   5.184 -2.1601 -2.3990  0.9916
  185POPC  C21421220   1.040   4.904   5.033 -0.3856 -0.1597  0.5521
  185POPC  H14R21221   1.073   4.833   4.954 -1.7059  0.5611 -0.6884
  185POPC  H14S21222   1.130   4.960   5.067  0.4791 -0.8749 -0.4899
  185POPC  C21521223   0.941   4.991   4.966 -0.5542 -0.5853  0.8396
  185POPC  H15R21224   1.000   5.049   4.892  1.0806 -0.5170  2.1324
  185POPC  H15S21225   0.900   5.071   5.032  2.1333  1.8039 -0.1391
  185POPC  C21621226   0.836   4.913   4.888 -0.0320  0.5869  0.2808
  185POPC  H16R21227   0.759   4.868   4.954  0.0869 -1.2667 -0.7742
  185POPC  H16S21228   0.882   4.826   4.838 -0.5217  0.3837  0.1766
  185POPC  C21721229   0.774   4.995   4.772  0.6624 -0.4720  0.3658
  185POPC  H17R21230   0.852   5.008   4.694 -0.8772  0.3592 -1.0827
  185POPC  H17S21231   0.731   5.090   4.809 -0.1591  0.3970 -2.5657
  185POPC  C21821232   0.660   4.927   4.695 -0.0746 -0.8467  0.1705
  185POPC  H18R21233   0.566   4.918   4.754 -1.0104  0.1795 -1.0853
  185POPC  H18S21234   0.684   4.826   4.657  1.5889 -0.8972  1.2465
  185POPC  H18T21235   0.631   4.986   4.605 -1.9507  0.4816  1.5441
  185POPC   C3321236   1.731   4.889   6.285  0.5170 -0.2340  0.5628
  185POPC   H3X21237   1.649   4.945   6.334 -1.8783 -2.2760 -0.8433
  185POPC   H3Y21238   1.676   4.793   6.269  1.6987 -1.0021  0.9642
  185POPC   C3421239   1.786   4.959   6.163 -0.1444 -0.6292 -0.3128
  185POPC   H4X21240   1.873   4.897   6.132  0.9470  1.0472 -0.7037
  185POPC   H4Y21241   1.832   5.055   6.193 -0.0307 -1.4559  2.4132
  185POPC   C3521242   1.693   4.970   6.046  0.1886 -0.3415  0.0007
  185POPC   H5X21243   1.604   5.027   6.078 -0.1589 -1.1465  0.5129
  185POPC   H5Y21244   1.664   4.865   6.021  0.3650  0.0877 -2.1894
  185POPC   C3621245   1.744   5.033   5.916  0.2085 -0.6562  0.3416
  185POPC   H6X21246   1.821   4.960   5.883  2.2787  1.0671  1.1518
  185POPC   H6Y21247   1.791   5.132   5.931 -2.0177  0.4717  0.4149
  185POPC   C3721248   1.636   5.045   5.808 -0.1320  0.1971 -0.5157
  185POPC   H7X21249   1.554   5.114   5.838 -1.0320 -1.0424 -0.0822
  185POPC   H7Y21250   1.600   4.940   5.808 -1.0557  0.4959  0.6135
  185POPC   C3821251   1.694   5.079   5.671 -0.0824 -0.4560  0.1808
  185POPC   H8X21252   1.767   5.003   5.636 -0.3757  0.2974 -2.2523
  185POPC   H8Y21253   1.749   5.175   5.674 -0.3201 -0.3496  1.3238
  185POPC   C3921254   1.582   5.103   5.562  0.4613  0.4989  0.4203
  185POPC   H9X21255   1.504   5.172   5.601  1.2974  0.9163  1.3862
  185POPC   H9Y21256   1.529   5.006   5.548  0.6231  0.5870 -0.9079
  185POPC  C31021257   1.632   5.145   5.429 -0.4362 -0.1400  0.7321
  185POPC  H10X21258   1.694   5.064   5.385 -0.8891 -0.5168  0.7864
  185POPC  H10Y21259   1.696   5.234   5.445  2.0713 -1.2379 -2.1735
  185POPC  C31121260   1.524   5.175   5.332  0.4095  0.2310  0.3504
  185POPC  H11X21261   1.487   5.277   5.353  0.2615  0.2937 -0.2008
  185POPC  H11Y21262   1.448   5.098   5.356  0.3606 -0.3097 -1.3983
  185POPC  C31221263   1.566   5.168   5.178 -0.2798  0.4680  0.1199
  185POPC  H12X21264   1.667   5.211   5.166 -0.2097  1.2341  2.7937
  185POPC  H12Y21265   1.500   5.238   5.122  0.0762  0.7163  0.0079
  185POPC  C31321266   1.553   5.031   5.107  0.8888 -0.0807  0.3067
  185POPC  H13X21267   1.447   4.998   5.099  0.0757  1.9200  2.0426
  185POPC  H13Y21268   1.611   4.947   5.151 -0.5167 -1.5817 -0.5636
  185POPC  C31421269   1.605   5.045   4.966  0.3505  0.6058 -0.4284
  185POPC  H14X21270   1.569   5.136   4.913  0.0351 -0.9536 -3.1026
  185POPC  H14Y21271   1.577   4.952   4.912  0.4761 -0.0276  0.5628
  185POPC  C31521272   1.761   5.044   4.975 -0.1225  0.3087  0.7809
  185POPC  H15X21273   1.800   4.991   5.065 -0.9157  0.9216  1.5067
  185POPC  H15Y21274   1.796   5.150   4.981  0.9611  0.0333 -0.2615
  185POPC  C31621275   1.822   4.981   4.841  0.3600  0.2797 -0.3864
  185POPC  H16X21276   1.798   5.047   4.755  0.3413 -1.6304 -1.9132
  185POPC  H16Y21277   1.770   4.887   4.813  0.6061  0.2278 -0.6768
  185POPC  H16Z21278   1.931   4.964   4.855 -0.2193 -2.3061  1.8943
  186POPC     N21279   3.837   3.044   7.250  0.0284 -0.3450  0.0977
  186POPC   C1221280   3.843   3.128   7.369 -0.3806  0.0601  0.4630
  186POPC  H12A21281   3.896   3.079   7.450 -0.3243 -1.9433 -0.7302
  186POPC  H12B21282   3.745   3.137   7.414 -0.4713 -0.8286  0.4519
  186POPC   C1321283   3.740   3.114   7.159  0.4036 -0.6185 -0.0835
  186POPC  H13A21284   3.636   3.104   7.186  0.7597 -0.6781  1.3597
  186POPC  H13B21285   3.761   3.219   7.149  0.7125 -0.7894 -1.3978
  186POPC  H13C21286   3.754   3.067   7.063 -2.0086 -0.4133 -0.6047
  186POPC   C1421287   3.969   3.041   7.174  0.8976  0.2857  0.5317
  186POPC  H14A21288   3.948   3.005   7.074  1.8356  0.0007  0.4349
  186POPC  H14B21289   4.026   3.132   7.181  0.7999  0.4723 -0.7570
  186POPC  H14C21290   4.032   2.960   7.207  2.4301  0.9053 -0.7571
  186POPC   C1521291   3.813   2.898   7.290  0.1369 -0.3421  0.0769
  186POPC  H15A21292   3.825   2.848   7.194 -0.4604  0.4776 -0.4379
  186POPC  H15B21293   3.718   2.873   7.333 -0.1164 -0.3081 -0.4529
  186POPC  H15C21294   3.890   2.869   7.359 -1.0797  0.7250  1.9451
  186POPC   C1121295   3.892   3.276   7.354  0.5482 -0.2006  0.0366
  186POPC  H11A21296   3.864   3.322   7.451 -0.5171 -2.0975  0.6848
  186POPC  H11B21297   3.833   3.329   7.276 -1.2471 -1.0145  0.7756
  186POPC     P21298   4.107   3.417   7.300  0.1574 -0.3263  0.4008
  186POPC   O1321299   4.245   3.376   7.266 -0.3680 -0.8328  0.4674
  186POPC   O1421300   4.096   3.513   7.415  0.1582  0.0515 -0.1380
  186POPC   O1221301   4.031   3.280   7.332 -0.2699  0.2408  0.2572
  186POPC   O1121302   4.041   3.477   7.163  0.1089  0.1276  0.4262
  186POPC    C121303   4.004   3.381   7.065  0.1312  0.4158 -0.4516
  186POPC    HA21304   3.904   3.404   7.024 -1.5418  0.5860  3.3185
  186POPC    HB21305   4.001   3.276   7.102 -2.6301  0.4622 -0.3544
  186POPC    C221306   4.107   3.380   6.949 -0.2623  0.3019  0.7499
  186POPC    HS21307   4.197   3.329   6.990  1.5760  0.4259 -2.7397
  186POPC   O2121308   4.132   3.517   6.913 -0.4129 -0.3335  0.2581
  186POPC   C2121309   4.222   3.520   6.810 -0.3676 -0.2177 -0.7435
  186POPC   O2221310   4.280   3.426   6.758  0.9365 -1.2071 -0.1039
  186POPC   C2221311   4.247   3.660   6.738 -0.0259 -0.1109  0.4688
  186POPC   H2R21312   4.356   3.671   6.724  0.1660 -0.0820  1.8640
  186POPC   H2S21313   4.208   3.749   6.792 -0.4974  0.2036 -0.3741
  186POPC    C321314   4.031   3.289   6.848 -0.5251  0.2604  0.6159
  186POPC    HX21315   3.989   3.206   6.908  0.0683  0.8798  1.9459
  186POPC    HY21316   4.106   3.260   6.771  0.0344  2.2154  0.3573
  186POPC   O3121317   3.919   3.356   6.779  0.2630 -0.4867 -0.1470
  186POPC   C3121318   3.836   3.273   6.715 -0.3833 -0.2375  0.1178
  186POPC   O3221319   3.819   3.154   6.739 -0.2396  0.7007 -0.2057
  186POPC   C3221320   3.774   3.352   6.600 -0.4643  0.3707 -0.1840
  186POPC   H2X21321   3.718   3.442   6.635 -1.4472 -0.1650 -0.3520
  186POPC   H2Y21322   3.694   3.288   6.558  1.0228 -0.4686 -1.9149
  186POPC   C2321323   4.176   3.657   6.601 -0.0699 -0.8300  0.2969
  186POPC   H3R21324   4.067   3.658   6.623  0.2124 -1.7228  1.8312
  186POPC   H3S21325   4.190   3.568   6.536  1.3286 -0.5907  0.2424
  186POPC   C2421326   4.211   3.780   6.512 -0.0588  0.6662  0.2377
  186POPC   H4R21327   4.206   3.874   6.572 -1.1028  1.5541 -1.1823
  186POPC   H4S21328   4.133   3.783   6.433  0.1684  1.5831  0.0329
  186POPC   C2521329   4.351   3.778   6.452  0.1373  0.5718  0.5054
  186POPC   H5R21330   4.371   3.671   6.432  0.0200  0.8213 -1.0620
  186POPC   H5S21331   4.416   3.827   6.528  0.6751  1.7213 -0.6419
  186POPC   C2621332   4.354   3.839   6.319 -0.9706  0.2328  0.7211
  186POPC   H6R21333   4.293   3.783   6.245  0.2995 -1.4460  0.9079
  186POPC   H6S21334   4.458   3.823   6.283 -1.6327  0.0846 -1.2565
  186POPC   C2721335   4.319   3.988   6.302  0.3761 -0.3052 -0.1983
  186POPC   H7R21336   4.375   4.058   6.368  0.1327  0.7822 -1.1254
  186POPC   H7S21337   4.219   3.974   6.348 -0.7841 -1.6811 -2.9326
  186POPC   C2821338   4.327   4.043   6.160  0.6114  0.2818  0.1367
  186POPC   H8R21339   4.286   4.146   6.149 -0.2377 -0.0161  0.4021
  186POPC   H8S21340   4.254   3.980   6.105  1.1143  0.1949 -0.4407
  186POPC   C2921341   4.457   4.014   6.096 -0.4470 -0.6488  0.0742
  186POPC   H9121342   4.540   4.005   6.168 -0.1950 -1.9436 -0.3647
  186POPC  C21021343   4.490   4.030   5.968  0.1747  1.1501 -0.1134
  186POPC  H10121344   4.596   4.016   5.940 -0.2521 -1.1368 -0.7642
  186POPC  C21121345   4.397   4.074   5.856 -0.0240  0.4559 -0.0822
  186POPC  H11R21346   4.293   4.080   5.895 -0.1715 -0.6296 -0.2772
  186POPC  H11S21347   4.397   4.011   5.764 -1.2723 -1.0279  0.8740
  186POPC  C21221348   4.419   4.226   5.823 -0.6681 -0.2350 -0.2432
  186POPC  H12R21349   4.525   4.258   5.819 -0.4497 -0.8452  0.3213
  186POPC  H12S21350   4.373   4.289   5.902  1.0820 -0.0748  0.7125
  186POPC  C21321351   4.357   4.262   5.685  0.3948  0.2868  0.4856
  186POPC  H13R21352   4.253   4.222   5.678 -0.4053  2.3793 -0.2997
  186POPC  H13S21353   4.423   4.231   5.601 -0.7290  1.0615 -0.7279
  186POPC  C21421354   4.338   4.420   5.678 -0.7454 -0.1234 -0.3547
  186POPC  H14R21355   4.438   4.460   5.654 -1.5469  1.5480 -1.0423
  186POPC  H14S21356   4.325   4.471   5.776  3.4188  1.8481 -0.6153
  186POPC  C21521357   4.226   4.464   5.582 -0.5095  0.8959  0.0391
  186POPC  H15R21358   4.145   4.400   5.624  0.9753 -0.9231  0.2719
  186POPC  H15S21359   4.246   4.426   5.479 -0.5147 -1.9178  0.9770
  186POPC  C21621360   4.207   4.610   5.576 -0.4842 -0.0034 -0.1763
  186POPC  H16R21361   4.288   4.653   5.514 -0.1735  0.1545  0.3373
  186POPC  H16S21362   4.207   4.662   5.674  2.4461  1.5391 -0.8903
  186POPC  C21721363   4.064   4.655   5.531  0.0715  0.2592  0.4829
  186POPC  H17R21364   4.057   4.766   5.522  1.8586  0.2984 -0.9832
  186POPC  H17S21365   3.983   4.609   5.592 -0.5137 -0.5945 -0.8739
  186POPC  C21821366   4.022   4.596   5.390  1.1472  0.1946 -0.1908
  186POPC  H18R21367   3.912   4.609   5.375  0.8710  1.1606  2.1707
  186POPC  H18S21368   4.033   4.485   5.393  2.7370  0.3159 -0.6512
  186POPC  H18T21369   4.077   4.647   5.309 -0.8378 -0.7982 -2.2790
  186POPC   C3321370   3.885   3.391   6.496  0.2107 -0.8885 -0.1373
  186POPC   H3X21371   3.940   3.304   6.453  2.1942  0.6108 -0.8075
  186POPC   H3Y21372   3.956   3.463   6.543 -0.9474  0.3188 -0.1683
  186POPC   C3421373   3.814   3.461   6.375  0.0648 -0.3312  0.9866
  186POPC   H4X21374   3.760   3.554   6.404 -0.0081 -0.1831  0.3852
  186POPC   H4Y21375   3.731   3.395   6.341 -2.8905  2.2431  2.6796
  186POPC   C3521376   3.921   3.486   6.259 -0.0253  0.7772 -0.0011
  186POPC   H5X21377   3.954   3.386   6.223  0.3349  1.6690 -2.3345
  186POPC   H5Y21378   4.009   3.541   6.298  2.1365 -1.9301 -0.6865
  186POPC   C3621379   3.841   3.551   6.145 -0.4263  0.1778 -0.6091
  186POPC   H6X21380   3.817   3.656   6.169 -0.4365  0.1209 -0.3717
  186POPC   H6Y21381   3.750   3.497   6.111 -1.0313  1.0980 -0.4787
  186POPC   C3721382   3.938   3.556   6.023 -0.3738 -0.3627  0.0094
  186POPC   H7X21383   3.993   3.460   6.009 -1.7155 -1.1745  0.1594
  186POPC   H7Y21384   4.009   3.639   6.043 -1.5182 -0.0487  3.4029
  186POPC   C3821385   3.865   3.587   5.896 -0.1833  0.0285 -0.8596
  186POPC   H8X21386   3.784   3.662   5.907  0.1959  0.4298 -0.8148
  186POPC   H8Y21387   3.821   3.488   5.873  0.6388 -0.7589  0.7588
  186POPC   C3921388   3.961   3.604   5.774  0.1970 -0.7626 -0.1901
  186POPC   H9X21389   4.056   3.552   5.799  0.5959  0.3832  0.8017
  186POPC   H9Y21390   4.000   3.707   5.756 -0.3802 -0.4368  0.3853
  186POPC  C31021391   3.896   3.551   5.649  0.8006 -0.2962  0.0136
  186POPC  H10X21392   3.803   3.605   5.621 -0.9533 -1.9062  2.3578
  186POPC  H10Y21393   3.859   3.448   5.668  1.1118 -0.5290 -0.5801
  186POPC  C31121394   4.002   3.536   5.549 -0.3765 -0.6972 -0.1652
  186POPC  H11X21395   4.085   3.477   5.593 -1.4106 -1.3495  0.9892
  186POPC  H11Y21396   4.036   3.639   5.527 -0.1209 -0.4960  1.0790
  186POPC  C31221397   3.961   3.463   5.421  0.8123  0.5613  1.6487
  186POPC  H12X21398   3.883   3.526   5.375  1.5771  0.6221  0.3962
  186POPC  H12Y21399   3.925   3.362   5.449  1.6403  0.0634  0.9670
  186POPC  C31321400   4.068   3.434   5.317  0.2821  0.7558 -0.1346
  186POPC  H13X21401   4.044   3.357   5.241  3.8739 -1.5535  0.8168
  186POPC  H13Y21402   4.147   3.380   5.374 -1.8912 -1.7565  0.7041
  186POPC  C31421403   4.120   3.559   5.257 -0.8136  0.0269  0.4530
  186POPC  H14X21404   4.138   3.628   5.342 -1.3620 -0.1455  0.7150
  186POPC  H14Y21405   4.041   3.600   5.190 -1.3545  1.9441  2.1352
  186POPC  C31521406   4.246   3.532   5.169 -0.2895 -0.4051  0.2319
  186POPC  H15X21407   4.247   3.613   5.093 -0.3705  0.7734  1.4610
  186POPC  H15Y21408   4.222   3.441   5.110 -2.4593 -1.0505  1.9830
  186POPC  C31621409   4.384   3.517   5.226  0.0470  0.4028 -0.4929
  186POPC  H16X21410   4.378   3.444   5.310 -1.3938  1.3746  0.2830
  186POPC  H16Y21411   4.412   3.612   5.275 -1.6077  0.7388 -0.1417
  186POPC  H16Z21412   4.460   3.488   5.150  0.3756  0.0274 -0.0266
  187POPC     N21413   1.748   4.502   2.221  0.0447 -0.1732  0.2740
  187POPC   C1221414   1.709   4.623   2.139  0.7972  0.0361  0.2356
  187POPC  H12A21415   1.636   4.589   2.068  0.0313  0.0658  0.9980
  187POPC  H12B21416   1.796   4.664   2.089  0.2962 -0.5634 -1.1602
  187POPC   C1321417   1.633   4.423   2.281 -0.8201 -0.2997  0.0268
  187POPC  H13A21418   1.582   4.490   2.350  2.1015  2.1278  0.0443
  187POPC  H13B21419   1.565   4.405   2.200 -1.9549  1.4012  0.5256
  187POPC  H13C21420   1.663   4.329   2.323 -0.8813 -1.2785 -2.0354
  187POPC   C1421421   1.824   4.410   2.136 -0.0669 -0.5939 -0.6338
  187POPC  H14A21422   1.768   4.387   2.046 -1.1366  0.4081 -0.2444
  187POPC  H14B21423   1.924   4.449   2.124 -0.0298 -0.4107  0.1994
  187POPC  H14C21424   1.843   4.312   2.178  3.0175 -0.0463 -0.5603
  187POPC   C1521425   1.840   4.539   2.338 -0.2067  0.2953  0.3103
  187POPC  H15A21426   1.933   4.585   2.308 -0.6793  2.1111  1.4837
  187POPC  H15B21427   1.862   4.448   2.392 -0.1071  0.4073  0.4603
  187POPC  H15C21428   1.791   4.612   2.400 -0.1830 -0.0377  0.7329
  187POPC   C1121429   1.638   4.745   2.208 -0.0420 -0.2022 -0.6852
  187POPC  H11A21430   1.684   4.831   2.153  0.1242  0.1557 -0.0013
  187POPC  H11B21431   1.680   4.744   2.311  1.4304 -2.9829 -1.2119
  187POPC     P21432   1.402   4.784   2.303  0.5775  0.1479  0.1035
  187POPC   O1321433   1.265   4.753   2.277  0.1993 -0.0818  0.6118
  187POPC   O1421434   1.433   4.923   2.336  0.4426 -0.1235 -0.2949
  187POPC   O1221435   1.500   4.733   2.190 -0.5118 -0.3915  0.5603
  187POPC   O1121436   1.449   4.686   2.420  0.0951  0.2713  0.4711
  187POPC    C121437   1.362   4.603   2.498  0.8230  0.2799 -0.1828
  187POPC    HA21438   1.418   4.530   2.561  0.3214  2.2981  2.8263
  187POPC    HB21439   1.292   4.555   2.426 -0.0981  0.8005  0.3437
  187POPC    C221440   1.262   4.671   2.590  0.1096  0.4279 -0.6654
  187POPC    HS21441   1.204   4.735   2.521 -0.0600  0.8017 -0.1789
  187POPC   O2121442   1.339   4.734   2.691 -0.5053 -0.1287 -0.3207
  187POPC   C2121443   1.352   4.872   2.695  0.0290  0.8621 -1.0628
  187POPC   O2221444   1.295   4.952   2.627  0.1678 -0.1436  0.3324
  187POPC   C2221445   1.463   4.906   2.803 -0.0206  0.3834 -0.0307
  187POPC   H2R21446   1.524   4.980   2.747 -1.7466  0.3569 -2.0964
  187POPC   H2S21447   1.538   4.824   2.810  0.6677  1.0533  0.6051
  187POPC    C321448   1.158   4.573   2.660  0.4224  0.1549  0.2541
  187POPC    HX21449   1.200   4.470   2.662  1.5711  0.6242  1.7459
  187POPC    HY21450   1.066   4.566   2.597  0.4906 -0.6727  0.2278
  187POPC   O3121451   1.126   4.616   2.791  0.6553 -0.4639  0.0369
  187POPC   C3121452   1.051   4.542   2.868  0.8923  0.6722  0.1789
  187POPC   O3221453   1.009   4.429   2.842  0.0501 -0.2200  0.4332
  187POPC   C3221454   1.025   4.629   2.997 -0.3629  0.1031 -0.1621
  187POPC   H2X21455   0.996   4.733   2.971  2.0298  1.0720  0.7658
  187POPC   H2Y21456   1.127   4.649   3.036  0.0355  1.3009 -1.7102
  187POPC   C2321457   1.411   4.962   2.945 -0.2270 -0.3438 -0.0428
  187POPC   H3R21458   1.372   5.065   2.932 -2.3111 -1.1401 -0.5298
  187POPC   H3S21459   1.506   4.970   3.001 -0.3965  2.8886 -0.0238
  187POPC   C2421460   1.309   4.876   3.016  0.3060  1.0624  0.4107
  187POPC   H4R21461   1.329   4.769   2.993 -0.9166  0.5816  1.4235
  187POPC   H4S21462   1.207   4.892   2.974 -0.5845 -0.4404  1.8477
  187POPC   C2521463   1.321   4.902   3.165 -0.5698  0.3997 -0.8155
  187POPC   H5R21464   1.321   5.012   3.178  0.0865  0.4347 -1.0405
  187POPC   H5S21465   1.421   4.865   3.199 -1.7296 -0.2528  2.2429
  187POPC   C2621466   1.203   4.832   3.241 -0.3898  0.0327  0.5742
  187POPC   H6R21467   1.201   4.726   3.208  1.0616  0.1352  0.0660
  187POPC   H6S21468   1.116   4.892   3.204  1.1868  2.0086 -0.1649
  187POPC   C2721469   1.214   4.835   3.391  0.8047 -0.4298  1.0578
  187POPC   H7R21470   1.301   4.769   3.412  0.4922 -0.4789  2.3011
  187POPC   H7S21471   1.123   4.787   3.434 -0.3156  0.7658  0.1321
  187POPC   C2821472   1.239   4.979   3.443 -0.6716  0.0370 -0.2556
  187POPC   H8R21473   1.163   5.052   3.407 -1.5321 -1.1213 -0.8370
  187POPC   H8S21474   1.338   5.011   3.402 -0.9804  2.3392  0.6490
  187POPC   C2921475   1.247   4.980   3.595 -0.0397  0.0666  0.7071
  187POPC   H9121476   1.346   5.004   3.637  0.3822 -1.2286  0.4799
  187POPC  C21021477   1.144   4.967   3.677  0.1344 -0.2201  0.1090
  187POPC  H10121478   1.159   4.973   3.786  0.6317  1.5987 -0.0358
  187POPC  C21121479   0.997   4.953   3.646 -0.1491 -0.1196  0.0597
  187POPC  H11R21480   0.981   4.926   3.540 -2.7066 -1.1203  0.6307
  187POPC  H11S21481   0.940   5.048   3.655  0.8288  0.4951 -0.0094
  187POPC  C21221482   0.923   4.851   3.737 -0.1922 -0.2471 -0.0878
  187POPC  H12R21483   0.983   4.757   3.734 -0.0217 -0.1884  0.9825
  187POPC  H12S21484   0.828   4.833   3.684 -0.4921 -1.5262  0.8342
  187POPC  C21321485   0.885   4.911   3.872  0.5825  0.7958  0.7238
  187POPC  H13R21486   0.836   5.009   3.856 -0.1233  0.5219  1.2013
  187POPC  H13S21487   0.980   4.921   3.928  2.5067  1.7356 -2.4074
  187POPC  C21421488   0.778   4.836   3.946  0.7618 -0.3339  0.3420
  187POPC  H14R21489   0.820   4.744   3.995  0.6382 -0.7885 -0.3980
  187POPC  H14S21490   0.705   4.800   3.871 -0.0569  0.1782  0.8867
  187POPC  C21521491   0.712   4.930   4.052 -0.3550  0.4356 -0.4094
  187POPC  H15R21492   0.664   5.017   4.002  0.6335  1.9060  1.0982
  187POPC  H15S21493   0.791   4.980   4.113  0.1625 -1.4844  0.5468
  187POPC  C21621494   0.615   4.851   4.146  0.4429  0.0645  0.1792
  187POPC  H16R21495   0.675   4.760   4.166  2.8923  1.7919  1.1083
  187POPC  H16S21496   0.523   4.821   4.092  0.4707 -1.7238  1.0584
  187POPC  C21721497   0.587   4.928   4.278  0.3269 -0.2022 -0.2784
  187POPC  H17R21498   0.553   5.027   4.239  3.7190  1.4357  0.5295
  187POPC  H17S21499   0.670   4.939   4.351 -1.3331  1.9568  1.4625
  187POPC  C21821500   0.471   4.857   4.360  0.2263 -0.2605  0.6890
  187POPC  H18R21501   0.515   4.760   4.390  1.4473 -0.0480 -0.3489
  187POPC  H18S21502   0.386   4.832   4.294 -1.1737 -1.9191  2.9566
  187POPC  H18T21503   0.443   4.912   4.453 -1.1103  1.3101 -0.5686
  187POPC   C3321504   0.938   4.548   3.096 -0.3305 -0.0454 -0.0427
  187POPC   H3X21505   0.994   4.457   3.128  2.5775  1.7639  0.4610
  187POPC   H3Y21506   0.850   4.509   3.042  2.0930 -1.3060 -3.4182
  187POPC   C3421507   0.900   4.611   3.226 -0.6986  0.0431  0.6750
  187POPC   H4X21508   0.849   4.709   3.211 -0.5985 -0.0659 -0.4910
  187POPC   H4Y21509   0.997   4.637   3.273  0.6575 -1.0579 -1.3923
  187POPC   C3521510   0.818   4.526   3.317 -0.2310  0.1648  0.3570
  187POPC   H5X21511   0.859   4.424   3.299  1.1354  0.9702 -1.4555
  187POPC   H5Y21512   0.710   4.522   3.291  0.1958  1.5712 -1.8778
  187POPC   C3621513   0.834   4.572   3.464  0.2695 -0.4824  0.4524
  187POPC   H6X21514   0.793   4.675   3.457  0.0925 -0.6201 -0.5749
  187POPC   H6Y21515   0.944   4.586   3.475  0.1910  0.5536  0.0170
  187POPC   C3721516   0.748   4.493   3.553  0.7868 -0.2648  0.0060
  187POPC   H7X21517   0.783   4.391   3.579  1.1050 -0.3909 -0.8793
  187POPC   H7Y21518   0.645   4.478   3.515  0.7179 -0.1128  0.1295
  187POPC   C3821519   0.716   4.555   3.689  0.3839  0.6245 -0.2965
  187POPC   H8X21520   0.680   4.658   3.668  0.9156  0.4798 -2.1181
  187POPC   H8Y21521   0.810   4.577   3.743  2.7768 -0.9214 -3.4981
  187POPC   C3921522   0.619   4.471   3.769  0.0668 -0.3621  0.5599
  187POPC   H9X21523   0.682   4.394   3.820 -1.5200 -0.4468  2.4935
  187POPC   H9Y21524   0.547   4.409   3.712 -0.4177  0.9280 -0.2771
  187POPC  C31021525   0.552   4.550   3.878  0.4479 -0.7504  0.3262
  187POPC  H10X21526   0.501   4.639   3.835  0.0963  0.1428  2.4268
  187POPC  H10Y21527   0.619   4.593   3.955 -0.8998 -1.1201  1.7738
  187POPC  C31121528   0.438   4.476   3.956  0.0604 -0.1225  0.3243
  187POPC  H11X21529   0.479   4.373   3.970  1.1286  0.0761 -1.1438
  187POPC  H11Y21530   0.344   4.452   3.902  0.0330 -1.1990  0.8175
  187POPC  C31221531   0.418   4.534   4.089  0.0171  0.0052 -0.2019
  187POPC  H12X21532   0.376   4.637   4.086 -1.0078 -0.3484  1.1154
  187POPC  H12Y21533   0.506   4.527   4.157  0.4274  1.1019 -0.5973
  187POPC  C31321534   0.309   4.456   4.159  0.0859 -0.1132 -0.3850
  187POPC  H13X21535   0.320   4.345   4.159 -1.4163 -0.2964 -1.3377
  187POPC  H13Y21536   0.209   4.472   4.113  0.5151 -0.8796 -1.6184
  187POPC  C31421537   0.310   4.498   4.305 -0.9478  0.3497 -0.0053
  187POPC  H14X21538   0.282   4.606   4.313 -2.0715  0.1888 -1.3969
  187POPC  H14Y21539   0.411   4.488   4.350 -1.0330  0.0588  0.1240
  187POPC  C31521540   0.209   4.422   4.394  0.7227 -1.1644  0.2129
  187POPC  H15X21541   0.195   4.317   4.360  3.1090 -2.2233  2.1993
  187POPC  H15Y21542   0.119   4.471   4.352  0.4506 -0.1725  1.8747
  187POPC  C31621543   0.226   4.439   4.544 -0.1871 -0.2411 -0.8867
  187POPC  H16X21544   0.129   4.419   4.594 -0.8678 -1.1111 -2.4982
  187POPC  H16Y21545   0.251   4.547   4.552  1.1325 -0.5366 -0.7693
  187POPC  H16Z21546   0.310   4.380   4.586 -0.3551 -0.4729 -0.8774
  188POPC     N21547   0.673   2.779   2.536  0.3072  0.0186 -0.2505
  188POPC   C1221548   0.705   2.813   2.389  0.4330  0.0344 -0.1326
  188POPC  H12A21549   0.621   2.781   2.330  0.8547 -0.7765 -0.3063
  188POPC  H12B21550   0.796   2.763   2.359  0.5035  0.3446 -0.4385
  188POPC   C1321551   0.644   2.630   2.551  0.7401  0.4315 -0.3593
  188POPC  H13A21552   0.736   2.579   2.527  1.5400  1.3608  0.5824
  188POPC  H13B21553   0.612   2.597   2.649  0.7500  0.2035 -0.4323
  188POPC  H13C21554   0.566   2.609   2.480  1.0216  0.1341 -0.5829
  188POPC   C1421555   0.786   2.817   2.631 -0.6160  0.4867 -0.6190
  188POPC  H14A21556   0.806   2.923   2.633  2.3981  0.0170 -0.3664
  188POPC  H14B21557   0.761   2.789   2.732  2.2027  1.8902  0.6033
  188POPC  H14C21558   0.879   2.767   2.604 -1.1097  0.8695 -3.3908
  188POPC   C1521559   0.548   2.849   2.575  0.6108 -0.2786 -0.1083
  188POPC  H15A21560   0.461   2.809   2.526  0.2033  2.4277 -1.8048
  188POPC  H15B21561   0.564   2.955   2.557  1.0847 -0.1233  1.1800
  188POPC  H15C21562   0.513   2.836   2.676 -0.4735 -0.6343 -0.5152
  188POPC   C1121563   0.744   2.967   2.356  0.5150  0.0547 -0.9049
  188POPC  H11A21564   0.755   2.987   2.247  0.2134 -1.0827 -1.1551
  188POPC  H11B21565   0.844   2.966   2.405  0.6873  0.4043 -1.2395
  188POPC     P21566   0.715   3.208   2.423 -0.0471 -0.1131 -0.1882
  188POPC   O1321567   0.659   3.278   2.309 -0.1375 -0.1094  0.4804
  188POPC   O1421568   0.863   3.201   2.433  0.0945  0.4087  0.2762
  188POPC   O1221569   0.662   3.063   2.421  0.1705 -0.1608  0.4239
  188POPC   O1121570   0.665   3.280   2.552  0.3381 -0.1204 -0.0335
  188POPC    C121571   0.603   3.211   2.662 -0.4234  0.1334 -0.1321
  188POPC    HA21572   0.648   3.112   2.681  1.3675  0.8288 -0.5919
  188POPC    HB21573   0.498   3.196   2.629 -0.2678  1.3081 -1.2397
  188POPC    C221574   0.618   3.293   2.793  0.4843  0.7415  0.1270
  188POPC    HS21575   0.559   3.384   2.771 -1.7159 -0.1723  1.8909
  188POPC   O2121576   0.761   3.303   2.817  0.0244 -0.4234  0.0516
  188POPC   C2121577   0.797   3.430   2.791  1.3666 -0.3799 -0.5733
  188POPC   O2221578   0.730   3.532   2.778  0.2752  0.1244  0.3156
  188POPC   C2221579   0.950   3.433   2.791  0.0388  0.4129 -0.0335
  188POPC   H2R21580   0.966   3.439   2.681 -0.7162 -3.6461 -0.5051
  188POPC   H2S21581   0.981   3.329   2.815  2.5745  0.5964 -2.0940
  188POPC    C321582   0.546   3.227   2.920 -0.1483 -0.4126 -0.6137
  188POPC    HX21583   0.584   3.123   2.935 -0.4756 -0.7600 -2.0842
  188POPC    HY21584   0.442   3.220   2.881  0.0069  1.2518 -1.4145
  188POPC   O3121585   0.566   3.309   3.036  0.0352 -0.8694 -0.1402
  188POPC   C3121586   0.514   3.430   3.051 -1.2507 -0.8297  0.6788
  188POPC   O3221587   0.437   3.485   2.972 -0.4633  0.0424  0.0132
  188POPC   C3221588   0.568   3.488   3.181 -0.2130 -0.8329  0.0126
  188POPC   H2X21589   0.673   3.521   3.166 -0.2497 -0.4529  0.5554
  188POPC   H2Y21590   0.565   3.415   3.264 -2.6739 -0.6068  0.1952
  188POPC   C2321591   1.015   3.538   2.877 -0.4859  0.2064  0.8765
  188POPC   H3R21592   0.977   3.633   2.832 -1.5552 -0.8684 -0.5839
  188POPC   H3S21593   1.122   3.511   2.872 -0.7865 -0.7805 -1.6747
  188POPC   C2421594   0.964   3.509   3.021  0.1532  0.0090 -0.1310
  188POPC   H4R21595   0.998   3.410   3.055  1.6118 -0.0511 -1.6293
  188POPC   H4S21596   0.853   3.518   3.015  0.1991  0.5329 -0.2460
  188POPC   C2521597   1.025   3.613   3.109  0.1055  0.4422  0.2739
  188POPC   H5R21598   0.988   3.707   3.061 -1.4525  0.2529  1.0366
  188POPC   H5S21599   1.135   3.604   3.107  0.0761  0.1482 -0.2706
  188POPC   C2621600   0.977   3.592   3.253  0.3282 -0.2701 -0.6717
  188POPC   H6R21601   0.986   3.487   3.286 -0.4556  0.1911  1.1723
  188POPC   H6S21602   0.873   3.628   3.266  0.4123 -0.0816 -0.5177
  188POPC   C2721603   1.072   3.671   3.347 -0.2428  0.1163  0.4763
  188POPC   H7R21604   1.076   3.781   3.336  2.5904  0.0490  0.1294
  188POPC   H7S21605   1.177   3.637   3.331 -0.4221 -0.2294 -0.0103
  188POPC   C2821606   1.063   3.629   3.486 -0.2147  0.1257 -0.3198
  188POPC   H8R21607   1.147   3.669   3.547 -0.2289  0.4500 -0.5117
  188POPC   H8S21608   1.086   3.521   3.481 -0.9044 -0.0465  0.0543
  188POPC   C2921609   0.933   3.635   3.561 -0.2937 -0.0091 -0.2396
  188POPC   H9121610   0.845   3.623   3.495 -0.5527  2.7021 -0.5048
  188POPC  C21021611   0.920   3.643   3.694  0.8874 -0.2734 -0.4141
  188POPC  H10121612   0.818   3.654   3.733  0.7757  0.5427 -0.9231
  188POPC  C21121613   1.035   3.650   3.795  0.7163  0.2527 -0.2920
  188POPC  H11R21614   1.116   3.707   3.745 -1.0795  1.5992 -1.7825
  188POPC  H11S21615   1.088   3.554   3.812  0.3551  0.0724 -0.1670
  188POPC  C21221616   1.011   3.733   3.923 -0.4819 -0.1196 -0.1819
  188POPC  H12R21617   0.998   3.841   3.901  1.1066  0.2735  0.6863
  188POPC  H12S21618   1.104   3.713   3.979 -0.7214 -2.1898 -0.4482
  188POPC  C21321619   0.895   3.683   4.008 -0.6724 -0.1414  0.4200
  188POPC  H13R21620   0.923   3.576   4.022 -0.6996 -0.0194  1.5102
  188POPC  H13S21621   0.800   3.689   3.950  0.5822 -1.1263 -1.8856
  188POPC  C21421622   0.873   3.747   4.142  0.7921  0.0938 -1.1101
  188POPC  H14R21623   0.781   3.700   4.184  0.8223 -0.1157 -1.2752
  188POPC  H14S21624   0.869   3.856   4.124  2.9571  0.2770 -0.6949
  188POPC  C21521625   0.979   3.730   4.249  0.3142 -0.2249 -0.9373
  188POPC  H15R21626   1.071   3.757   4.192  0.4071  0.6900 -0.3627
  188POPC  H15S21627   0.989   3.626   4.285 -2.5603  0.7053  3.2540
  188POPC  C21621628   0.955   3.809   4.382 -0.5312  0.2256  0.4166
  188POPC  H16R21629   0.947   3.918   4.363 -1.6111 -0.0594 -0.8846
  188POPC  H16S21630   1.048   3.796   4.441  0.0698  2.2433  0.0160
  188POPC  C21721631   0.826   3.775   4.467 -0.0564  0.3603  0.3234
  188POPC  H17R21632   0.853   3.684   4.525  0.9300 -0.9035 -1.9577
  188POPC  H17S21633   0.742   3.742   4.402 -1.0462  0.8751  1.3112
  188POPC  C21821634   0.780   3.883   4.562 -0.3074 -0.2712 -1.0061
  188POPC  H18R21635   0.850   3.897   4.646 -1.3142 -0.8584 -0.0433
  188POPC  H18S21636   0.685   3.852   4.610  1.0289  0.6813  2.5522
  188POPC  H18T21637   0.768   3.979   4.507  2.9869 -0.3328 -2.0686
  188POPC   C3321638   0.502   3.620   3.214  0.8847 -0.6237 -0.1483
  188POPC   H3X21639   0.394   3.608   3.235  1.0216  0.0335  1.0327
  188POPC   H3Y21640   0.510   3.692   3.130 -1.7659 -0.0326  0.0093
  188POPC   C3421641   0.555   3.700   3.331 -0.0552  0.1947  0.0430
  188POPC   H4X21642   0.507   3.800   3.331  0.5167  0.4803  0.6361
  188POPC   H4Y21643   0.661   3.725   3.308 -0.9053  2.8013 -1.4737
  188POPC   C3521644   0.516   3.625   3.460 -0.3276  0.0517  0.4767
  188POPC   H5X21645   0.578   3.535   3.482 -1.7260 -0.9349  0.5475
  188POPC   H5Y21646   0.414   3.582   3.452  0.0134 -0.7639  0.4183
  188POPC   C3621647   0.521   3.712   3.588 -0.2764 -0.1905 -1.2624
  188POPC   H6X21648   0.458   3.803   3.584 -2.1806 -1.1587  2.5269
  188POPC   H6Y21649   0.625   3.750   3.597 -0.4982  0.3712 -1.0948
  188POPC   C3721650   0.465   3.629   3.700 -0.1088 -0.2400 -0.0988
  188POPC   H7X21651   0.519   3.532   3.696  0.5664 -0.0582  2.5690
  188POPC   H7Y21652   0.356   3.624   3.685  0.1224 -2.8048 -1.4999
  188POPC   C3821653   0.494   3.695   3.834 -0.3381  0.0995 -0.4298
  188POPC   H8X21654   0.466   3.803   3.835  0.7093  0.4536  2.4662
  188POPC   H8Y21655   0.602   3.697   3.862 -0.1678 -1.6414 -0.8652
  188POPC   C3921656   0.405   3.640   3.948 -0.0238  0.1837 -0.3456
  188POPC   H9X21657   0.429   3.534   3.968  1.4961  0.8299  1.4950
  188POPC   H9Y21658   0.297   3.647   3.922  0.0886 -0.4846 -1.0253
  188POPC  C31021659   0.441   3.698   4.084 -0.2127 -0.5990 -0.4811
  188POPC  H10X21660   0.411   3.805   4.091 -0.4264 -0.7376  1.4422
  188POPC  H10Y21661   0.549   3.692   4.108  0.1766  1.8216 -1.3575
  188POPC  C31121662   0.356   3.633   4.202  0.1212  0.4699 -0.0819
  188POPC  H11X21663   0.364   3.524   4.178 -3.1115 -0.2231  1.4731
  188POPC  H11Y21664   0.253   3.674   4.198  0.5946  1.6274 -1.0036
  188POPC  C31221665   0.418   3.656   4.341  0.6884  0.0365 -0.0208
  188POPC  H12X21666   0.401   3.764   4.360 -0.4830 -0.0717 -0.3577
  188POPC  H12Y21667   0.526   3.632   4.339  1.2940  2.3891  0.9034
  188POPC  C31321668   0.353   3.574   4.457  0.0630 -0.4775 -0.2383
  188POPC  H13X21669   0.373   3.614   4.559  0.1867  0.4158 -0.5977
  188POPC  H13Y21670   0.399   3.473   4.451 -0.7228 -0.8629  0.1833
  188POPC  C31421671   0.201   3.559   4.445 -0.0414 -0.2774 -0.4745
  188POPC  H14X21672   0.155   3.518   4.353  1.7998 -1.0047 -1.1305
  188POPC  H14Y21673   0.154   3.659   4.442  0.8514  0.2272  0.9941
  188POPC  C31521674   0.143   3.498   4.577 -0.2897  0.3394 -0.4982
  188POPC  H15X21675   0.034   3.514   4.586 -0.6236 -1.4155 -0.9324
  188POPC  H15Y21676   0.202   3.545   4.659  0.9670  1.6007 -2.0642
  188POPC  C31621677   0.159   3.342   4.587  0.1310 -0.4331  0.4164
  188POPC  H16X21678   0.119   3.292   4.677  1.3399 -2.4658 -0.1144
  188POPC  H16Y21679   0.266   3.316   4.572  0.0332 -1.0639  0.7820
  188POPC  H16Z21680   0.100   3.304   4.501 -2.5636  1.6341  1.2051
  189SAPI   C1221681   2.620   4.551   7.617  0.4286  0.3042 -0.9230
  189SAPI    H221682   2.641   4.606   7.522 -2.2804 -0.5129 -2.0887
  189SAPI    O221683   2.504   4.606   7.678  0.1901  0.4529  0.7679
  189SAPI   HO221684   2.537   4.662   7.749  1.7327  1.2448 -0.4923
  189SAPI   C1321685   2.604   4.404   7.574 -0.4507  0.5847  0.4609
  189SAPI    H321686   2.702   4.358   7.547 -1.2374 -2.4532  2.2738
  189SAPI    O321687   2.517   4.395   7.467 -0.0926 -0.6635  0.1682
  189SAPI   HO321688   2.520   4.307   7.429  0.5301 -1.5125  2.0685
  189SAPI   C1421689   2.553   4.321   7.692  0.0289 -0.1376  0.2543
  189SAPI    H421690   2.453   4.363   7.717  2.2259  3.7034  3.9680
  189SAPI    O421691   2.547   4.181   7.659  0.0437  0.2175 -0.8817
  189SAPI   HO421692   2.464   4.171   7.613 -0.4265  2.0807 -0.4975
  189SAPI   C1521693   2.630   4.333   7.824 -0.0181 -0.3963 -0.0126
  189SAPI    H521694   2.722   4.275   7.805  0.6103  0.2906  0.8720
  189SAPI    O521695   2.564   4.282   7.942 -0.0125  0.1114 -0.1378
  189SAPI   HO521696   2.560   4.186   7.943 -0.8125  0.1097 -1.3220
  189SAPI   C1621697   2.695   4.478   7.846 -0.6925  0.8427 -0.6865
  189SAPI    H621698   2.631   4.544   7.908  1.0767  0.9489  1.1308
  189SAPI    O621699   2.809   4.467   7.923 -0.1400 -0.3116  0.4305
  189SAPI   HO621700   2.828   4.555   7.957  1.3549 -0.5383  0.2442
  189SAPI   C1121701   2.733   4.551   7.725  0.1398  0.8748 -0.0443
  189SAPI    H121702   2.816   4.494   7.678 -2.2111 -2.8384 -0.1575
  189SAPI     P21703   2.900   4.752   7.686  0.1075  0.1588  0.7962
  189SAPI   O1321704   3.016   4.656   7.674  0.1820 -0.3702 -0.2872
  189SAPI   O1421705   2.925   4.874   7.767  0.5734  0.0926 -0.1376
  189SAPI   O1221706   2.767   4.685   7.751  0.1453 -0.7629 -0.0926
  189SAPI   O1121707   2.839   4.788   7.547 -0.4602 -0.6264 -0.3804
  189SAPI    C121708   2.741   4.889   7.537  0.4859  0.5934  0.5242
  189SAPI    HA21709   2.644   4.863   7.585 -1.0063 -2.3799 -3.5008
  189SAPI    HB21710   2.774   4.985   7.580 -0.7290 -0.0391  3.1278
  189SAPI    C221711   2.724   4.918   7.384 -0.5031  0.0384 -0.5221
  189SAPI    HS21712   2.642   4.992   7.376 -1.9055 -1.4982 -0.9097
  189SAPI   O2121713   2.690   4.800   7.304 -0.2405  0.3068  0.0462
  189SAPI   C2121714   2.561   4.774   7.325 -0.8963 -0.6877  0.3327
  189SAPI   O2221715   2.492   4.831   7.406  0.6111  0.2067 -0.2228
  189SAPI   C2221716   2.513   4.668   7.222  0.0599 -0.2540 -0.6600
  189SAPI   H2R21717   2.595   4.649   7.150  0.7432  1.2481 -0.3034
  189SAPI   H2S21718   2.495   4.574   7.278  2.5725 -1.3948 -1.6497
  189SAPI    C321719   2.853   4.972   7.324 -0.0912 -0.3622  0.1397
  189SAPI    HX21720   2.937   4.909   7.360 -1.2127 -1.9408  0.0870
  189SAPI    HY21721   2.862   5.075   7.367 -3.5121 -0.5741  1.7040
  189SAPI   O3121722   2.844   4.995   7.180 -0.1736  0.3203  0.3908
  189SAPI   C3121723   2.877   4.894   7.105  0.4430 -0.1180 -0.6773
  189SAPI   O3221724   2.915   4.787   7.146 -0.0498 -0.1406 -0.0970
  189SAPI   C3221725   2.858   4.928   6.960  0.3583  0.2979  0.3080
  189SAPI   H2X21726   2.958   4.947   6.918 -0.0348 -0.8500 -1.2177
  189SAPI   H2Y21727   2.806   5.024   6.941 -1.6587 -0.6187  0.8481
  189SAPI   C2321728   2.378   4.711   7.144 -0.6816 -0.3993  0.4863
  189SAPI   H3R21729   2.306   4.750   7.219 -0.9764 -1.5829  0.8503
  189SAPI   H3S21730   2.327   4.616   7.116  1.2063 -1.0556 -0.9555
  189SAPI   C2421731   2.415   4.784   7.014  0.0720  0.3961 -0.3759
  189SAPI   H4R21732   2.322   4.767   6.956 -0.0907 -1.5152  0.3651
  189SAPI   H4S21733   2.494   4.726   6.962  1.6798  1.0068  1.2562
  189SAPI   C2521734   2.466   4.929   7.011 -0.2474  0.9241  1.0654
  189SAPI   H5R21735   2.566   4.944   7.054 -0.2836 -0.1196  1.5449
  189SAPI   C2621736   2.429   5.025   6.930 -0.2479  0.0954  0.3741
  189SAPI   H6R21737   2.483   5.119   6.945  1.1552 -0.6841  0.3109
  189SAPI   C2721738   2.325   5.011   6.820  0.6706 -0.0220 -0.2940
  189SAPI   H7R21739   2.223   5.013   6.864  0.5902  1.0423 -0.5036
  189SAPI   H7S21740   2.335   4.913   6.767  0.2037  0.5459 -1.4684
  189SAPI   C2821741   2.346   5.116   6.712 -0.5612  0.4334  0.4827
  189SAPI   H8R21742   2.366   5.217   6.752  0.2723 -0.3242  2.0730
  189SAPI   C2921743   2.335   5.103   6.581 -0.7247  0.3820 -0.6374
  189SAPI   H9R21744   2.361   5.190   6.519 -0.3986  0.7083 -0.0442
  189SAPI  C21021745   2.309   4.978   6.503  0.1367 -0.3304  0.1112
  189SAPI  H10R21746   2.237   4.991   6.420 -0.0812 -1.5529  0.0890
  189SAPI  H10S21747   2.260   4.908   6.574 -1.4446 -0.9063 -1.4794
  189SAPI  C21121748   2.440   4.917   6.455  0.5347  0.0931  0.7069
  189SAPI  H11R21749   2.492   4.866   6.537 -0.5976  1.5336  2.4078
  189SAPI  C21221750   2.489   4.918   6.329  0.0501 -0.3450  0.0927
  189SAPI  H12R21751   2.588   4.875   6.313  0.0818 -1.3353  2.5912
  189SAPI  C21321752   2.425   4.981   6.203  0.0726 -0.4301 -1.0141
  189SAPI  H13R21753   2.320   5.006   6.225  0.6785 -0.6727  2.7601
  189SAPI  H13S21754   2.405   4.900   6.129 -2.0944  1.0204 -2.0923
  189SAPI  C21421755   2.508   5.099   6.145 -0.2644 -0.6316  0.1425
  189SAPI  H14R21756   2.574   5.155   6.213  0.0264 -1.2190  0.3586
  189SAPI  C21521757   2.538   5.103   6.016 -0.4501 -0.0692  0.3031
  189SAPI  H15R21758   2.607   5.177   5.973  0.1374 -1.6998 -1.7474
  189SAPI  C21621759   2.480   5.009   5.909 -0.7100 -0.3161 -0.7823
  189SAPI  H16R21760   2.370   4.988   5.912 -0.2410 -3.1645 -0.7235
  189SAPI  H16S21761   2.525   4.909   5.928  3.2023  1.4247 -0.0727
  189SAPI  C21721762   2.533   5.056   5.774 -0.8921  0.5087  0.1197
  189SAPI  H17R21763   2.644   5.053   5.765 -0.6955  0.4469  2.1239
  189SAPI  H17S21764   2.517   5.165   5.760  2.6435  0.8744 -2.3693
  189SAPI  C21821765   2.467   4.982   5.650 -0.6480 -0.3551  0.4317
  189SAPI  H18R21766   2.358   4.976   5.670 -0.7833  0.9682  0.1722
  189SAPI  H18S21767   2.503   4.877   5.658  0.8855  0.1781  0.8443
  189SAPI  C21921768   2.488   5.055   5.517  0.1626 -0.2192 -0.3588
  189SAPI  H19R21769   2.494   5.166   5.522  0.3744 -0.1848 -1.3591
  189SAPI  H19S21770   2.395   5.029   5.463 -1.6607  2.2496  1.3424
  189SAPI  C22021771   2.603   5.002   5.426 -0.1526 -0.0509  0.2736
  189SAPI  H20R21772   2.600   5.060   5.331 -0.6737 -2.1076 -1.0264
  189SAPI  H20S21773   2.588   4.896   5.395 -0.7887  0.4623 -1.2515
  189SAPI  H20T21774   2.703   5.028   5.467 -0.5942  0.3766  1.1050
  189SAPI   C3321775   2.790   4.815   6.889 -0.0514 -0.3771 -0.1596
  189SAPI   H3X21776   2.700   4.781   6.943 -1.7003  3.1723 -0.4235
  189SAPI   H3Y21777   2.861   4.730   6.894 -1.3112 -1.3666  1.7309
  189SAPI   C3421778   2.744   4.853   6.746 -0.5700  0.9851  0.3194
  189SAPI   H4X21779   2.681   4.944   6.749 -0.5431  1.0484 -0.6361
  189SAPI   H4Y21780   2.688   4.768   6.701 -0.2278 -0.4147  2.4147
  189SAPI   C3521781   2.856   4.891   6.642 -0.2985 -0.1999 -0.9600
  189SAPI   H5X21782   2.938   4.816   6.638  0.7190  0.6838  1.3839
  189SAPI   H5Y21783   2.913   4.977   6.684  0.3600 -1.2497  0.3432
  189SAPI   C3621784   2.818   4.913   6.495  0.1089  0.3144 -0.3602
  189SAPI   H6X21785   2.767   5.009   6.477 -1.9432 -0.2908  1.7662
  189SAPI   H6Y21786   2.737   4.837   6.485 -1.4795  2.0067 -0.7842
  189SAPI   C3721787   2.925   4.888   6.388 -0.2679  0.6340  0.3646
  189SAPI   H7X21788   2.985   4.803   6.425 -1.3511  0.1468  1.0660
  189SAPI   H7Y21789   2.992   4.977   6.388  0.2231  0.3086  2.2372
  189SAPI   C3821790   2.853   4.874   6.251  0.0682  0.6446 -0.5083
  189SAPI   H8X21791   2.800   4.970   6.231 -2.7291 -0.6394  0.1724
  189SAPI   H8Y21792   2.780   4.790   6.257 -1.8438  2.2749  0.4921
  189SAPI   C3921793   2.951   4.851   6.139 -0.5031  0.2932 -0.5000
  189SAPI   H9X21794   3.005   4.754   6.138  1.7591  1.4468  0.6588
  189SAPI   H9Y21795   3.030   4.929   6.152 -2.3572  2.3612 -1.1151
  189SAPI  C31021796   2.886   4.868   6.004 -0.0204 -0.2243  0.2410
  189SAPI  H10X21797   2.845   4.970   5.989  0.0603 -0.3653 -1.0607
  189SAPI  H10Y21798   2.795   4.804   5.998  0.1594 -0.3412 -2.1737
  189SAPI  C31121799   2.971   4.820   5.888 -0.3682  0.3436  0.1476
  189SAPI  H11X21800   2.984   4.710   5.897 -0.3665  0.4829  2.5980
  189SAPI  H11Y21801   3.075   4.858   5.901 -0.2423 -0.0364  0.2773
  189SAPI  C31221802   2.912   4.866   5.754  0.0641  1.1795 -0.2734
  189SAPI  H12X21803   2.909   4.977   5.747  0.7137  1.0867 -2.5190
  189SAPI  H12Y21804   2.810   4.823   5.740  0.4373 -0.2837  1.1272
  189SAPI  C31321805   3.014   4.826   5.643 -0.8296 -0.2053  0.3393
  189SAPI  H13X21806   3.043   4.721   5.664 -0.1254  0.3730  2.4393
  189SAPI  H13Y21807   3.109   4.880   5.661  0.5564 -1.6608 -2.0230
  189SAPI  C31421808   2.974   4.835   5.493 -0.2529 -0.4498  0.8389
  189SAPI  H14X21809   2.926   4.935   5.487  2.2661  1.0427  3.1953
  189SAPI  H14Y21810   2.900   4.754   5.475 -0.8493 -0.0571  1.4939
  189SAPI  C31521811   3.098   4.821   5.397 -0.3645 -0.1809 -0.1859
  189SAPI  H15X21812   3.073   4.819   5.288 -0.3842 -0.3045 -0.1791
  189SAPI  H15Y21813   3.161   4.734   5.425 -0.8406 -0.2131  0.8352
  189SAPI  C31621814   3.194   4.944   5.422  0.2509 -0.0613 -0.3448
  189SAPI  H16X21815   3.250   4.940   5.519 -0.2663  1.1536  0.0281
  189SAPI  H16Y21816   3.135   5.037   5.420  1.0793  0.5110  0.5838
  189SAPI  C31721817   3.291   4.962   5.312 -0.2646  0.1102 -0.0413
  189SAPI  H17X21818   3.347   5.057   5.320  1.3144 -0.9104  1.7275
  189SAPI  H17Y21819   3.226   4.969   5.222  0.8909 -1.2638 -1.0199
  189SAPI  C31821820   3.391   4.847   5.288  0.7604 -0.9552  0.0280
  189SAPI  H18X21821   3.445   4.871   5.193  0.6665  0.3715  0.2887
  189SAPI  H18Y21822   3.336   4.754   5.261 -1.7577  0.2878  0.5939
  189SAPI  H18Z21823   3.454   4.829   5.377 -0.0661 -1.2168  0.5677
  190SAPI   C1221824   3.150   0.143   7.407  0.4930 -0.7078  0.2702
  190SAPI    H221825   3.061   0.080   7.388 -0.6096  0.2699  1.9085
  190SAPI    O221826   3.133   0.233   7.516  0.5692 -0.3748  0.1654
  190SAPI   HO221827   3.039   0.252   7.519  0.9137  1.3845  1.2506
  190SAPI   C1321828   3.273   0.050   7.427 -0.6513  0.4022  0.4741
  190SAPI    H321829   3.282  -0.004   7.331  0.6294 -0.8741  1.2820
  190SAPI    O321830   3.245  -0.062   7.507  0.0757  0.4711  0.1559
  190SAPI   HO321831   3.258  -0.047   7.601 -1.5083  4.1082 -0.0465
  190SAPI   C1421832   3.394   0.135   7.466 -0.5973  0.8666 -0.6016
  190SAPI    H421833   3.372   0.194   7.558 -2.1135  0.9485 -0.9902
  190SAPI    O421834   3.509   0.049   7.501 -0.2212  0.1586  0.2927
  190SAPI   HO421835   3.519  -0.027   7.443  0.1657  0.1054  0.4256
  190SAPI   C1521836   3.429   0.248   7.364 -0.2678  0.0598  0.3347
  190SAPI    H521837   3.494   0.202   7.286 -0.1661  1.3368 -0.3626
  190SAPI    O521838   3.506   0.352   7.419 -1.0659 -0.4702 -0.3986
  190SAPI   HO521839   3.542   0.413   7.353 -0.6215 -0.5971 -0.2778
  190SAPI   C1621840   3.312   0.311   7.293  0.3389 -0.4005  0.8516
  190SAPI    H621841   3.282   0.401   7.350  0.3195 -0.3069  0.6953
  190SAPI    O621842   3.344   0.351   7.158  0.3928 -0.0629 -0.1538
  190SAPI   HO621843   3.375   0.442   7.154  1.0762 -0.3001 -0.5031
  190SAPI   C1121844   3.171   0.235   7.289 -0.0042 -1.3078  0.3169
  190SAPI    H121845   3.183   0.162   7.206 -0.4814 -0.6836 -0.3035
  190SAPI     P21846   2.929   0.299   7.185  0.1726 -0.0048 -0.1075
  190SAPI   O1321847   2.869   0.425   7.137 -0.1531  0.2683 -0.3901
  190SAPI   O1421848   2.850   0.212   7.275 -0.7474 -0.0543 -0.2202
  190SAPI   O1221849   3.069   0.334   7.257  0.8607 -0.2876  0.1207
  190SAPI   O1121850   2.974   0.215   7.054  0.6405  0.5120 -0.9836
  190SAPI    C121851   3.029   0.291   6.947  0.1166 -0.1552  0.4719
  190SAPI    HA21852   3.086   0.381   6.977 -2.7449  1.7356  0.5934
  190SAPI    HB21853   3.111   0.235   6.897  0.6254  1.4443 -0.5546
  190SAPI    C221854   2.928   0.336   6.841  0.0289 -0.0588  0.8255
  190SAPI    HS21855   2.866   0.422   6.873  1.2122  2.0589 -2.1244
  190SAPI   O2121856   2.856   0.222   6.799  1.0626 -0.1217  0.3735
  190SAPI   C2121857   2.733   0.219   6.842  0.4623  0.1804  0.2354
  190SAPI   O2221858   2.669   0.308   6.897 -0.1417  0.4408 -0.6323
  190SAPI   C2221859   2.671   0.082   6.799 -0.4928  0.7706 -0.3943
  190SAPI   H2R21860   2.750   0.004   6.789 -0.2607  0.9500  0.0170
  190SAPI   H2S21861   2.619   0.054   6.893  1.2295  0.6441  0.5723
  190SAPI    C321862   3.000   0.383   6.712 -0.1532 -0.2813  0.9004
  190SAPI    HX21863   3.049   0.289   6.679  0.3669 -0.2691  1.6272
  190SAPI    HY21864   3.070   0.466   6.736  0.2505 -1.1944  3.0411
  190SAPI   O3121865   2.896   0.419   6.612  0.5959  0.3718 -0.4516
  190SAPI   C3121866   2.854   0.546   6.628  0.0167 -0.8102 -0.4395
  190SAPI   O3221867   2.902   0.627   6.708 -0.1625  0.6411 -0.1706
  190SAPI   C3221868   2.743   0.581   6.536  0.0023  0.4047  0.4413
  190SAPI   H2X21869   2.647   0.542   6.578 -0.8081  2.6388  0.7644
  190SAPI   H2Y21870   2.766   0.525   6.443 -2.7425 -3.5047  1.8082
  190SAPI   C2321871   2.575   0.093   6.682  0.1398  0.7698 -0.0905
  190SAPI   H3R21872   2.543   0.198   6.666  2.3389  1.2943 -1.4049
  190SAPI   H3S21873   2.493   0.019   6.694  2.7808 -2.4937 -0.8951
  190SAPI   C2421874   2.637   0.057   6.548 -0.7330 -0.2917 -0.0175
  190SAPI   H4R21875   2.554   0.057   6.475  0.4164 -2.3215 -1.4386
  190SAPI   H4S21876   2.679  -0.045   6.562  1.4064  0.6697  0.9909
  190SAPI   C2521877   2.751   0.151   6.502 -0.3186 -0.1052 -0.1756
  190SAPI   H5R21878   2.842   0.148   6.564 -1.0672  0.5698  1.0002
  190SAPI   C2621879   2.748   0.238   6.394  0.0758 -0.4841 -0.6059
  190SAPI   H6R21880   2.837   0.296   6.367 -0.1179 -0.0553 -0.3379
  190SAPI   C2721881   2.621   0.263   6.316 -0.8035 -0.2091 -0.0481
  190SAPI   H7R21882   2.629   0.366   6.274 -2.9214 -0.6739 -1.7479
  190SAPI   H7S21883   2.534   0.269   6.384 -0.2651  0.7843  0.5925
  190SAPI   C2821884   2.605   0.165   6.206 -0.1715  0.5979  0.3273
  190SAPI   H8R21885   2.628   0.059   6.224  1.8121  0.8050 -0.7224
  190SAPI   C2921886   2.563   0.188   6.074 -0.4213  0.6193  1.2482
  190SAPI   H9R21887   2.560   0.109   5.997 -1.6643  0.5540  1.3437
  190SAPI  C21021888   2.519   0.323   6.023  0.1266 -0.4457  0.3770
  190SAPI  H10R21889   2.613   0.373   5.992 -0.2469 -0.0932 -0.2082
  190SAPI  H10S21890   2.481   0.377   6.113  3.1791 -1.6343  2.5631
  190SAPI  C21121891   2.427   0.335   5.906 -0.2777  0.2786  0.0814
  190SAPI  H11R21892   2.325   0.372   5.928 -0.2370  1.4143 -1.4842
  190SAPI  C21221893   2.453   0.296   5.782  0.8734  0.2318  0.4199
  190SAPI  H12R21894   2.381   0.327   5.705  0.0205 -1.7809  0.3634
  190SAPI  C21321895   2.577   0.246   5.716 -0.6479  0.4903  0.6596
  190SAPI  H13R21896   2.642   0.198   5.793 -2.5508 -0.1747  1.9197
  190SAPI  H13S21897   2.637   0.326   5.668 -2.4510  1.7531  0.4213
  190SAPI  C21421898   2.550   0.127   5.631 -0.1885 -0.0433 -0.2324
  190SAPI  H14R21899   2.598   0.032   5.661  1.6170  1.2174  1.0662
  190SAPI  C21521900   2.480   0.113   5.516 -0.9856  0.5229 -0.6385
  190SAPI  H15R21901   2.467   0.014   5.471 -0.5099 -0.4728  1.2983
  190SAPI  C21621902   2.422   0.219   5.437  0.0624 -0.2221 -0.0348
  190SAPI  H16R21903   2.451   0.204   5.331  1.4302 -1.6516  0.4963
  190SAPI  H16S21904   2.449   0.322   5.465  1.6899 -0.6655  0.1002
  190SAPI  C21721905   2.269   0.207   5.446 -0.2017 -0.8524  0.6147
  190SAPI  H17R21906   2.228   0.226   5.548 -0.1975  0.2207  0.4237
  190SAPI  H17S21907   2.232   0.104   5.426  0.0878 -0.5962 -1.4075
  190SAPI  C21821908   2.203   0.312   5.341 -0.0328  0.3602  0.1609
  190SAPI  H18R21909   2.245   0.411   5.368 -0.4873  0.3212  1.0691
  190SAPI  H18S21910   2.093   0.320   5.355 -0.0223 -0.5548  0.9039
  190SAPI  C21921911   2.237   0.278   5.195  0.4714 -0.0893 -0.3806
  190SAPI  H19R21912   2.218   0.172   5.166 -1.4345  0.9629 -3.3965
  190SAPI  H19S21913   2.345   0.288   5.172  0.7074 -3.3818 -1.2647
  190SAPI  C22021914   2.151   0.364   5.094  0.0602  0.5068  0.0680
  190SAPI  H20R21915   2.042   0.341   5.090  0.1239  0.0900  0.6282
  190SAPI  H20S21916   2.175   0.325   4.992 -1.5556 -0.0750 -0.1258
  190SAPI  H20T21917   2.171   0.473   5.098  2.2170  0.4185 -3.6796
  190SAPI   C3321918   2.730   0.728   6.504 -0.5153 -0.7981 -0.2193
  190SAPI   H3X21919   2.830   0.774   6.484 -0.8166 -1.1366 -2.9616
  190SAPI   H3Y21920   2.697   0.789   6.591  0.8775 -0.9959  0.4775
  190SAPI   C3421921   2.647   0.749   6.381 -0.4039 -0.1183  0.7658
  190SAPI   H4X21922   2.607   0.852   6.396  0.6178  0.2225  1.2334
  190SAPI   H4Y21923   2.561   0.679   6.375 -2.6751  2.5931 -1.6064
  190SAPI   C3521924   2.724   0.757   6.244 -0.2101  0.4311  0.5878
  190SAPI   H5X21925   2.758   0.652   6.243 -2.6214 -0.4049 -0.5804
  190SAPI   H5Y21926   2.806   0.832   6.249 -0.6933  1.0579 -0.3442
  190SAPI   C3621927   2.630   0.779   6.122  0.0454 -0.3639  0.0705
  190SAPI   H6X21928   2.575   0.875   6.130 -1.1305 -1.0985  1.1057
  190SAPI   H6Y21929   2.540   0.714   6.132 -0.0331 -0.2040  0.4262
  190SAPI   C3721930   2.698   0.751   5.984  0.2610 -0.0524 -0.2067
  190SAPI   H7X21931   2.764   0.663   5.996  0.9841  0.7960  2.6156
  190SAPI   H7Y21932   2.768   0.834   5.960 -0.1880  0.5499  0.5336
  190SAPI   C3821933   2.603   0.720   5.861 -0.3679 -0.0943 -0.2204
  190SAPI   H8X21934   2.540   0.805   5.827 -0.5500 -0.2159 -0.1842
  190SAPI   H8Y21935   2.537   0.636   5.890 -1.2403  1.0309  1.1721
  190SAPI   C3921936   2.683   0.680   5.740 -0.1320  1.0882 -0.3147
  190SAPI   H9X21937   2.748   0.597   5.776 -1.4023  0.4475  0.5859
  190SAPI   H9Y21938   2.734   0.770   5.700  0.3335  1.4343  1.0066
  190SAPI  C31021939   2.605   0.626   5.621  0.2042  0.1477  0.2060
  190SAPI  H10X21940   2.526   0.562   5.667  1.6172 -4.2206 -2.8177
  190SAPI  H10Y21941   2.675   0.557   5.570 -0.8164 -1.0033  0.3028
  190SAPI  C31121942   2.560   0.738   5.520 -0.4764 -0.0179 -0.2050
  190SAPI  H11X21943   2.516   0.822   5.578  0.1563  1.0645 -1.2437
  190SAPI  H11Y21944   2.477   0.693   5.461 -0.3560  0.5045 -0.7823
  190SAPI  C31221945   2.673   0.780   5.427  0.3036 -0.4328  0.6344
  190SAPI  H12X21946   2.759   0.808   5.491  1.7777 -1.9274 -0.6221
  190SAPI  H12Y21947   2.650   0.884   5.395  0.5641 -0.3568  0.6906
  190SAPI  C31321948   2.708   0.689   5.308  0.0882 -0.9707 -0.3246
  190SAPI  H13X21949   2.713   0.591   5.359 -1.3835 -0.2696  1.2869
  190SAPI  H13Y21950   2.805   0.721   5.265 -1.3576  0.6538 -2.6619
  190SAPI  C31421951   2.600   0.684   5.194  0.1273  0.4788 -0.5267
  190SAPI  H14X21952   2.584   0.789   5.161  1.4181  1.4446  1.7341
  190SAPI  H14Y21953   2.509   0.633   5.232  0.2098 -0.9867 -2.1599
  190SAPI  C31521954   2.663   0.604   5.080 -0.3971  0.0106  0.2743
  190SAPI  H15X21955   2.684   0.500   5.112 -1.2775 -0.6217 -1.0693
  190SAPI  H15Y21956   2.760   0.653   5.056 -1.4942  1.7800 -0.8252
  190SAPI  C31621957   2.574   0.605   4.952 -0.2659 -0.5919  0.9223
  190SAPI  H16X21958   2.659   0.605   4.881 -1.7477 -0.2392 -0.9362
  190SAPI  H16Y21959   2.522   0.704   4.949 -1.1334 -1.0665 -0.7011
  190SAPI  C31721960   2.483   0.486   4.932  0.3765  0.2622  0.2414
  190SAPI  H17X21961   2.421   0.474   5.023  3.2217 -1.1163  2.1389
  190SAPI  H17Y21962   2.544   0.393   4.929  0.4372  0.2762  0.8574
  190SAPI  C31821963   2.390   0.492   4.811 -0.3582 -0.3741  0.1822
  190SAPI  H18X21964   2.339   0.590   4.800  1.1585  0.2587 -2.0661
  190SAPI  H18Y21965   2.311   0.414   4.806 -0.0094 -0.7737  0.7247
  190SAPI  H18Z21966   2.448   0.486   4.716 -0.6173  0.0919 -0.0094
  191SAPI   C1221967   5.007   1.514   2.767 -0.3056 -0.3007 -0.8112
  191SAPI    H221968   5.035   1.481   2.869 -0.4342 -1.6106 -1.1694
  191SAPI    O221969   5.071   1.425   2.676  0.3316  0.2653  0.1233
  191SAPI   HO221970   5.044   1.336   2.700 -0.5512  0.2413 -0.9026
  191SAPI   C1321971   4.858   1.528   2.742 -0.3669 -0.0189  0.2781
  191SAPI    H321972   4.821   1.618   2.796 -1.4717 -0.3036  0.0345
  191SAPI    O321973   4.792   1.409   2.780  0.6672  0.7688 -0.0407
  191SAPI   HO321974   4.847   1.332   2.764  1.1881  1.2623 -0.6645
  191SAPI   C1421975   4.844   1.561   2.598  0.0999  0.3224 -0.5827
  191SAPI    H421976   4.881   1.472   2.543 -0.4904  0.1021 -0.6333
  191SAPI    O421977   4.705   1.574   2.568 -0.2026  0.6098 -0.4678
  191SAPI   HO421978   4.660   1.641   2.620 -1.1948 -0.2464 -0.1751
  191SAPI   C1521979   4.920   1.683   2.545 -0.5005  0.0768  0.7467
  191SAPI    H521980   4.857   1.769   2.576  3.0860  2.7484  1.2315
  191SAPI    O521981   4.924   1.697   2.402 -0.4787  0.1073  0.2063
  191SAPI   HO521982   4.955   1.612   2.370 -1.6814 -0.1076 -0.4423
  191SAPI   C1621983   5.056   1.715   2.604  0.3031  0.3639 -0.7699
  191SAPI    H621984   5.127   1.666   2.535  0.8647 -0.2687  0.2354
  191SAPI    O621985   5.084   1.848   2.607  0.0003 -0.1867 -0.1839
  191SAPI   HO621986   5.144   1.858   2.681 -1.5954 -2.7285  1.6361
  191SAPI   C1121987   5.079   1.647   2.742  0.4982  0.3644  0.2237
  191SAPI    H121988   5.030   1.723   2.806  1.1770  1.6552 -0.7549
  191SAPI     P21989   5.308   1.757   2.839 -0.0447 -0.0730  0.1326
  191SAPI   O1321990   5.236   1.882   2.820 -0.5756 -0.3689  0.6298
  191SAPI   O1421991   5.454   1.752   2.801 -0.2327  0.5243 -0.0795
  191SAPI   O1221992   5.223   1.635   2.767 -0.3550 -0.4594  0.5299
  191SAPI   O1121993   5.298   1.726   2.990  0.4327 -0.1127  0.3612
  191SAPI    C121994   5.181   1.755   3.070 -0.4570  0.5389  0.0443
  191SAPI    HA21995   5.093   1.796   3.017 -0.1533 -0.4032 -1.2383
  191SAPI    HB21996   5.149   1.665   3.127 -0.0049  0.6758  0.5253
  191SAPI    C221997   5.216   1.853   3.194 -0.5277 -0.1066 -0.1140
  191SAPI    HS21998   5.123   1.884   3.245 -0.1799  0.4684  0.1795
  191SAPI   O2121999   5.283   1.963   3.137  0.2681 -0.8157 -0.0138
  191SAPI   C2122000   5.197   2.058   3.088 -0.8365 -0.6338 -0.1756
  191SAPI   O2222001   5.075   2.040   3.087 -0.5521 -0.2457  0.1622
  191SAPI   C2222002   5.264   2.179   3.028 -0.2242 -0.1835  0.1961
  191SAPI   H2R22003   5.374   2.184   3.040 -0.2296 -1.6078  1.1890
  191SAPI   H2S22004   5.248   2.158   2.920  1.1871 -0.8493  0.1020
  191SAPI    C322005   5.304   1.784   3.303 -0.3201 -0.1592 -0.2147
  191SAPI    HX22006   5.389   1.743   3.242  0.3059 -0.7894  1.0440
  191SAPI    HY22007   5.246   1.691   3.317 -0.5111 -0.2260 -1.3120
  191SAPI   O3122008   5.336   1.864   3.420 -0.1989  0.1928  0.2509
  191SAPI   C3122009   5.448   1.938   3.409  0.1481  0.1180  0.5187
  191SAPI   O3222010   5.514   1.956   3.308  0.1029  0.5141  0.1659
  191SAPI   C3222011   5.464   2.004   3.549  0.1965  0.2577 -0.1979
  191SAPI   H2X22012   5.382   2.079   3.550  0.6937  0.8498 -1.3411
  191SAPI   H2Y22013   5.557   2.064   3.534  1.2509 -1.7887 -2.7014
  191SAPI   C2322014   5.188   2.321   3.063 -0.2952 -0.3194 -0.6780
  191SAPI   H3R22015   5.079   2.310   3.083 -0.0211  0.1076  1.1902
  191SAPI   H3S22016   5.199   2.385   2.973 -0.0631  0.4364 -0.1183
  191SAPI   C2422017   5.246   2.396   3.182  0.1050 -0.5986  0.3021
  191SAPI   H4R22018   5.238   2.335   3.274 -0.8109 -0.0455  0.6095
  191SAPI   H4S22019   5.193   2.493   3.194  2.5902  0.8968 -0.1276
  191SAPI   C2522020   5.394   2.437   3.174 -0.4094  0.7804 -0.1360
  191SAPI   H5R22021   5.423   2.490   3.082 -2.4159  1.0831 -0.6395
  191SAPI   C2622022   5.486   2.426   3.274  0.5045  0.3023  0.0688
  191SAPI   H6R22023   5.590   2.445   3.244  0.7304 -0.6963  0.1527
  191SAPI   C2722024   5.464   2.373   3.410  0.6421 -0.3460 -0.1060
  191SAPI   H7R22025   5.563   2.344   3.452  0.7336 -0.2537 -0.2535
  191SAPI   H7S22026   5.407   2.278   3.404  1.2449 -0.7440  0.3882
  191SAPI   C2822027   5.391   2.464   3.507 -0.4830  0.0715  0.7034
  191SAPI   H8R22028   5.295   2.509   3.479 -0.2917  0.2593  0.3419
  191SAPI   C2922029   5.437   2.494   3.628 -0.0204 -0.1875 -0.6853
  191SAPI   H9R22030   5.378   2.563   3.690 -1.3147 -1.3732 -0.5386
  191SAPI  C21022031   5.571   2.456   3.689  0.2882 -0.4413  0.0671
  191SAPI  H10R22032   5.658   2.482   3.625  1.8621 -2.6606  1.1577
  191SAPI  H10S22033   5.590   2.347   3.697 -2.0262 -0.8847  0.3362
  191SAPI  C21122034   5.589   2.517   3.822  0.2245 -0.3695  0.3849
  191SAPI  H11R22035   5.639   2.615   3.817 -2.6363  1.3696  2.8714
  191SAPI  C21222036   5.548   2.477   3.945  0.1991  0.6513  0.5422
  191SAPI  H12R22037   5.587   2.530   4.033  0.0091  2.4707 -0.4093
  191SAPI  C21322038   5.456   2.364   3.976  0.0185  0.0423  0.0510
  191SAPI  H13R22039   5.363   2.375   3.916  0.0448 -0.2661 -0.0450
  191SAPI  H13S22040   5.422   2.372   4.081  0.7634 -3.1802  0.6224
  191SAPI  C21422041   5.501   2.221   3.953 -0.0496  0.2440 -0.5147
  191SAPI  H14R22042   5.568   2.194   3.871  1.8731 -1.2305  1.4157
  191SAPI  C21522043   5.470   2.115   4.032 -0.6334 -0.2585  0.6235
  191SAPI  H15R22044   5.527   2.025   4.007  0.2406  0.4740 -0.1223
  191SAPI  C21622045   5.377   2.107   4.148  0.0785  0.3536 -0.4776
  191SAPI  H16R22046   5.277   2.072   4.115  0.4562 -2.4843  1.1084
  191SAPI  H16S22047   5.363   2.206   4.198 -0.5496 -0.1546  0.3789
  191SAPI  C21722048   5.434   2.028   4.259 -0.6694 -0.2448 -0.0431
  191SAPI  H17R22049   5.451   1.921   4.237  0.4337 -0.3645  1.2542
  191SAPI  H17S22050   5.353   2.023   4.335 -0.5657  1.3078  0.1955
  191SAPI  C21822051   5.561   2.090   4.323  0.0829 -0.0056  0.1626
  191SAPI  H18R22052   5.545   2.198   4.344  0.2007  0.3027 -1.2460
  191SAPI  H18S22053   5.636   2.086   4.241 -1.2324  0.1343 -1.0821
  191SAPI  C21922054   5.610   2.006   4.444  0.7994  0.0593 -0.2665
  191SAPI  H19R22055   5.520   1.969   4.499 -0.0129 -0.8340 -2.1248
  191SAPI  H19S22056   5.660   2.080   4.509  0.9557 -0.5953  0.3754
  191SAPI  C22022057   5.710   1.892   4.417 -0.8734 -0.5493 -0.0191
  191SAPI  H20R22058   5.801   1.932   4.367 -1.5343 -2.7751 -3.3110
  191SAPI  H20S22059   5.670   1.811   4.353 -2.5262 -0.9169  1.3976
  191SAPI  H20T22060   5.741   1.839   4.509  0.9980 -2.6554 -1.7443
  191SAPI   C3322061   5.479   1.898   3.660 -0.1418  0.4875 -0.3169
  191SAPI   H3X22062   5.428   1.804   3.630 -0.9871  1.5867 -2.5151
  191SAPI   H3Y22063   5.428   1.927   3.755 -0.2173  1.9979 -0.7957
  191SAPI   C3422064   5.632   1.862   3.688 -0.1859  0.1909  0.4871
  191SAPI   H4X22065   5.670   1.933   3.765  0.6504  0.2840  0.0014
  191SAPI   H4Y22066   5.682   1.873   3.590  2.4205  1.6801  1.8733
  191SAPI   C3522067   5.659   1.736   3.751  1.2457  0.0590 -0.1743
  191SAPI   H5X22068   5.762   1.704   3.724  0.6894 -0.1637 -2.2462
  191SAPI   H5Y22069   5.580   1.664   3.721 -0.7886  0.9557  2.6556
  191SAPI   C3622070   5.655   1.737   3.903 -0.0528  0.2587 -0.2090
  191SAPI   H6X22071   5.555   1.774   3.936  0.2310  1.0362 -0.2091
  191SAPI   H6Y22072   5.731   1.808   3.941  1.0714 -1.2626  0.4902
  191SAPI   C3722073   5.666   1.594   3.954 -0.4415 -0.3653 -0.2599
  191SAPI   H7X22074   5.766   1.554   3.925 -1.4059 -1.7134 -1.9128
  191SAPI   H7Y22075   5.592   1.533   3.899 -0.5796  0.8588 -1.5101
  191SAPI   C3822076   5.642   1.580   4.103  0.2002 -0.3903 -0.3403
  191SAPI   H8X22077   5.717   1.637   4.161 -1.0992  0.0849  0.9381
  191SAPI   H8Y22078   5.655   1.473   4.128  2.5106 -0.1785 -0.4226
  191SAPI   C3922079   5.501   1.636   4.151  0.4920 -0.1531 -0.3247
  191SAPI   H9X22080   5.425   1.605   4.077 -0.9003 -0.4482  1.1872
  191SAPI   H9Y22081   5.513   1.747   4.155  2.3981 -0.3445  0.6015
  191SAPI  C31022082   5.478   1.588   4.292  0.3578  1.0497  0.2201
  191SAPI  H10X22083   5.556   1.611   4.368 -0.7877  0.6528  1.5465
  191SAPI  H10Y22084   5.469   1.478   4.277 -3.8278  1.4125 -1.1020
  191SAPI  C31122085   5.341   1.650   4.350  0.2403 -0.7250  0.3650
  191SAPI  H11X22086   5.366   1.756   4.372 -1.0457 -0.3706  0.1881
  191SAPI  H11Y22087   5.320   1.595   4.444  1.8161  0.7655  1.6575
  191SAPI  C31222088   5.219   1.640   4.260  0.0116  0.1221 -0.3156
  191SAPI  H12X22089   5.199   1.531   4.246 -0.5467  0.0340  1.0291
  191SAPI  H12Y22090   5.232   1.678   4.156  1.0887 -1.3267 -0.7484
  191SAPI  C31322091   5.086   1.698   4.315 -0.3223 -0.0022 -0.4740
  191SAPI  H13X22092   5.054   1.629   4.396 -2.9292 -0.5960 -1.8862
  191SAPI  H13Y22093   5.021   1.707   4.225 -0.8058  0.8753 -0.0508
  191SAPI  C31422094   5.112   1.841   4.363 -0.2165  0.4188  0.3352
  191SAPI  H14X22095   5.143   1.899   4.274  1.1315 -0.0378  0.4895
  191SAPI  H14Y22096   5.192   1.834   4.440  0.7698 -1.8017 -0.7763
  191SAPI  C31522097   4.988   1.903   4.423 -0.0742  0.2329 -0.3676
  191SAPI  H15X22098   4.962   1.840   4.511  1.5671 -0.8279 -0.5844
  191SAPI  H15Y22099   4.898   1.903   4.359 -0.6143  1.4670  0.3640
  191SAPI  C31622100   5.005   2.049   4.483  0.1319 -0.2488  0.0871
  191SAPI  H16X22101   5.094   2.038   4.549 -0.6794 -2.4504  0.9396
  191SAPI  H16Y22102   4.913   2.068   4.542 -0.7159 -2.6326 -0.3256
  191SAPI  C31722103   5.034   2.149   4.369 -0.5550  0.6309  0.0873
  191SAPI  H17X22104   4.948   2.218   4.356 -1.1750 -0.4111 -1.8152
  191SAPI  H17Y22105   5.062   2.099   4.273 -1.7556 -0.3172  0.2074
  191SAPI  C31822106   5.157   2.241   4.385  0.2478  0.2780  0.0387
  191SAPI  H18X22107   5.128   2.315   4.462 -2.9412 -0.6203 -0.1701
  191SAPI  H18Y22108   5.186   2.284   4.287 -0.7879 -0.9431 -0.8318
  191SAPI  H18Z22109   5.235   2.180   4.436  0.5132 -0.0135 -0.6893
  192SAPI   C1222110   1.432   6.757   2.329  0.4230  0.3132  0.1298
  192SAPI    H222111   1.322   6.755   2.342  0.4875 -1.1393  0.5933
  192SAPI    O222112   1.445   6.638   2.255 -0.7511 -0.6652  0.1567
  192SAPI   HO222113   1.374   6.579   2.285 -0.8176  0.1966  1.8236
  192SAPI   C1322114   1.474   6.876   2.245  0.5776 -0.2027 -0.4531
  192SAPI    H322115   1.460   6.966   2.308  0.2954 -0.0343 -0.7473
  192SAPI    O322116   1.390   6.894   2.127 -0.1804  0.1176 -0.2855
  192SAPI   HO322117   1.374   6.813   2.079  1.4375  0.6807 -1.9066
  192SAPI   C1422118   1.619   6.866   2.218 -0.4192  0.3544 -0.2261
  192SAPI    H422119   1.609   6.797   2.132 -0.1163  0.1445 -0.0951
  192SAPI    O422120   1.678   6.979   2.153 -0.6002 -0.0075 -0.3889
  192SAPI   HO422121   1.718   6.952   2.070  2.2163 -1.6753  1.3464
  192SAPI   C1522122   1.714   6.809   2.323 -0.2881  0.1193  0.0658
  192SAPI    H522123   1.766   6.897   2.367 -3.2314  2.8830 -1.5096
  192SAPI    O522124   1.813   6.721   2.263  0.5547 -0.4610  0.2673
  192SAPI   HO522125   1.894   6.771   2.256 -0.4224  1.4673  1.6798
  192SAPI   C1622126   1.645   6.732   2.441 -0.3095 -0.3733  0.1267
  192SAPI    H622127   1.664   6.623   2.424  0.0030 -0.1771 -0.8824
  192SAPI    O622128   1.711   6.755   2.564  0.7319 -0.0244  0.0480
  192SAPI   HO622129   1.804   6.744   2.546  0.4575 -0.4112 -1.2403
  192SAPI   C1122130   1.494   6.754   2.464  0.4966  0.7854 -0.7191
  192SAPI    H122131   1.482   6.852   2.514  1.2744 -0.7237  2.6917
  192SAPI     P22132   1.310   6.687   2.643  0.4383 -0.0635 -0.6077
  192SAPI   O1322133   1.222   6.572   2.671  0.0943  0.1957  0.4363
  192SAPI   O1422134   1.231   6.800   2.594  0.6197 -0.3270 -0.3315
  192SAPI   O1222135   1.432   6.646   2.538 -0.6664  0.2979  0.2403
  192SAPI   O1122136   1.391   6.729   2.776 -0.2448 -0.2456  0.4737
  192SAPI    C122137   1.475   6.645   2.847  0.1539  0.3413  0.1142
  192SAPI    HA22138   1.486   6.551   2.788  0.1153  0.9574 -0.8941
  192SAPI    HB22139   1.576   6.690   2.860  0.1162  1.1054 -1.8655
  192SAPI    C222140   1.420   6.608   2.987 -0.3010 -0.1184 -0.0985
  192SAPI    HS22141   1.489   6.535   3.035  0.3638 -0.4234 -1.4824
  192SAPI   O2122142   1.282   6.561   2.966 -0.3725 -0.1935 -0.3449
  192SAPI   C2122143   1.274   6.431   2.962  0.9596 -0.2429 -0.2753
  192SAPI   O2222144   1.371   6.353   2.945  0.2774  0.2662  0.0361
  192SAPI   C2222145   1.124   6.391   2.956  0.0480 -0.8748 -0.3483
  192SAPI   H2R22146   1.068   6.464   3.018 -0.3389 -1.1893 -0.3245
  192SAPI   H2S22147   1.095   6.399   2.849 -0.2739 -1.8126 -0.3404
  192SAPI    C322148   1.428   6.732   3.078  0.6306 -0.4677  0.6087
  192SAPI    HX22149   1.382   6.706   3.175 -1.3829 -0.1620 -0.2117
  192SAPI    HY22150   1.375   6.813   3.024  2.2432  0.1530 -0.1081
  192SAPI   O3122151   1.560   6.783   3.101  0.0320  0.0621  0.2163
  192SAPI   C3122152   1.628   6.712   3.188 -0.5752 -0.0495 -0.0808
  192SAPI   O3222153   1.591   6.612   3.243 -0.1576 -0.3153  0.0951
  192SAPI   C3222154   1.771   6.774   3.200  0.2352  0.8650  0.2740
  192SAPI   H2X22155   1.777   6.849   3.118 -1.9151  1.3403  0.4825
  192SAPI   H2Y22156   1.851   6.697   3.193 -0.0914  0.5243  0.2280
  192SAPI   C2322157   1.099   6.256   3.016 -0.0457  0.0192 -0.5505
  192SAPI   H3R22158   1.138   6.264   3.120 -0.0142 -2.6708 -0.2844
  192SAPI   H3S22159   1.167   6.183   2.966  0.7959  0.3947  0.0155
  192SAPI   C2422160   0.957   6.202   3.020 -0.2985 -0.9508  0.5020
  192SAPI   H4R22161   0.955   6.092   3.029 -1.3950 -1.2031 -1.9833
  192SAPI   H4S22162   0.903   6.210   2.923  0.0250 -1.2818  0.2899
  192SAPI   C2522163   0.873   6.269   3.123 -0.0319  0.0165 -0.8914
  192SAPI   H5R22164   0.868   6.378   3.112  1.5927  0.0003 -2.2166
  192SAPI   C2622165   0.846   6.220   3.248  0.2587  0.6638 -0.2921
  192SAPI   H6R22166   0.813   6.295   3.322  2.7586  0.9709  0.5924
  192SAPI   C2722167   0.876   6.085   3.310  0.3693 -0.0517  0.2308
  192SAPI   H7R22168   0.974   6.089   3.364  1.4471 -1.0148 -1.5667
  192SAPI   H7S22169   0.893   6.010   3.230  0.7528  0.9890 -0.6846
  192SAPI   C2822170   0.765   6.022   3.400 -0.2981  0.2183  0.7193
  192SAPI   H8R22171   0.673   6.006   3.342 -1.9305  2.2681  2.5721
  192SAPI   C2922172   0.774   6.001   3.536  0.9835 -0.6865 -0.2816
  192SAPI   H9R22173   0.690   5.957   3.592 -0.3001  3.2121  1.1834
  192SAPI  C21022174   0.899   6.023   3.613  0.0877 -0.2761  0.0854
  192SAPI  H10R22175   0.936   6.126   3.596 -0.4077 -0.2509 -0.9185
  192SAPI  H10S22176   0.975   5.955   3.569  0.8429  0.1913  0.6641
  192SAPI  C21122177   0.880   5.993   3.758 -0.1999 -0.0104  0.3744
  192SAPI  H11R22178   0.841   5.894   3.788  0.3196  0.3849  2.5251
  192SAPI  C21222179   0.911   6.068   3.865  0.2315 -0.2907 -0.0276
  192SAPI  H12R22180   0.885   6.020   3.961  0.2352 -1.2670 -0.5075
  192SAPI  C21322181   0.981   6.203   3.868  0.1785  0.3794  0.0769
  192SAPI  H13R22182   0.963   6.255   3.772  0.6013  1.1928  0.4280
  192SAPI  H13S22183   1.091   6.186   3.867  0.3571  1.3468  0.8336
  192SAPI  C21422184   0.935   6.286   3.990  0.9131  0.3892 -0.0642
  192SAPI  H14R22185   0.847   6.345   3.962 -1.2519 -2.3740  0.6003
  192SAPI  C21522186   0.984   6.268   4.115  0.6233 -0.3038 -0.5022
  192SAPI  H15R22187   0.956   6.341   4.192 -0.6361 -1.4384  0.1631
  192SAPI  C21622188   1.095   6.175   4.160 -0.0329 -0.7717 -0.2707
  192SAPI  H16R22189   1.186   6.239   4.165 -1.3195  1.1033  0.3282
  192SAPI  H16S22190   1.118   6.097   4.085 -0.0153 -1.0514  0.0213
  192SAPI  C21722191   1.087   6.103   4.298  0.3903 -0.1599  0.8527
  192SAPI  H17R22192   1.175   6.035   4.304  2.3783  2.2390  0.8924
  192SAPI  H17S22193   0.993   6.044   4.291  1.0168 -1.0419 -0.9015
  192SAPI  C21822194   1.099   6.201   4.414  0.2532 -0.7633 -0.0744
  192SAPI  H18R22195   1.004   6.257   4.426  0.9070  0.4900 -0.5209
  192SAPI  H18S22196   1.173   6.284   4.404 -0.2343 -0.5249 -1.8591
  192SAPI  C21922197   1.121   6.138   4.549  0.1191  0.2594  0.4499
  192SAPI  H19R22198   1.200   6.060   4.549 -0.7342 -0.6468  2.0023
  192SAPI  H19S22199   1.031   6.080   4.578 -1.9554  2.5740 -0.8896
  192SAPI  C22022200   1.151   6.243   4.661  0.1305 -0.1233 -0.2506
  192SAPI  H20R22201   1.085   6.332   4.657 -2.3347 -1.8275 -0.1955
  192SAPI  H20S22202   1.246   6.291   4.629  0.0497  1.1212  1.2511
  192SAPI  H20T22203   1.146   6.188   4.758  0.8082  2.2213  1.2149
  192SAPI   C3322204   1.793   6.847   3.331  0.2235 -0.4181  0.4797
  192SAPI   H3X22205   1.703   6.904   3.362 -0.0242 -0.5204 -0.0453
  192SAPI   H3Y22206   1.870   6.927   3.328  0.5998 -0.7672  0.6882
  192SAPI   C3422207   1.819   6.758   3.456 -0.1609  0.2161 -0.0158
  192SAPI   H4X22208   1.927   6.735   3.462 -0.8392 -3.1429  1.6317
  192SAPI   H4Y22209   1.756   6.667   3.448 -1.9430  1.3058  0.8029
  192SAPI   C3522210   1.779   6.822   3.591 -0.4079  0.5391  0.4182
  192SAPI   H5X22211   1.677   6.856   3.565  0.5442  1.0800 -3.0344
  192SAPI   H5Y22212   1.838   6.915   3.607  1.9905 -0.6585 -0.8674
  192SAPI   C3622213   1.781   6.728   3.712 -0.5052  0.4241 -0.6937
  192SAPI   H6X22214   1.883   6.697   3.742 -0.1456  1.5696 -0.6639
  192SAPI   H6Y22215   1.727   6.632   3.698 -1.4784  0.7327  0.8185
  192SAPI   C3722216   1.711   6.798   3.827 -0.3384 -0.1316 -0.3028
  192SAPI   H7X22217   1.607   6.817   3.794 -0.7000  0.8038  1.2814
  192SAPI   H7Y22218   1.763   6.894   3.846  0.8043 -0.5893 -1.0100
  192SAPI   C3822219   1.718   6.730   3.967  0.2016  0.0055  0.2862
  192SAPI   H8X22220   1.805   6.660   3.966  1.0046  0.9724  0.3871
  192SAPI   H8Y22221   1.631   6.661   3.969  1.5602 -1.9699 -2.3150
  192SAPI   C3922222   1.708   6.828   4.087  0.3695  0.7934  0.4508
  192SAPI   H9X22223   1.601   6.854   4.090 -0.0722 -0.5466 -1.4423
  192SAPI   H9Y22224   1.776   6.914   4.066 -0.9798  1.9083  0.5656
  192SAPI  C31022225   1.759   6.772   4.224  0.2471  0.1647  0.3057
  192SAPI  H10X22226   1.869   6.759   4.228  0.6264  3.0196  1.4779
  192SAPI  H10Y22227   1.724   6.667   4.233  3.1768 -1.0952 -1.6323
  192SAPI  C31122228   1.713   6.856   4.343  0.6429  0.5551 -0.1516
  192SAPI  H11X22229   1.602   6.864   4.343  0.6728  1.7485  2.2219
  192SAPI  H11Y22230   1.757   6.958   4.352  1.0973  0.3041  0.4846
  192SAPI  C31222231   1.761   6.785   4.474  0.5893  0.7274 -0.0722
  192SAPI  H12X22232   1.872   6.793   4.481  0.5138  0.7533  1.3905
  192SAPI  H12Y22233   1.734   6.678   4.472  0.0410  0.7507  2.5690
  192SAPI  C31322234   1.699   6.837   4.600 -0.1469 -0.2736  0.5337
  192SAPI  H13X22235   1.590   6.821   4.588  0.1199 -1.1389 -1.1344
  192SAPI  H13Y22236   1.711   6.947   4.597 -3.7209  0.1912 -1.3811
  192SAPI  C31422237   1.746   6.780   4.727  0.7347  0.0094  0.2796
  192SAPI  H14X22238   1.746   6.669   4.738 -1.3424 -0.0327  0.1476
  192SAPI  H14Y22239   1.694   6.829   4.812  0.6659  2.2496 -0.9847
  192SAPI  C31522240   1.898   6.819   4.758  1.1733 -0.5041  0.1677
  192SAPI  H15X22241   1.909   6.928   4.743  1.3840 -0.3569  1.3238
  192SAPI  H15Y22242   1.954   6.769   4.676  0.5925 -0.0174 -0.5362
  192SAPI  C31622243   1.935   6.776   4.902  0.2917  0.0147 -0.4744
  192SAPI  H16X22244   1.851   6.788   4.974  0.8251 -0.2195  0.1896
  192SAPI  H16Y22245   2.020   6.837   4.939 -1.5843  1.2073  2.1837
  192SAPI  C31722246   1.974   6.626   4.914 -0.2665 -0.5842 -0.4232
  192SAPI  H17X22247   2.056   6.616   4.840 -0.5150  0.7481 -0.8973
  192SAPI  H17Y22248   1.886   6.568   4.879  0.1158 -1.9509  0.7802
  192SAPI  C31822249   1.995   6.590   5.067  0.2527 -0.1546  0.9136
  192SAPI  H18X22250   2.083   6.645   5.106  1.7632 -1.0207 -1.0855
  192SAPI  H18Y22251   2.010   6.480   5.070 -1.3376 -0.6564 -2.9908
  192SAPI  H18Z22252   1.905   6.611   5.128  0.6223 -0.6086  1.6302
  193SOD    SOD22253   2.118   5.878   8.359  0.2961 -0.3137  0.2626
  194SOD    SOD22254   1.272   3.223   2.585  0.5248 -0.2569  0.1874
  195SOD    SOD22255   5.311   4.925   3.058 -0.3760  0.0174  0.3719
  196SOD    SOD22256   5.702   1.026   1.974  0.1348  0.0572  0.1472
  197SOD    SOD22257   4.296   4.204   7.485  0.2402  0.1626  0.3794
  198SOD    SOD22258   6.212   6.076   2.229  0.2562  0.7154  0.3347
  199SOD    SOD22259   0.067   2.078   1.580 -0.0123 -0.4916 -0.0347
  200SOD    SOD22260   0.132   1.004   7.907 -0.1273 -0.4314  0.6102
  201SOD    SOD22261   1.772   4.795   7.198 -0.5701  0.3852 -0.2529
  202SOD    SOD22262   6.317   1.227   8.084  0.0030 -0.0285 -0.1443
  203SOD    SOD22263   4.032   0.249   0.171  0.0047  0.2554  0.2283
  204SOD    SOD22264   6.417   2.045   0.110 -0.1746  0.3430  0.0719
  205SOD    SOD22265   5.574   4.946   1.197 -0.4789 -0.2537 -0.1199
  206SOD    SOD22266   1.200   0.912   2.228  0.5789 -0.4824 -0.2310
  207SOD    SOD22267   0.925   2.795   8.167  0.5383  0.3250 -0.0789
  208SOD    SOD22268   1.367   1.133   2.930  0.1361  0.1489  0.1734
  209SOD    SOD22269   0.104   5.278   2.174 -0.3981 -0.1900  0.2249
  210SOD    SOD22270   0.058   2.897   7.583 -0.0200  0.2427 -0.0381
  211SOD    SOD22271   0.724   4.106   0.752  0.1356 -0.2937 -0.4644
  212SOD    SOD22272   5.323   4.122   2.123 -0.0160 -0.1862 -0.2808
  213SOD    SOD22273   5.325   5.192   7.926 -0.2705  0.0248  0.0714
  214SOD    SOD22274   1.357   5.747   8.345 -0.0121  0.2120  0.0724
  215SOD    SOD22275   2.933   4.651   0.360  0.0668  0.1013 -0.1670
  216SOD    SOD22276   5.086   4.156   2.605 -0.3765 -0.2841 -0.4592
  217SOD    SOD22277   5.421   6.258   2.028 -0.7946  0.5127  0.0477
  218SOD    SOD22278   5.625   3.038   0.261  0.3911 -0.0484  0.0350
  219SOD    SOD22279   5.327   2.265   2.536 -0.2941  0.0965  0.1283
  220SOD    SOD22280   2.682   0.486   7.053 -0.1743  0.1299 -0.1394
  221SOD    SOD22281   4.377   5.987   7.619  0.4335  0.7590  0.2776
  222SOD    SOD22282   4.659   5.286   7.704  0.3580  0.1525 -0.3966
  223SOD    SOD22283   1.365   3.264   2.064  0.3218 -0.2398  0.1914
  224SOD    SOD22284   2.067   1.645   2.083 -0.4291  0.1415 -0.1532
  225SOD    SOD22285   6.737   5.499   7.998 -0.6533 -0.2897  0.1528
  226SOD    SOD22286   1.304   2.169   2.391  0.0216  0.0026 -0.6666
  227SOD    SOD22287   3.734   5.481   1.272  0.4171  0.3081 -0.3806
  228SOD    SOD22288   4.086   1.532   7.149  0.3046  0.1250  0.7413
  229SOD    SOD22289   4.641   1.744   2.020 -0.1533 -0.2938  0.3132
  230SOD    SOD22290   4.936   2.551   2.145  0.3710 -0.3157 -0.5479
  231SOD    SOD22291   2.848   4.308   8.262  0.3046  0.4872  0.5174
  232SOD    SOD22292   0.793   3.018   8.831 -0.6209 -0.1639  0.5831
  233SOD    SOD22293   4.736   2.940   7.346  0.4138  0.1997  0.2610
  234CLA    CLA22294   4.401   4.467   1.792 -0.1805 -0.3764  0.3653
  235CLA    CLA22295   5.384   2.721   0.994 -0.3228 -0.2121  0.1430
  236CLA    CLA22296   0.405   3.305   1.787 -0.5690  0.2868  0.0087
  237CLA    CLA22297   0.178   2.423   8.415  0.1333  0.4422 -0.1078
  238CLA    CLA22298   0.869   3.568   8.732 -0.2687 -0.1672 -0.0324
  239CLA    CLA22299   2.996   0.841   1.772 -0.0365  0.2410 -0.1306
  240CLA    CLA22300   3.510   6.551   0.404 -0.5908  0.2179 -0.0759
  241CLA    CLA22301   3.691   1.344   8.607  0.0395  0.0008 -0.0890
  242CLA    CLA22302   6.431   0.332   8.362  0.1588  0.4935  0.4307
  243CLA    CLA22303   3.220   4.537   0.745 -0.2595  0.1714  0.2661
  244CLA    CLA22304   1.893   1.837   2.036 -0.1530 -0.1783  0.1289
  245CLA    CLA22305   2.747   5.278   0.066  0.5381  0.1196 -0.1070
  246CLA    CLA22306   5.842   6.659   1.190  0.3297  0.2168  0.0090
  247CLA    CLA22307   4.272   0.332   1.473 -0.0568  0.0643  0.0419
  248CLA    CLA22308   2.517   5.660   8.078 -0.0364 -0.4058  0.0607
  249CLA    CLA22309   0.432   1.609   0.642  0.1146 -0.6402  0.0388
  250CLA    CLA22310   2.468   2.335   7.516 -0.0736  0.0230  0.0720
  251TIP3   OH222311   1.731   4.599   7.355  0.4130  0.1643  0.1839
  251TIP3    H122312   1.773   4.520   7.390  0.7492  0.8886  1.4533
  251TIP3    H222313   1.637   4.578   7.356  0.5492 -0.5178 -0.2948
  252TIP3   OH222314   4.006   2.787   8.305 -0.3034 -0.1620  0.2267
  252TIP3    H122315   3.949   2.720   8.343 -0.0622 -1.6247 -1.8273
  252TIP3    H222316   4.094   2.748   8.308 -0.2953 -0.4406 -1.8929
  253TIP3   OH222317   3.105   4.341   0.491  0.6885 -0.0701  0.2325
  253TIP3    H122318   3.123   4.249   0.512  0.3084  0.0128  0.9585
  253TIP3    H222319   3.143   4.390   0.565  0.2989  0.3119  0.1847
  254TIP3   OH222320   0.784   0.382   8.061 -0.1730 -0.3007  0.1063
  254TIP3    H122321   0.710   0.324   8.044  0.8942 -1.6058 -0.2453
  254TIP3    H222322   0.804   0.421   7.976  0.2536 -0.8344 -0.0439
  255TIP3   OH222323   0.458   5.236   2.461  0.0598 -0.0962 -0.3003
  255TIP3    H122324   0.542   5.248   2.416  0.2147 -2.3155 -0.6846
  255TIP3    H222325   0.476   5.262   2.552  0.5778  1.3988 -0.7899
  256TIP3   OH222326   5.833   5.149   2.119  0.1233  0.5317  0.2466
  256TIP3    H122327   5.898   5.217   2.139 -1.1553  1.2835  2.1420
  256TIP3    H222328   5.763   5.196   2.074 -0.5239  0.4068  1.0871
  257TIP3   OH222329   6.238   1.321   1.246 -0.1137  0.1312  0.7774
  257TIP3    H122330   6.252   1.259   1.317 -1.4516 -0.8409  0.2374
  257TIP3    H222331   6.284   1.282   1.171 -2.4603 -1.2391 -0.0540
  258TIP3   OH222332   1.237   3.880   0.458 -0.1269 -0.0910 -0.5618
  258TIP3    H122333   1.289   3.801   0.467  0.3043  0.1967 -0.5269
  258TIP3    H222334   1.300   3.949   0.438 -0.3693  0.4365  0.4058
  259TIP3   OH222335   6.346   0.787   7.486 -0.0933 -0.4949 -0.4714
  259TIP3    H122336   6.331   0.873   7.523 -2.0624 -0.3468 -1.4393
  259TIP3    H222337   6.337   0.726   7.559  1.1622  0.0808  0.1842
  260TIP3   OH222338   4.591   2.762   7.293 -0.3288  0.4931 -0.6980
  260TIP3    H122339   4.623   2.701   7.227  0.9803  0.9158 -0.4793
  260TIP3    H222340   4.512   2.721   7.328  1.3221 -1.8670  0.5148
  261TIP3   OH222341   4.202   0.129   7.194  0.2264  0.4016 -0.0575
  261TIP3    H122342   4.294   0.133   7.168  0.0388  0.7163 -0.6963
  261TIP3    H222343   4.179   0.220   7.215 -0.2493  0.5187 -1.0301
  262TIP3   OH222344   6.776   4.086   1.212 -0.0867  0.3749 -0.3186
  262TIP3    H122345   6.852   4.125   1.256  1.1881  1.2346 -3.0564
  262TIP3    H222346   6.708   4.153   1.218 -0.1503  0.2320  0.7983
  263TIP3   OH222347   0.331   6.240   1.656  0.2374  0.0756  0.5770
  263TIP3    H122348   0.343   6.272   1.746 -0.4355  0.1036  0.6640
  263TIP3    H222349   0.418   6.212   1.629  0.4287 -0.0427  1.2825
  264TIP3   OH222350   1.373   0.741   2.262  0.2048 -0.2677 -0.0621
  264TIP3    H122351   1.355   0.650   2.242  3.5073 -1.2822  0.9580
  264TIP3    H222352   1.377   0.744   2.358  0.0752  0.9749 -0.0790
  265TIP3   OH222353   3.639   4.518   0.721 -0.2155 -0.1690 -0.6069
  265TIP3    H122354   3.706   4.452   0.704  0.9929  1.4562 -2.6995
  265TIP3    H222355   3.566   4.494   0.664 -0.1073 -0.1566 -0.7511
  266TIP3   OH222356   2.284   3.028   8.248 -0.0015  0.4117  0.7792
  266TIP3    H122357   2.255   2.998   8.162 -0.3215  1.6134  0.4501
  266TIP3    H222358   2.214   3.003   8.307  1.1065 -2.2422  1.0869
  267TIP3   OH222359   6.299   4.977   1.960  0.6616 -0.6643 -0.2107
  267TIP3    H122360   6.241   4.901   1.968 -1.0419  0.3983 -1.7774
  267TIP3    H222361   6.309   4.990   1.866  3.3951 -0.6892  0.0014
  268TIP3   OH222362   1.045   1.784   7.368 -0.1141 -0.2205  0.4552
  268TIP3    H122363   1.031   1.730   7.290 -1.0283 -1.8205  1.6513
  268TIP3    H222364   1.064   1.871   7.334  0.0408 -0.9839 -1.5515
  269TIP3   OH222365   0.717   3.734   7.591  0.1829 -0.3537 -0.2813
  269TIP3    H122366   0.759   3.653   7.564 -1.0462 -0.7324 -1.1404
  269TIP3    H222367   0.772   3.768   7.661  2.1218 -0.6141 -1.6222
  270TIP3   OH222368   0.477   4.443   8.822 -0.1793 -0.2145  0.1210
  270TIP3    H122369   0.552   4.456   8.764 -0.6342  1.7751 -0.1038
  270TIP3    H222370   0.407   4.412   8.765 -0.3951  0.9741 -0.3004
  271TIP3   OH222371   6.618   2.136   0.027  0.4026 -0.6667  0.1215
  271TIP3    H122372   6.706   2.103   0.008  1.3324  0.5692  2.0367
  271TIP3    H222373   6.625   2.230   0.014 -0.7582 -0.5833 -0.0080
  272TIP3   OH222374   1.358   2.769   1.821 -0.3533 -0.5056 -0.1455
  272TIP3    H122375   1.280   2.825   1.819  0.4960  0.8741  1.5830
  272TIP3    H222376   1.333   2.694   1.874 -0.6906 -0.3390 -0.0691
  273TIP3   OH222377   1.192   0.912   0.872  0.1189  0.1265 -0.2003
  273TIP3    H122378   1.260   0.965   0.831 -1.1521  0.2752 -2.2140
  273TIP3    H222379   1.143   0.874   0.799  0.0358 -2.6316  1.1737
  274TIP3   OH222380   0.213   0.694   2.032  0.1175  0.3806  0.1258
  274TIP3    H122381   0.174   0.757   2.092 -0.6738 -1.5498  1.7518
  274TIP3    H222382   0.149   0.685   1.962 -0.8320 -0.2654  1.0498
  275TIP3   OH222383   5.637   5.424   0.861  0.0234 -0.1401 -0.3465
  275TIP3    H122384   5.634   5.485   0.935 -0.5972  0.8481 -1.1731
  275TIP3    H222385   5.731   5.412   0.844  0.1506  0.8453 -0.3896
  276TIP3   OH222386   1.846   2.208   0.506 -0.5804  0.3393 -0.4187
  276TIP3    H122387   1.815   2.217   0.596  2.2662  0.1586  0.6614
  276TIP3    H222388   1.792   2.137   0.470  0.8310 -2.5011  2.5007
  277TIP3   OH222389   0.684   6.123   2.497  0.2872  0.2846 -0.4478
  277TIP3    H122390   0.689   6.123   2.593 -2.6794 -1.1474 -0.2064
  277TIP3    H222391   0.648   6.209   2.475  0.2450  0.3264 -0.2156
  278TIP3   OH222392   3.810   0.453   8.331 -0.1552  0.1970  0.3173
  278TIP3    H122393   3.773   0.522   8.277  1.9810  0.6082 -0.7321
  278TIP3    H222394   3.845   0.389   8.269  1.0545 -0.0463  1.2035
  279TIP3   OH222395   6.372   2.377   2.056  0.0169  0.0129  0.3435
  279TIP3    H122396   6.461   2.342   2.059  1.5132  3.3437 -0.9777
  279TIP3    H222397   6.317   2.300   2.043  2.8940 -1.9715 -1.1727
  280TIP3   OH222398   6.307   2.327   1.684  0.1334 -0.9385 -0.0871
  280TIP3    H122399   6.256   2.327   1.766  1.3620 -0.4076  0.7135
  280TIP3    H222400   6.393   2.360   1.710  0.4936 -0.5748 -1.6515
  281TIP3   OH222401   2.842   2.353   6.903  0.2636  0.2514 -0.0103
  281TIP3    H122402   2.807   2.384   6.820  2.6371 -0.1330 -1.2428
  281TIP3    H222403   2.773   2.371   6.967 -2.7182 -1.6622 -2.3891
  282TIP3   OH222404   4.330   2.473   8.153 -0.2568 -0.3021 -0.0382
  282TIP3    H122405   4.377   2.552   8.178  1.3940 -0.7016 -1.6570
  282TIP3    H222406   4.258   2.504   8.098 -1.7799  0.2845  2.1585
  283TIP3   OH222407   6.279   5.221   7.422  0.2351 -0.0506 -0.2135
  283TIP3    H122408   6.360   5.267   7.443 -0.6809  1.0494  1.0782
  283TIP3    H222409   6.251   5.183   7.506 -0.2499 -0.9885 -0.7809
  284TIP3   OH222410   2.363   2.136   0.753  0.0825  0.5578  0.1419
  284TIP3    H122411   2.350   2.041   0.755 -2.1935  0.6387 -2.9314
  284TIP3    H222412   2.453   2.148   0.723  0.6683 -0.5731  1.3595
  285TIP3   OH222413   3.647   1.915   8.881  0.1491 -0.0479  0.2756
  285TIP3    H122414   3.641   2.004   8.918 -1.0166 -0.3347  0.8094
  285TIP3    H222415   3.713   1.872   8.936  1.9303  0.9279 -0.9810
  286TIP3   OH222416   4.248   6.195   8.863  0.1886  0.0438  0.0247
  286TIP3    H122417   4.188   6.227   8.796  1.2170  2.0704  0.0122
  286TIP3    H222418   4.191   6.163   8.933 -0.8854  0.1777 -0.7611
  287TIP3   OH222419   6.550   5.885   2.109  0.2958 -0.7552 -0.4728
  287TIP3    H122420   6.534   5.967   2.062 -1.8654 -0.4990  0.5795
  287TIP3    H222421   6.645   5.875   2.107  0.6414  1.7763 -0.6435
  288TIP3   OH222422   0.961   4.274   7.803  0.1608 -0.5092 -0.1198
  288TIP3    H122423   1.051   4.290   7.831 -0.2115 -0.1570  0.8996
  288TIP3    H222424   0.918   4.359   7.809 -0.5463 -0.9025  0.5372
  289TIP3   OH222425   4.425   2.590   7.722 -0.1464 -0.1742 -0.1753
  289TIP3    H122426   4.330   2.577   7.724 -0.2906  0.8299 -0.0296
  289TIP3    H222427   4.459   2.536   7.793 -0.7403  0.4151  0.5753
  290TIP3   OH222428   5.004   3.930   1.097 -0.1798 -0.4976  0.3618
  290TIP3    H122429   4.965   3.892   1.019  0.5470 -0.7942  0.1312
  290TIP3    H222430   5.065   3.863   1.129  0.3219  0.0443  0.5661
  291TIP3   OH222431   4.396   3.508   8.525 -0.1797  0.5894  0.0468
  291TIP3    H122432   4.444   3.425   8.524  0.3920  0.9014  0.9860
  291TIP3    H222433   4.403   3.540   8.435  0.1382 -0.0702 -0.1723
  292TIP3   OH222434   0.675   5.311   0.238 -0.4732 -0.3401 -0.1287
  292TIP3    H122435   0.700   5.226   0.275 -0.0518 -1.0814 -1.9910
  292TIP3    H222436   0.582   5.302   0.219 -1.2576  0.8290  2.6439
  293TIP3   OH222437   6.604   2.186   2.202 -0.6724  0.2157  0.0187
  293TIP3    H122438   6.606   2.231   2.287 -3.4010 -1.1887  0.9613
  293TIP3    H222439   6.661   2.110   2.214  0.1044  0.7807  0.0456
  294TIP3   OH222440   1.477   2.564   6.707  0.1279  0.8399 -0.9144
  294TIP3    H122441   1.394   2.530   6.741  1.2162 -0.5675  0.5059
  294TIP3    H222442   1.515   2.491   6.658  1.6069  0.5727  0.5221
  295TIP3   OH222443   0.736   3.973   0.948 -0.0607  0.7855 -0.4263
  295TIP3    H122444   0.684   3.963   1.028 -1.3806 -0.9383 -1.4370
  295TIP3    H222445   0.785   3.891   0.941  0.0010  0.8957 -1.3948
  296TIP3   OH222446   5.472   2.268   0.640  0.5690  0.1596  0.2068
  296TIP3    H122447   5.492   2.174   0.631  1.3252  0.4071 -1.0068
  296TIP3    H222448   5.519   2.309   0.567  0.9053  1.5823  1.1835
  297TIP3   OH222449   1.249   0.970   2.459  0.4802  0.3382  0.0557
  297TIP3    H122450   1.316   0.916   2.500  1.9584  1.4501 -0.7745
  297TIP3    H222451   1.202   1.009   2.533  0.6161 -0.5916  0.6586
  298TIP3   OH222452   3.966   1.143   1.542 -0.2889 -0.4146  0.3268
  298TIP3    H122453   3.976   1.062   1.592  0.4382 -0.4416  0.1447
  298TIP3    H222454   4.055   1.177   1.533 -0.6132  0.5640  0.6616
  299TIP3   OH222455   0.522   5.872   8.078 -0.1482  0.3739  0.6401
  299TIP3    H122456   0.602   5.906   8.118  0.1858  1.0485 -0.5523
  299TIP3    H222457   0.537   5.880   7.984 -0.1036 -3.0327  0.2502
  300TIP3   OH222458   3.063   4.018   8.437  0.2107 -0.1100 -0.6199
  300TIP3    H122459   3.133   3.956   8.459  1.9136  1.4190 -1.4749
  300TIP3    H222460   3.038   3.995   8.348  0.7865  0.3617 -0.9083
  301TIP3   OH222461   6.703   4.602   8.726 -0.3726  0.0185 -0.6737
  301TIP3    H122462   6.767   4.656   8.773 -0.0202  0.7243 -1.8918
  301TIP3    H222463   6.740   4.514   8.727  0.8137  0.4744 -1.6221
  302TIP3   OH222464   3.832   5.857   8.363  0.4333 -0.0705 -0.1846
  302TIP3    H122465   3.882   5.814   8.293 -0.7434  0.1422 -1.2056
  302TIP3    H222466   3.813   5.944   8.328 -0.2036  0.0255  0.3862
  303TIP3   OH222467   0.815   6.060   2.151 -0.0495  0.8626 -0.0165
  303TIP3    H122468   0.853   5.979   2.184 -2.9773 -1.3054 -1.4173
  303TIP3    H222469   0.786   6.107   2.229 -0.9718 -0.9588  0.8000
  304TIP3   OH222470   3.952   2.559   2.766 -0.3368 -0.3994  0.5284
  304TIP3    H122471   3.882   2.582   2.827 -0.6638 -0.2478  0.0963
  304TIP3    H222472   4.003   2.492   2.813  1.8805  2.5121  2.6927
  305TIP3   OH222473   0.263   4.251   0.763 -0.3267  0.0274  0.1529
  305TIP3    H122474   0.341   4.298   0.790 -0.1456 -0.8781  1.2968
  305TIP3    H222475   0.209   4.245   0.842 -0.7340 -0.9031 -0.1682
  306TIP3   OH222476   1.554   6.783   8.766  0.3728 -0.6424 -0.6604
  306TIP3    H122477   1.596   6.778   8.852  1.0052 -2.5330 -1.0353
  306TIP3    H222478   1.460   6.790   8.786  0.6264  0.6752  0.1690
  307TIP3   OH222479   4.288   3.139   7.875  0.2901  0.0464  0.3661
  307TIP3    H122480   4.282   3.225   7.834 -1.1932  0.2298  0.8938
  307TIP3    H222481   4.374   3.106   7.849  0.3019  1.0691 -1.0241
  308TIP3   OH222482   5.177   6.583   0.691  0.0196 -0.3920 -0.0606
  308TIP3    H122483   5.245   6.522   0.719 -0.8508 -1.9660 -1.2302
  308TIP3    H222484   5.127   6.601   0.771  1.4574  0.3790  0.7050
  309TIP3   OH222485   1.232   2.010   7.262  0.0695  0.5927  0.2260
  309TIP3    H122486   1.268   1.989   7.176  0.9214 -0.0762  0.7334
  309TIP3    H222487   1.139   2.025   7.246  0.5961  2.8360 -1.2135
  310TIP3   OH222488   0.926   3.454   0.807 -0.2460  0.4463  0.3255
  310TIP3    H122489   0.866   3.506   0.861 -0.7817 -0.1799  0.3517
  310TIP3    H222490   0.976   3.402   0.870 -0.5250  0.0805  0.2485
  311TIP3   OH222491   6.736   3.821   2.197  0.0818  0.1866  0.0864
  311TIP3    H122492   6.654   3.860   2.170  0.1822  1.4618  1.4938
  311TIP3    H222493   6.717   3.728   2.205 -1.1411  0.4293  0.1291
  312TIP3   OH222494   1.605   4.908   0.842  0.8565  0.1345 -0.3462
  312TIP3    H122495   1.612   4.901   0.747 -0.1629 -0.1782 -0.4159
  312TIP3    H222496   1.609   5.002   0.860 -0.0316  0.2728 -0.8128
  313TIP3   OH222497   2.070   0.483   2.217 -0.7644 -0.1713 -0.5568
  313TIP3    H122498   1.998   0.538   2.248 -0.3081 -0.3393  0.8974
  313TIP3    H222499   2.050   0.396   2.252 -1.2222 -0.8544 -2.4083
  314TIP3   OH222500   1.939   5.834   7.951 -0.1888  0.0839 -0.3931
  314TIP3    H122501   1.979   5.868   7.871 -0.9670 -0.4519 -1.0282
  314TIP3    H222502   2.008   5.841   8.018  0.4999  0.4458 -1.1296
  315TIP3   OH222503   0.533   4.968   0.116 -0.0266  0.4564 -0.1469
  315TIP3    H122504   0.626   4.966   0.093  0.0928  1.3431  0.2296
  315TIP3    H222505   0.488   4.948   0.034  0.5273 -1.7776  0.0382
  316TIP3   OH222506   3.987   1.342   7.784  0.2654 -0.0808 -0.2694
  316TIP3    H122507   4.030   1.301   7.710  0.8223 -0.0771  0.0481
  316TIP3    H222508   3.901   1.300   7.789  0.5993 -0.7791 -0.3129
  317TIP3   OH222509   3.752   2.910   2.798  0.1492 -0.0873 -0.0966
  317TIP3    H122510   3.828   2.968   2.801  2.2608 -2.6493  2.5640
  317TIP3    H222511   3.690   2.948   2.860  0.2981  0.7144 -0.4226
  318TIP3   OH222512   5.908   0.875   8.815 -0.1995 -0.0069  0.0858
  318TIP3    H122513   5.890   0.782   8.831  1.3861 -0.4007 -0.2362
  318TIP3    H222514   5.969   0.899   8.885 -1.0310  0.9622  0.4991
  319TIP3   OH222515   3.292   3.158   0.896  0.2163 -0.2673 -0.0097
  319TIP3    H122516   3.276   3.153   0.991 -0.3386  0.8185 -0.0297
  319TIP3    H222517   3.342   3.238   0.884  0.6679 -0.6304 -0.5950
  320TIP3   OH222518   2.112   0.527   1.533 -0.2108  0.1200  0.1164
  320TIP3    H122519   2.203   0.541   1.557  0.1184 -1.5626  0.0056
  320TIP3    H222520   2.110   0.541   1.438  0.7957 -3.2444 -0.5555
  321TIP3   OH222521   3.265   5.012   1.484  0.3360 -0.3961  0.0135
  321TIP3    H122522   3.294   5.100   1.506  0.6294 -0.4636 -0.1039
  321TIP3    H222523   3.179   5.004   1.526  0.9921 -0.6075  1.3272
  322TIP3   OH222524   5.877   6.583   1.482  0.0639 -0.0955 -0.0052
  322TIP3    H122525   5.898   6.605   1.391  1.6438 -0.0515  0.3370
  322TIP3    H222526   5.846   6.666   1.520 -2.2653 -0.4841 -0.8961
  323TIP3   OH222527   3.714   1.151   1.397  0.6563  0.4617  0.0814
  323TIP3    H122528   3.672   1.066   1.402 -0.1857  0.7607 -1.4294
  323TIP3    H222529   3.784   1.147   1.462  1.0328 -1.6062 -0.3921
  324TIP3   OH222530   0.497   1.070   8.380  0.1216  0.4739  0.4643
  324TIP3    H122531   0.495   0.975   8.367  0.0241  0.3055  1.6004
  324TIP3    H222532   0.432   1.104   8.319 -0.4709 -0.2783  0.6524
  325TIP3   OH222533   0.099   0.685   0.109 -0.3394 -0.0399 -0.1475
  325TIP3    H122534   0.143   0.600   0.112  0.7432  0.5237  0.7507
  325TIP3    H222535   0.072   0.701   0.199 -0.4556  0.6031 -0.2921
  326TIP3   OH222536   6.289   2.096   7.292 -0.1736 -0.2354 -0.4242
  326TIP3    H122537   6.231   2.095   7.216  0.2556  0.3176 -0.7677
  326TIP3    H222538   6.308   2.004   7.309 -1.7150 -0.4730  0.1411
  327TIP3   OH222539   3.941   3.175   8.601 -0.4942 -0.3861  0.7249
  327TIP3    H122540   3.945   3.146   8.510 -0.4355 -0.8505  0.8718
  327TIP3    H222541   3.953   3.270   8.597 -1.8490 -0.2121  0.1350
  328TIP3   OH222542   5.018   1.116   0.705  0.1688 -0.0842  0.1750
  328TIP3    H122543   5.093   1.121   0.646  0.8411 -2.8689  0.6770
  328TIP3    H222544   5.046   1.166   0.782  0.7083  0.5222 -0.3936
  329TIP3   OH222545   3.194   2.780   0.975  0.4079 -0.4567 -0.6396
  329TIP3    H122546   3.202   2.797   1.068  1.4967  1.5128 -1.0437
  329TIP3    H222547   3.155   2.859   0.939  1.3974 -0.5748 -2.0472
  330TIP3   OH222548   2.536   2.517   1.198 -0.1783  0.1173  0.0612
  330TIP3    H122549   2.513   2.458   1.270 -1.6321  1.4680  0.7380
  330TIP3    H222550   2.453   2.542   1.159  0.5134  0.5406 -1.2039
  331TIP3   OH222551   4.717   4.510   2.276 -0.8086  0.9973  0.3026
  331TIP3    H122552   4.667   4.540   2.200  0.4652 -0.5777 -1.2300
  331TIP3    H222553   4.665   4.438   2.312 -0.9018  1.0550  0.2837
  332TIP3   OH222554   6.156   0.400   0.376  0.1991 -0.2922 -0.2709
  332TIP3    H122555   6.234   0.410   0.430  1.1191  1.0381 -1.7804
  332TIP3    H222556   6.099   0.472   0.403  0.9317  0.7681 -1.4703
  333TIP3   OH222557   0.648   1.837   2.246 -0.1278 -0.3080 -0.0804
  333TIP3    H122558   0.566   1.872   2.211 -0.5539 -0.3773  0.8075
  333TIP3    H222559   0.712   1.853   2.177 -1.0229 -0.8739 -1.0820
  334TIP3   OH222560   2.217   5.873   0.187  0.1959  0.3726  0.3772
  334TIP3    H122561   2.307   5.839   0.186  0.3139  0.6528  0.8623
  334TIP3    H222562   2.173   5.823   0.256 -0.7116 -1.4319 -1.4024
  335TIP3   OH222563   0.502   0.697   2.061 -0.3793 -0.2930 -0.1850
  335TIP3    H122564   0.418   0.679   2.017 -0.4972  2.7685 -1.4212
  335TIP3    H222565   0.492   0.659   2.148 -2.6440 -0.9422 -0.6608
  336TIP3   OH222566   1.064   4.230   0.438 -0.0913  0.3274  0.2819
  336TIP3    H122567   1.049   4.248   0.345 -0.9721 -0.2763  0.2905
  336TIP3    H222568   1.012   4.296   0.485 -1.0875 -0.4550  0.3211
  337TIP3   OH222569   1.966   2.817   8.113 -0.0226  0.6755  0.0322
  337TIP3    H122570   1.918   2.827   8.196  1.2777  1.0905  0.7633
  337TIP3    H222571   1.915   2.869   8.051  0.2793  2.3814  1.1380
  338TIP3   OH222572   1.190   0.246   8.304 -0.8953  0.2933  0.1416
  338TIP3    H122573   1.161   0.308   8.237  1.8187  0.0656 -1.3921
  338TIP3    H222574   1.137   0.168   8.289 -2.0421  1.0930 -0.0771
  339TIP3   OH222575   5.939   0.593   7.687  0.1726 -0.0942  0.1192
  339TIP3    H122576   5.864   0.653   7.680  0.0614 -0.2746 -0.2297
  339TIP3    H222577   6.014   0.650   7.704 -0.0620  0.0786  0.5986
  340TIP3   OH222578   3.167   6.474   1.260  0.1596 -0.2842 -0.2443
  340TIP3    H122579   3.087   6.513   1.295 -0.3874 -1.4841 -0.1328
  340TIP3    H222580   3.177   6.514   1.173  0.1210  0.7681  0.2147
  341TIP3   OH222581   0.290   3.255   1.266  0.3519 -0.4247 -0.0784
  341TIP3    H122582   0.200   3.266   1.236  0.6958  1.1028 -0.6325
  341TIP3    H222583   0.293   3.165   1.300 -0.1911 -2.2120 -4.1330
  342TIP3   OH222584   0.787   1.472   7.268  0.0513  0.3639  0.2440
  342TIP3    H122585   0.812   1.469   7.175 -1.7761  0.7599 -0.3101
  342TIP3    H222586   0.724   1.544   7.273 -0.5328 -0.2049  1.6225
  343TIP3   OH222587   3.650   2.736   7.963  0.0139  0.4594 -0.1839
  343TIP3    H122588   3.637   2.830   7.976  0.3246  0.5522 -0.5499
  343TIP3    H222589   3.681   2.727   7.874 -1.8560 -0.1745 -0.8310
  344TIP3   OH222590   1.901   1.164   0.052  0.4382  0.0091 -0.5815
  344TIP3    H122591   1.917   1.198  -0.035  0.0040  2.2726  0.1643
  344TIP3    H222592   1.987   1.137   0.084  1.3130  2.8521 -0.2915
  345TIP3   OH222593   4.207   3.544   0.543 -0.1773 -0.0050  0.0053
  345TIP3    H122594   4.227   3.533   0.451  1.1863  2.8443 -0.1402
  345TIP3    H222595   4.119   3.582   0.544 -0.6075 -0.9944 -0.0575
  346TIP3   OH222596   3.291   5.394   0.147  0.9595 -0.3035 -0.2601
  346TIP3    H122597   3.356   5.408   0.077 -0.1498 -1.5897 -1.6333
  346TIP3    H222598   3.275   5.300   0.145 -0.4967 -0.0927  0.4548
  347TIP3   OH222599   0.637   5.502   1.111 -0.5281 -0.3615  0.1157
  347TIP3    H122600   0.626   5.414   1.147  0.2213 -0.2462  0.6376
  347TIP3    H222601   0.559   5.550   1.141  0.7168  0.1224  2.8020
  348TIP3   OH222602   0.517   3.276   0.202 -0.2521  0.0225 -0.1152
  348TIP3    H122603   0.556   3.362   0.187  0.7551 -0.3039  0.5267
  348TIP3    H222604   0.492   3.246   0.115  0.5574  0.4305 -0.5029
  349TIP3   OH222605   2.166   5.705   1.348 -0.4696 -0.0396  0.0976
  349TIP3    H122606   2.100   5.636   1.344 -1.6902  0.8863  2.1815
  349TIP3    H222607   2.235   5.670   1.405  0.4266 -0.6587 -1.3332
  350TIP3   OH222608   1.099   5.680   6.926 -0.0774 -0.0390 -0.1926
  350TIP3    H122609   1.034   5.610   6.920 -2.8724  2.1923  1.1785
  350TIP3    H222610   1.147   5.661   7.007 -0.1234 -0.8913 -0.3553
  351TIP3   OH222611   0.423   3.562   7.227  0.4277  0.0412 -0.3369
  351TIP3    H122612   0.335   3.559   7.190 -1.3606 -4.2527  3.2620
  351TIP3    H222613   0.410   3.591   7.318  3.0510  0.9857 -0.1796
  352TIP3   OH222614   4.008   2.481   0.658 -0.0768  0.3058  0.0326
  352TIP3    H122615   4.051   2.512   0.578 -1.2739  0.7506 -0.4597
  352TIP3    H222616   3.941   2.420   0.627  0.7075 -0.9915  0.8371
  353TIP3   OH222617   4.297   6.299   0.822  0.0144  0.3142  0.1676
  353TIP3    H122618   4.302   6.393   0.838  1.8884  0.2187  0.3565
  353TIP3    H222619   4.388   6.271   0.817 -0.5116 -1.5832  0.5703
  354TIP3   OH222620   6.787   0.785   3.250  0.6942 -0.3232  0.0733
  354TIP3    H122621   6.815   0.828   3.331  0.9080  0.3452 -0.3408
  354TIP3    H222622   6.866   0.781   3.196  0.3928 -0.0580 -0.3990
  355TIP3   OH222623   5.535   5.334   1.128  0.3072 -0.6689  0.2517
  355TIP3    H122624   5.628   5.315   1.139 -0.0458 -2.1799  0.8788
  355TIP3    H222625   5.532   5.425   1.098  2.0101 -0.8026 -0.4198
  356TIP3   OH222626   4.732   3.408   2.093 -0.2002 -0.0651 -0.3335
  356TIP3    H122627   4.763   3.328   2.135 -0.0673 -0.3959 -1.0462
  356TIP3    H222628   4.672   3.377   2.025  0.4383  0.3952 -1.1135
  357TIP3   OH222629   5.628   5.290   2.632  0.1332 -0.6016  0.3079
  357TIP3    H122630   5.625   5.204   2.590  0.7959 -0.5761  0.1978
  357TIP3    H222631   5.599   5.274   2.721  0.8466 -1.0654  0.4689
  358TIP3   OH222632   4.545   1.386   8.696  0.2839 -0.5488 -0.0195
  358TIP3    H122633   4.481   1.349   8.757  1.0701  0.4690  1.4864
  358TIP3    H222634   4.624   1.333   8.708  0.8375  0.4349  0.7980
  359TIP3   OH222635   0.202   0.708   8.748 -0.0338 -0.5154 -0.3271
  359TIP3    H122636   0.187   0.712   8.843  0.8005  0.7778 -0.2176
  359TIP3    H222637   0.265   0.637   8.737  1.6523  0.7701  0.3985
  360TIP3   OH222638   2.964   4.161   1.316  0.6102 -0.2500  0.4386
  360TIP3    H122639   3.053   4.186   1.342  1.3887 -1.5955 -0.8092
  360TIP3    H222640   2.972   4.070   1.288 -0.6724  0.3048 -1.9467
  361TIP3   OH222641   2.724   2.539   8.811 -0.0930  0.3426 -0.0623
  361TIP3    H122642   2.670   2.486   8.868 -0.1723  2.0791  1.5854
  361TIP3    H222643   2.742   2.483   8.735 -0.4823 -1.8409  1.3648
  362TIP3   OH222644   6.387   0.124   2.175 -0.4074  0.4579 -0.9465
  362TIP3    H122645   6.323   0.187   2.209  0.1646  1.0218 -0.9086
  362TIP3    H222646   6.388   0.054   2.241 -0.3270  0.8778 -0.4920
  363TIP3   OH222647   5.191   1.401   8.479 -0.0324 -0.0278 -0.3158
  363TIP3    H122648   5.183   1.366   8.567  0.1004  0.7618  0.0216
  363TIP3    H222649   5.152   1.488   8.484 -1.0693 -0.4062 -1.3188
  364TIP3   OH222650   0.141   6.107   1.780  0.2451 -0.4880  0.3671
  364TIP3    H122651   0.190   6.169   1.725 -1.8074  1.3977  0.5267
  364TIP3    H222652   0.178   6.119   1.868 -0.3674  0.8715  0.4747
  365TIP3   OH222653   3.890   5.247   2.804 -0.4132  0.1137 -0.0249
  365TIP3    H122654   3.859   5.249   2.895 -1.6242 -1.3210 -0.3542
  365TIP3    H222655   3.922   5.158   2.792 -0.2821  0.2855 -1.0162
  366TIP3   OH222656   3.802   3.993   8.588  0.2289 -0.3586  0.1768
  366TIP3    H122657   3.771   3.905   8.610 -1.3841 -0.1974 -1.2250
  366TIP3    H222658   3.891   3.996   8.623 -0.2726 -1.9369  1.7407
  367TIP3   OH222659   2.936   1.614   0.436  0.0094 -0.1349 -0.3296
  367TIP3    H122660   2.872   1.571   0.378  1.1778 -0.1481 -1.6542
  367TIP3    H222661   2.960   1.546   0.499 -0.9233 -0.2739 -0.1111
  368TIP3   OH222662   1.747   1.255   2.061 -0.7284  0.4963  0.4558
  368TIP3    H122663   1.722   1.210   2.142  1.3665  1.3236  1.6718
  368TIP3    H222664   1.667   1.258   2.009 -1.4092 -2.9916  1.0449
  369TIP3   OH222665   1.128   5.251   1.863 -0.4062  0.2136  0.2358
  369TIP3    H122666   1.177   5.178   1.902 -0.9229  0.3928  1.2734
  369TIP3    H222667   1.194   5.318   1.846  0.1374 -0.6156 -1.0850
  370TIP3   OH222668   1.032   2.411   8.663  0.6980 -0.2035  0.2604
  370TIP3    H122669   1.118   2.399   8.623  0.7761 -0.0739  0.3879
  370TIP3    H222670   0.969   2.399   8.592  0.7971 -0.8187  0.2680
  371TIP3   OH222671   4.783   5.083   1.113 -0.1955 -0.8664 -0.0702
  371TIP3    H122672   4.860   5.028   1.130  0.4527  0.2964  0.9364
  371TIP3    H222673   4.812   5.172   1.135 -1.8400 -0.4048  0.3440
  372TIP3   OH222674   3.372   5.591   0.343 -0.3687  0.5091 -0.0268
  372TIP3    H122675   3.383   5.536   0.265 -0.2359 -1.7654  1.4788
  372TIP3    H222676   3.428   5.667   0.328  1.6722 -1.1076 -1.0772
  373TIP3   OH222677   0.366   0.465   0.712 -0.3605  0.0916  0.3737
  373TIP3    H122678   0.335   0.555   0.711 -1.2536 -0.1920  1.3386
  373TIP3    H222679   0.345   0.433   0.800 -2.0416 -1.7304 -0.6265
  374TIP3   OH222680   0.512   3.511   8.495 -0.9559 -0.8963  0.5374
  374TIP3    H122681   0.454   3.579   8.460 -1.6004 -1.6582  0.0945
  374TIP3    H222682   0.494   3.510   8.589  0.2618  0.6637  0.8420
  375TIP3   OH222683   5.762   1.227   7.758  0.1023  0.3034 -0.0161
  375TIP3    H122684   5.704   1.205   7.830  1.1425  0.1454  0.8033
  375TIP3    H222685   5.790   1.143   7.723  0.5030  0.3661  0.1494
  376TIP3   OH222686   1.196   3.146   7.186  0.2509  0.0556  0.2328
  376TIP3    H122687   1.110   3.107   7.204  0.7743 -0.8524  0.8206
  376TIP3    H222688   1.234   3.090   7.119 -0.2417  1.3859 -1.2243
  377TIP3   OH222689   2.437   1.980   0.152 -0.1002  0.1170  0.0015
  377TIP3    H122690   2.359   1.925   0.157 -1.8844  2.5512  1.7496
  377TIP3    H222691   2.468   1.985   0.242  0.2279  1.6116 -0.1683
  378TIP3   OH222692   6.488   5.775   8.532 -0.6301  0.3962 -0.6128
  378TIP3    H122693   6.564   5.809   8.485 -0.9386  1.8732 -0.1011
  378TIP3    H222694   6.494   5.813   8.619 -0.8271 -1.1792  0.1351
  379TIP3   OH222695   6.451   6.425   7.872  0.1871 -0.0517 -0.6068
  379TIP3    H122696   6.428   6.492   7.808 -1.8505  1.2973  1.3729
  379TIP3    H222697   6.374   6.368   7.876 -0.4347  0.7952  1.6020
  380TIP3   OH222698   6.040   2.408   8.595  0.0646 -0.7228  0.0651
  380TIP3    H122699   5.985   2.356   8.653  2.6977 -1.1137  2.4312
  380TIP3    H222700   6.088   2.343   8.544  0.3421 -0.4975  0.0363
  381TIP3   OH222701   2.691   1.869   1.230  0.7686  0.9773  0.1807
  381TIP3    H122702   2.779   1.877   1.268  0.4034  1.0606  1.0143
  381TIP3    H222703   2.632   1.895   1.300  0.0218  0.0742 -0.0950
  382TIP3   OH222704   1.075   5.783   8.849 -0.0794  0.5326  0.1194
  382TIP3    H122705   1.127   5.863   8.836  1.5797  0.0703  3.0419
  382TIP3    H222706   1.123   5.715   8.801 -0.0920  0.7779 -0.2521
  383TIP3   OH222707   4.588   6.098   7.166 -0.2241  0.4395 -0.5181
  383TIP3    H122708   4.501   6.098   7.125  0.3539  0.2342 -1.7758
  383TIP3    H222709   4.637   6.031   7.118  1.4395  2.3446 -1.5919
  384TIP3   OH222710   0.850   5.400   8.428 -0.1001 -0.4120  0.4947
  384TIP3    H122711   0.804   5.316   8.434 -0.3694 -0.2872  0.1870
  384TIP3    H222712   0.787   5.464   8.462  0.3755 -0.4274  1.4340
  385TIP3   OH222713   5.534   4.603   7.223  0.4539  0.1131 -0.3651
  385TIP3    H122714   5.445   4.570   7.228  0.2764  0.7403  1.1009
  385TIP3    H222715   5.590   4.525   7.223 -0.0802 -0.3920 -3.2029
  386TIP3   OH222716   3.696   2.225   1.498 -0.2493  0.4811 -0.0490
  386TIP3    H122717   3.763   2.294   1.502  0.8495 -0.4650 -1.4931
  386TIP3    H222718   3.687   2.195   1.588  0.1505  1.6635  0.4007
  387TIP3   OH222719   6.768   5.976   8.129  0.3476 -0.2109  0.0723
  387TIP3    H122720   6.765   5.881   8.139 -2.1202 -0.2307 -0.1421
  387TIP3    H222721   6.704   6.009   8.192  1.5398  1.3816  0.5198
  388TIP3   OH222722   0.549   0.956   0.937 -0.0241  0.3768 -0.1268
  388TIP3    H122723   0.574   0.864   0.933 -0.5684  0.2475 -0.8417
  388TIP3    H222724   0.624   1.000   0.977  0.6399 -0.2413 -0.6622
  389TIP3   OH222725   4.830   6.386   1.227  0.6857 -0.2203 -0.2892
  389TIP3    H122726   4.797   6.352   1.310  0.0274  1.6923  0.2734
  389TIP3    H222727   4.893   6.453   1.251  2.0464 -1.0491 -1.3747
  390TIP3   OH222728   0.792   1.356   0.265  0.1227  0.0970  0.2529
  390TIP3    H122729   0.877   1.399   0.278  1.3826 -2.3833  0.6660
  390TIP3    H222730   0.772   1.316   0.350 -1.4372  0.5466  0.1290
  391TIP3   OH222731   5.870   3.553   7.919  0.0487  0.6062  0.0891
  391TIP3    H122732   5.782   3.551   7.957  0.1817 -0.0042  0.3784
  391TIP3    H222733   5.906   3.466   7.936  0.8538  0.9672  0.3151
  392TIP3   OH222734   4.157   6.058   7.651  0.5069 -0.4158 -0.0844
  392TIP3    H122735   4.100   5.991   7.613  1.6911 -1.2008 -0.5388
  392TIP3    H222736   4.113   6.141   7.631 -0.7799 -1.0114  0.1244
  393TIP3   OH222737   5.506   1.934   1.733 -0.0484 -0.3381 -0.0738
  393TIP3    H122738   5.475   2.022   1.752 -0.6622 -0.7916  1.1563
  393TIP3    H222739   5.467   1.912   1.648  0.0315  0.5205 -0.3404
  394TIP3   OH222740   4.275   5.996   8.174 -0.2251  0.2676  0.3238
  394TIP3    H122741   4.191   6.040   8.167 -0.3830  0.2444  1.6950
  394TIP3    H222742   4.338   6.066   8.192 -0.0867  0.2037  0.0858
  395TIP3   OH222743   4.695   5.479   1.009 -0.0637 -0.1362 -0.3780
  395TIP3    H122744   4.683   5.574   1.014  2.1178  0.2184 -0.8813
  395TIP3    H222745   4.744   5.457   1.088  0.0566 -0.7252 -0.6133
  396TIP3   OH222746   1.367   5.557   7.660  0.0740  0.5812  0.3968
  396TIP3    H122747   1.358   5.521   7.572  0.2448  1.5929 -0.0484
  396TIP3    H222748   1.432   5.500   7.702  1.2839  1.0900 -0.7057
  397TIP3   OH222749   2.555   2.946   0.202  0.0895  0.3453 -0.0248
  397TIP3    H122750   2.572   2.879   0.136  0.3908  0.6587 -0.2642
  397TIP3    H222751   2.594   3.026   0.167 -0.2411  0.6428  0.2739
  398TIP3   OH222752   6.427   4.458   0.436 -0.3829  0.2770 -0.1814
  398TIP3    H122753   6.368   4.413   0.376 -0.9843 -0.8487  1.2034
  398TIP3    H222754   6.512   4.415   0.424 -0.6618 -0.4076  0.2415
  399TIP3   OH222755   6.002   6.247   7.585 -0.0963 -0.1169 -0.7636
  399TIP3    H122756   6.013   6.341   7.600 -1.8545  0.0968 -0.5628
  399TIP3    H222757   5.933   6.241   7.519 -0.8943 -1.2654  0.1259
  400TIP3   OH222758   2.520   1.110   7.902 -0.2888 -0.1528  0.6089
  400TIP3    H122759   2.497   1.056   7.977 -1.8814 -1.3843 -0.6736
  400TIP3    H222760   2.450   1.176   7.898 -0.6522 -0.5560 -0.1646
  401TIP3   OH222761   4.450   3.709   1.021  0.2088  0.1172 -0.6423
  401TIP3    H122762   4.404   3.696   1.104 -0.4150  1.6498 -0.7096
  401TIP3    H222763   4.379   3.722   0.957  0.7004 -0.1777 -1.2550
  402TIP3   OH222764   4.481   2.609   2.380  0.6532 -0.0262  0.0285
  402TIP3    H122765   4.398   2.623   2.426  1.0048 -0.7917  0.9172
  402TIP3    H222766   4.466   2.646   2.293 -0.6586 -0.2538  0.1342
  403TIP3   OH222767   6.773   3.659   0.809  0.0119 -0.4349 -0.0368
  403TIP3    H122768   6.825   3.610   0.745 -1.1505 -1.7677 -0.0204
  403TIP3    H222769   6.697   3.603   0.825 -0.2843  0.3914  1.6715
  404TIP3   OH222770   2.827   2.923   8.417 -0.1189  0.3816  0.0503
  404TIP3    H122771   2.764   2.950   8.350  0.7633 -0.2000 -1.0552
  404TIP3    H222772   2.904   2.894   8.368  0.0762 -1.3267  1.2648
  405TIP3   OH222773   5.530   3.763   1.920 -0.0859  0.3271 -0.4431
  405TIP3    H122774   5.541   3.702   1.847  0.2602  0.9670 -0.9417
  405TIP3    H222775   5.592   3.733   1.987 -1.9718 -1.6217  0.5573
  406TIP3   OH222776   5.011   5.614   2.500  0.4250 -0.2429  0.4967
  406TIP3    H122777   5.082   5.575   2.448  1.0625  1.3435  0.1384
  406TIP3    H222778   5.055   5.673   2.561 -0.5203 -0.0023  0.9642
  407TIP3   OH222779   5.820   5.842   7.918 -0.1359 -0.1061 -0.6005
  407TIP3    H122780   5.831   5.904   7.845  0.2266 -0.4427 -0.8340
  407TIP3    H222781   5.793   5.897   7.991 -2.2076  0.0529 -1.4078
  408TIP3   OH222782   1.217   5.066   8.795 -0.0631 -0.5321  0.0955
  408TIP3    H122783   1.283   5.054   8.727  0.8651  0.6133  0.7468
  408TIP3    H222784   1.257   5.129   8.856 -2.7379  2.2746 -0.8233
  409TIP3   OH222785   5.968   6.533   0.541 -0.3568  0.3544 -0.1654
  409TIP3    H122786   6.049   6.580   0.520  0.5074  0.5919  3.1174
  409TIP3    H222787   5.900   6.601   0.540 -0.1555  0.5576 -0.8742
  410TIP3   OH222788   1.688   1.174   0.706 -0.4398  0.1634  0.5166
  410TIP3    H122789   1.782   1.166   0.721 -0.4771  0.3451  0.8490
  410TIP3    H222790   1.673   1.268   0.698 -0.0761  0.0602 -2.9083
  411TIP3   OH222791   3.066   0.475   2.119 -0.2997 -0.2720 -0.7861
  411TIP3    H122792   3.067   0.566   2.090 -0.7428  0.4882  1.3591
  411TIP3    H222793   3.128   0.430   2.062  0.4161  1.5220 -1.4747
  412TIP3   OH222794   5.958   2.001   1.101 -0.1962  0.5810  0.0573
  412TIP3    H122795   5.976   1.917   1.145  2.7587  0.9428 -0.2436
  412TIP3    H222796   5.865   2.018   1.118 -0.9538 -2.8183 -0.0317
  413TIP3   OH222797   1.352   5.070   7.635  0.1389  0.2792 -0.0647
  413TIP3    H122798   1.348   5.165   7.635  0.3182  0.2930  0.6674
  413TIP3    H222799   1.427   5.050   7.578  1.0436  0.6361  0.9716
  414TIP3   OH222800   5.687   3.506   0.385 -0.1950  0.3268  0.6995
  414TIP3    H122801   5.772   3.545   0.406  0.0861  0.1879 -0.1406
  414TIP3    H222802   5.633   3.523   0.462  0.4962  0.7043  1.1106
  415TIP3   OH222803   5.258   4.150   8.468  0.6199 -0.1682  0.0878
  415TIP3    H122804   5.212   4.084   8.519 -1.1307  0.2767 -0.8535
  415TIP3    H222805   5.288   4.103   8.390  0.3763 -0.0990 -0.0462
  416TIP3   OH222806   3.962   4.375   8.452  0.4351  0.2959  0.0440
  416TIP3    H122807   4.043   4.406   8.492  0.1898  0.3299  0.5288
  416TIP3    H222808   3.987   4.350   8.363  1.6527 -2.5125  1.0465
  417TIP3   OH222809   6.714   1.994   1.736  0.5057  0.4893  0.2217
  417TIP3    H122810   6.652   2.063   1.758 -1.2437 -0.8293 -0.3010
  417TIP3    H222811   6.665   1.913   1.750  1.4638 -0.5612 -2.0478
  418TIP3   OH222812   3.501   0.067   0.454  0.0117  0.3067 -0.0792
  418TIP3    H122813   3.499  -0.018   0.411 -0.8187  0.5250 -0.5100
  418TIP3    H222814   3.445   0.122   0.399 -0.1147  0.9113  0.6396
  419TIP3   OH222815   6.551   4.841   7.948 -0.8096 -0.8790  0.0113
  419TIP3    H122816   6.542   4.925   7.994 -1.2084 -0.8409 -0.1366
  419TIP3    H222817   6.500   4.779   8.000 -1.4504 -0.7882 -0.4957
  420TIP3   OH222818   1.279   1.333   7.960 -0.0337  0.4454  0.0472
  420TIP3    H122819   1.196   1.328   8.009 -0.2577 -1.8844 -0.4417
  420TIP3    H222820   1.253   1.366   7.874 -0.2430  0.8959  0.2758
  421TIP3   OH222821   2.767   3.389   1.092  0.2935 -0.3941  0.1951
  421TIP3    H122822   2.797   3.475   1.063  0.4320  0.4223  2.5353
  421TIP3    H222823   2.680   3.379   1.054  2.0113 -1.3219 -3.9280
  422TIP3   OH222824   2.090   6.598   8.464 -0.0067  0.1465  0.4671
  422TIP3    H122825   2.098   6.611   8.559  0.8620 -0.0855  0.4381
  422TIP3    H222826   2.066   6.684   8.430 -2.6476 -0.2431  1.1025
  423TIP3   OH222827   3.188   4.085   0.957  0.2687  0.4763 -0.3710
  423TIP3    H122828   3.251   4.143   0.914  0.1621  0.0908 -1.0558
  423TIP3    H222829   3.240   4.038   1.023  0.6698  0.2877 -0.8135
  424TIP3   OH222830   5.861   3.596   1.796 -0.1413 -0.2864  0.0850
  424TIP3    H122831   5.803   3.570   1.725  0.3695 -0.3717 -0.3106
  424TIP3    H222832   5.948   3.570   1.766  0.5103  2.3282 -0.5874
  425TIP3   OH222833   0.779   1.354   3.009  0.0174  0.0099  0.3126
  425TIP3    H122834   0.702   1.350   2.951 -0.3226 -0.0550  0.7651
  425TIP3    H222835   0.816   1.440   2.993  0.1755 -0.1653 -0.3172
  426TIP3   OH222836   1.160   6.249   0.743 -0.2907 -0.4155  0.2907
  426TIP3    H122837   1.147   6.216   0.831 -0.8070  0.1709  0.4441
  426TIP3    H222838   1.197   6.176   0.694  1.2638 -0.3677  1.3145
  427TIP3   OH222839   3.304   5.648   1.463 -0.2857 -0.2354  0.2768
  427TIP3    H122840   3.238   5.620   1.400 -0.9455  0.1718  0.7692
  427TIP3    H222841   3.254   5.669   1.542  0.4318  0.1207  0.6486
  428TIP3   OH222842   2.347   4.002   0.082  0.3505  0.2719 -0.1384
  428TIP3    H122843   2.341   3.914   0.120 -0.2622 -1.0456 -3.0570
  428TIP3    H222844   2.260   4.039   0.094 -0.3357 -0.7789 -1.6127
  429TIP3   OH222845   3.827   2.058   0.580 -0.1756  0.7050  0.5674
  429TIP3    H122846   3.880   1.978   0.575 -1.1535  0.1152 -1.4658
  429TIP3    H222847   3.745   2.031   0.621  0.1848  1.1014  1.5764
  430TIP3   OH222848   5.719   1.713   2.383  0.1039 -0.2141  0.4376
  430TIP3    H122849   5.647   1.710   2.446  1.4080 -0.1742  2.0101
  430TIP3    H222850   5.696   1.785   2.323 -1.0344 -0.0453  1.0527
  431TIP3   OH222851   1.392   6.715   0.208  0.0160 -0.3946  0.5266
  431TIP3    H122852   1.459   6.672   0.155 -0.2521  0.4012 -0.4676
  431TIP3    H222853   1.407   6.681   0.297  1.1026 -0.9706  0.1383
  432TIP3   OH222854   3.277   3.249   1.748  0.2807 -0.3843 -0.1168
  432TIP3    H122855   3.182   3.242   1.737  0.2150 -0.2090  0.3367
  432TIP3    H222856   3.312   3.248   1.659 -0.1102 -0.9829 -0.2669
  433TIP3   OH222857   3.711   4.232   1.038 -0.4165 -0.4317 -0.5962
  433TIP3    H122858   3.677   4.319   1.060  0.2246  0.0721 -1.5668
  433TIP3    H222859   3.772   4.212   1.109 -0.5221 -0.0640 -0.3983
  434TIP3   OH222860   1.359   2.811   7.982  0.1148 -0.3118  0.0791
  434TIP3    H122861   1.394   2.760   7.910  1.1717 -0.5866  0.7686
  434TIP3    H222862   1.415   2.889   7.987  0.8050 -0.8622  1.3310
  435TIP3   OH222863   1.651   6.629   0.097  0.0286 -0.2897  0.6071
  435TIP3    H122864   1.693   6.579   0.027 -1.8972 -0.0687 -0.8106
  435TIP3    H222865   1.662   6.575   0.175 -0.2953 -2.0226 -0.4802
  436TIP3   OH222866   2.708   0.200   8.088  0.0137 -0.3529  0.2249
  436TIP3    H122867   2.784   0.258   8.099  0.3140 -0.5036 -0.9033
  436TIP3    H222868   2.708   0.146   8.167  0.5386  0.2595  0.6603
  437TIP3   OH222869   5.013   3.771   0.657 -0.2250  0.3483 -0.2208
  437TIP3    H122870   5.067   3.782   0.579  0.2457 -0.6803 -0.0630
  437TIP3    H222871   5.001   3.676   0.665  3.1264 -0.0371  3.1548
  438TIP3   OH222872   0.592   0.473   0.559  0.1649 -0.0929  0.3755
  438TIP3    H122873   0.581   0.568   0.545  0.1947 -0.4289 -2.6956
  438TIP3    H222874   0.514   0.448   0.608 -0.1438  1.4321  0.7360
  439TIP3   OH222875   4.079   1.172   0.891  0.2296 -0.3176  0.3190
  439TIP3    H122876   4.074   1.210   0.803 -0.9051 -0.3324  0.3704
  439TIP3    H222877   4.058   1.080   0.879 -0.6925 -0.1656  0.7066
  440TIP3   OH222878   0.800   4.106   7.617  0.4679  0.1483 -0.2129
  440TIP3    H122879   0.809   4.024   7.666  0.5558  0.3091  0.0393
  440TIP3    H222880   0.871   4.161   7.649 -0.9671  1.1821  1.2992
  441TIP3   OH222881   2.134   0.434   8.358  0.1325 -0.0450 -0.1744
  441TIP3    H122882   2.060   0.400   8.407  1.0405 -1.7028  0.1143
  441TIP3    H222883   2.099   0.510   8.311 -1.3606  0.0949  1.0852
  442TIP3   OH222884   3.608   2.931   8.243  0.2541  0.1528  0.1924
  442TIP3    H122885   3.591   3.010   8.295  1.5385 -0.0391  0.9430
  442TIP3    H222886   3.672   2.958   8.178 -0.8483  0.2197 -0.9111
  443TIP3   OH222887   4.309   1.253   0.555 -0.0712  0.1353 -0.2396
  443TIP3    H122888   4.236   1.207   0.515  0.4762  0.0294 -1.1518
  443TIP3    H222889   4.380   1.245   0.491  0.2567  1.6056 -0.0969
  444TIP3   OH222890   1.401   1.757   0.399 -0.0751  0.2913  0.3942
  444TIP3    H122891   1.340   1.828   0.420  0.6246  0.3773  2.2768
  444TIP3    H222892   1.400   1.700   0.476 -1.6596 -2.5799 -1.5554
  445TIP3   OH222893   5.183   2.391   8.499  0.6451  0.0266  0.1168
  445TIP3    H122894   5.215   2.410   8.411 -0.1641  0.7068 -0.0469
  445TIP3    H222895   5.117   2.323   8.485 -0.6251  1.2396 -0.0254
  446TIP3   OH222896   1.321   6.336   0.486 -0.1692 -0.5885 -0.0222
  446TIP3    H122897   1.341   6.294   0.570 -1.2673 -0.2817  0.4205
  446TIP3    H222898   1.254   6.280   0.448  0.4125 -0.7915 -0.7627
  447TIP3   OH222899   1.280   0.169   8.007  0.1428 -0.7206  0.7235
  447TIP3    H122900   1.185   0.166   8.010  0.0903  0.1217  0.2614
  447TIP3    H222901   1.307   0.079   7.990 -0.6100 -0.8163 -0.0376
  448TIP3   OH222902   4.982   0.113   2.374  0.3788  0.1053 -0.3522
  448TIP3    H122903   5.049   0.182   2.377 -0.8737  1.4397 -1.5198
  448TIP3    H222904   5.019   0.047   2.315  0.7237  0.7778 -0.9051
  449TIP3   OH222905   5.897   1.492   7.512 -0.0067  0.1413 -0.0607
  449TIP3    H122906   5.926   1.443   7.435  0.7318 -0.4617  0.5847
  449TIP3    H222907   5.968   1.482   7.575 -0.5333  0.7570  0.6455
  450TIP3   OH222908   1.958   2.786   8.432  0.9065  0.8553 -0.0368
  450TIP3    H122909   2.046   2.817   8.453  0.0898  3.9103 -0.6185
  450TIP3    H222910   1.899   2.847   8.476 -0.9074  0.1881 -1.3970
  451TIP3   OH222911   5.440   3.109   7.445 -0.3992  0.0778  0.0608
  451TIP3    H122912   5.392   3.128   7.525 -1.3866  0.0299 -0.5054
  451TIP3    H222913   5.439   3.191   7.396  1.9853  0.7464  0.9456
  452TIP3   OH222914   2.984   0.557   0.379  0.0949  0.2919  0.7329
  452TIP3    H122915   2.893   0.563   0.352  0.1362 -3.3501 -0.7915
  452TIP3    H222916   3.029   0.625   0.329 -1.5563  1.2024  0.4426
  453TIP3   OH222917   4.493   0.374   8.136 -0.4843 -0.2687 -0.4393
  453TIP3    H122918   4.453   0.287   8.124 -1.1240 -0.2441  1.2214
  453TIP3    H222919   4.563   0.360   8.199 -1.0505  0.5254  0.3946
  454TIP3   OH222920   0.303   3.338   8.851 -0.1223  0.0754 -0.0158
  454TIP3    H122921   0.270   3.289   8.927  0.6884  0.1560  0.4039
  454TIP3    H222922   0.347   3.272   8.798 -0.5891  0.0397 -0.3593
  455TIP3   OH222923   3.495   2.856   8.652 -0.2276  0.7972 -0.0220
  455TIP3    H122924   3.531   2.944   8.661  1.4847 -0.0025  1.6520
  455TIP3    H222925   3.428   2.849   8.720 -0.7289  0.9363 -0.4859
  456TIP3   OH222926   2.562   3.941   8.317  0.2930  0.3279 -0.1142
  456TIP3    H122927   2.506   3.887   8.373  0.7645  1.7129  1.7654
  456TIP3    H222928   2.594   3.880   8.250 -1.5798 -1.0146  0.1316
  457TIP3   OH222929   1.886   1.113   2.566 -0.2324  0.0266 -0.2398
  457TIP3    H122930   1.904   1.088   2.656  0.2272  0.9865 -0.0562
  457TIP3    H222931   1.880   1.030   2.519 -0.4368 -0.4823  0.6571
  458TIP3   OH222932   3.519   0.489   7.729 -0.4164  0.2371 -0.2299
  458TIP3    H122933   3.428   0.458   7.729  0.1188 -1.4118  0.1627
  458TIP3    H222934   3.567   0.423   7.680  1.1891 -1.0190  2.7543
  459TIP3   OH222935   2.121   4.434   2.532 -0.0687  0.7773  0.6876
  459TIP3    H122936   2.062   4.359   2.525 -1.1628  1.7578 -1.5465
  459TIP3    H222937   2.201   4.397   2.571  0.0431 -1.9563 -1.7457
  460TIP3   OH222938   0.029   6.200   0.887 -0.3539  0.3644  0.1172
  460TIP3    H122939   0.088   6.223   0.959 -1.2712  0.2751  0.9075
  460TIP3    H222940  -0.055   6.239   0.911 -1.1736 -1.2558  0.0345
  461TIP3   OH222941   2.168   3.623   8.657 -0.4171  0.0529  0.2193
  461TIP3    H122942   2.178   3.562   8.583 -1.2865 -0.0453  0.1799
  461TIP3    H222943   2.201   3.575   8.732 -1.5024 -0.6403  0.2675
  462TIP3   OH222944   3.577   4.418   3.113  0.2326  0.4327  0.4036
  462TIP3    H122945   3.605   4.355   3.180  0.5785 -0.2794 -0.3898
  462TIP3    H222946   3.505   4.374   3.068  1.1798  0.1228 -0.8679
  463TIP3   OH222947   5.452   5.330   1.822 -0.6351  0.3361  0.0089
  463TIP3    H122948   5.388   5.398   1.841  0.1030  1.1197 -0.2696
  463TIP3    H222949   5.410   5.277   1.754 -0.2290  2.0136 -1.6319
  464TIP3   OH222950   4.147   4.001   8.058 -0.0941  0.7676 -0.2753
  464TIP3    H122951   4.122   4.001   8.151  1.2696  0.6264  0.1094
  464TIP3    H222952   4.145   3.909   8.033 -1.4240  0.8883 -0.6745
  465TIP3   OH222953   3.948   4.850   7.977 -0.2476 -0.2730  0.0017
  465TIP3    H122954   3.885   4.789   8.016 -0.2427 -1.7256 -2.1466
  465TIP3    H222955   4.015   4.795   7.938  0.5563  1.1605 -0.7250
  466TIP3   OH222956   6.408   0.518   0.586  0.1171  0.2596  0.0008
  466TIP3    H122957   6.389   0.597   0.637  1.2347 -0.0367  0.9134
  466TIP3    H222958   6.444   0.456   0.649 -0.3729 -0.8657 -0.7740
  467TIP3   OH222959   2.252   2.040   8.177  0.2035  0.5807 -0.6952
  467TIP3    H122960   2.317   2.089   8.126  1.8357  0.2059  0.8868
  467TIP3    H222961   2.184   2.104   8.197 -0.6089  0.6942 -3.4024
  468TIP3   OH222962   6.103   5.631   0.079  0.3318  0.1757  0.1851
  468TIP3    H122963   6.083   5.693   0.149 -1.5077  2.0388 -1.8625
  468TIP3    H222964   6.025   5.575   0.074 -1.1476  2.2517 -2.4846
  469TIP3   OH222965   1.446   6.725   7.859 -0.1928  0.1506  0.3041
  469TIP3    H122966   1.436   6.630   7.870  1.3282 -0.2526 -1.3754
  469TIP3    H222967   1.371   6.751   7.806  0.1771 -0.3732 -0.4828
  470TIP3   OH222968   6.626   3.297   0.029 -0.2175 -0.2742 -0.3853
  470TIP3    H122969   6.558   3.273   0.091  0.5365 -0.1598  0.5127
  470TIP3    H222970   6.703   3.248   0.059  0.1787 -0.1645 -1.1968
  471TIP3   OH222971   5.237   2.429   0.421 -0.1979  0.3599  0.1535
  471TIP3    H122972   5.297   2.445   0.494 -2.3335  0.4441  1.9731
  471TIP3    H222973   5.185   2.509   0.414 -0.7429 -0.0557 -0.7931
  472TIP3   OH222974   6.201   2.626   2.227  0.4174  0.6126  0.5132
  472TIP3    H122975   6.161   2.545   2.197  1.6510 -0.2725  1.1684
  472TIP3    H222976   6.163   2.642   2.313 -0.0581  0.9164  0.2529
  473TIP3   OH222977   5.052   6.298   1.683 -0.2971  0.3715  0.3127
  473TIP3    H122978   5.050   6.250   1.600 -0.9242 -0.2750  0.6884
  473TIP3    H222979   5.116   6.367   1.669  0.4919 -0.4617 -0.3016
  474TIP3   OH222980   6.226   2.605   1.502 -0.3057  0.1480  0.3221
  474TIP3    H122981   6.227   2.619   1.597  0.8231  0.7816  0.2312
  474TIP3    H222982   6.224   2.510   1.492  0.5288  0.0444  0.9929
  475TIP3   OH222983   1.754   5.578   2.092 -0.2685 -0.7014 -0.3829
  475TIP3    H122984   1.671   5.618   2.117  1.0872  1.9709  0.1703
  475TIP3    H222985   1.775   5.520   2.165 -2.4987 -3.0275 -1.4098
  476TIP3   OH222986   2.904   1.246   0.217  0.0995  0.1482 -0.5281
  476TIP3    H122987   2.991   1.253   0.177  0.3963  0.0412  0.0835
  476TIP3    H222988   2.847   1.216   0.146  0.2944  1.4411 -1.2606
  477TIP3   OH222989   5.558   3.806   7.823 -0.1779  0.4002  0.4751
  477TIP3    H122990   5.612   3.821   7.900  0.9041 -2.0139  0.2770
  477TIP3    H222991   5.614   3.831   7.749 -0.0865 -0.1256  0.3605
  478TIP3   OH222992   1.678   4.175   0.151 -0.0769 -0.0248 -0.0179
  478TIP3    H122993   1.675   4.079   0.143 -1.7062 -0.1477  1.4395
  478TIP3    H222994   1.652   4.207   0.065 -0.7440 -0.9224 -0.1610
  479TIP3   OH222995   5.848   0.695   8.121 -0.2555 -0.1501 -0.3396
  479TIP3    H122996   5.884   0.766   8.174  1.9272 -1.0530 -0.5059
  479TIP3    H222997   5.835   0.623   8.183  0.3857 -0.5535 -0.6642
  480TIP3   OH222998   1.307   3.306   8.685  0.1714 -0.3629 -0.0404
  480TIP3    H122999   1.228   3.320   8.634  0.3520  0.5694 -0.0876
  480TIP3    H223000   1.301   3.369   8.758 -0.0740 -1.6545  1.0960
  481TIP3   OH223001   0.230   3.074   0.603  0.4178  0.1219  0.0011
  481TIP3    H123002   0.283   3.151   0.583  0.6932 -0.2741 -0.8383
  481TIP3    H223003   0.248   3.013   0.532  0.1471 -0.6973  0.6130
  482TIP3   OH223004   1.069   3.125   2.596  0.1028  0.1720  0.0527
  482TIP3    H123005   1.067   3.041   2.641  0.4820 -0.6926 -1.4795
  482TIP3    H223006   0.984   3.130   2.552  0.0272  0.6545  0.2509
  483TIP3   OH223007   3.649   0.412   2.517  0.0809  0.7531  0.1698
  483TIP3    H123008   3.693   0.336   2.554 -0.6735 -0.1489 -0.7189
  483TIP3    H223009   3.603   0.452   2.591 -2.2267 -1.5943  0.1678
  484TIP3   OH223010   2.026   4.657   1.271 -0.2883 -0.1872 -0.4233
  484TIP3    H123011   2.012   4.752   1.271 -0.0921 -0.1355  1.1989
  484TIP3    H223012   2.035   4.634   1.363  1.8660 -1.4531 -0.8666
  485TIP3   OH223013   1.549   4.760   1.487 -0.1231 -0.6134 -0.2092
  485TIP3    H123014   1.477   4.706   1.456  0.0642 -1.9755  1.5898
  485TIP3    H223015   1.611   4.762   1.414 -1.0186 -1.1746 -1.0055
  486TIP3   OH223016   0.275   4.464   0.294 -0.2481  0.4840  0.2739
  486TIP3    H123017   0.259   4.558   0.287  0.9017  0.6358 -0.7324
  486TIP3    H223018   0.188   4.424   0.291 -0.6873  1.2973 -3.8971
  487TIP3   OH223019   3.776   0.021   8.724  0.0249  0.4378  0.0110
  487TIP3    H123020   3.813  -0.066   8.708  0.8023  0.9102 -0.8568
  487TIP3    H223021   3.685   0.015   8.693 -0.4734 -0.5240  1.5105
  488TIP3   OH223022   6.250   3.192   7.915 -0.2629 -0.1569 -0.3072
  488TIP3    H123023   6.299   3.159   7.839  0.6214  0.4009 -0.0018
  488TIP3    H223024   6.160   3.166   7.899  0.0930 -1.0117 -1.0154
  489TIP3   OH223025   1.845   5.800   1.297  0.1525  0.1300  0.9022
  489TIP3    H123026   1.921   5.849   1.267  0.2375 -0.5776 -0.0783
  489TIP3    H223027   1.880   5.716   1.326 -0.2824 -0.3790  0.0069
  490TIP3   OH223028   5.254   4.252   1.307 -0.1476 -0.2694  0.9222
  490TIP3    H123029   5.345   4.240   1.334  0.3672 -0.0351 -0.6081
  490TIP3    H223030   5.214   4.165   1.317  0.2818 -0.4157  1.4148
  491TIP3   OH223031   0.886   4.649   7.622 -0.4969 -0.0631  0.0588
  491TIP3    H123032   0.814   4.700   7.585 -0.9771 -1.2714 -0.7435
  491TIP3    H223033   0.845   4.591   7.686 -0.3096 -0.9533 -0.6004
  492TIP3   OH223034   1.075   3.355   7.508  0.0730  0.3622  0.0240
  492TIP3    H123035   1.059   3.261   7.498 -0.5502  0.5957 -1.5108
  492TIP3    H223036   1.166   3.367   7.481  0.9940 -0.1153  2.7036
  493TIP3   OH223037   0.210   0.069   2.899 -0.3382 -0.6496  0.1730
  493TIP3    H123038   0.185   0.050   2.990  0.6356 -0.6990  0.4393
  493TIP3    H223039   0.175   0.156   2.882 -0.8158 -0.7776  0.4817
  494TIP3   OH223040   5.434   5.232   1.372  0.1712  0.2376  0.3461
  494TIP3    H123041   5.498   5.253   1.303 -0.5787  0.4273 -0.3102
  494TIP3    H223042   5.355   5.207   1.324 -0.5810  1.0230  1.1440
  495TIP3   OH223043   5.056   2.583   1.030  0.2511 -0.1619 -0.2886
  495TIP3    H123044   5.053   2.495   0.993  1.7246 -0.5237  0.3809
  495TIP3    H223045   5.149   2.604   1.037  0.0492  0.3244  2.0716
  496TIP3   OH223046   3.434   1.478   2.467  0.3307 -0.1020  0.1434
  496TIP3    H123047   3.518   1.500   2.508  1.1519  0.4432 -1.6986
  496TIP3    H223048   3.453   1.481   2.373 -1.7747  0.0570 -0.3089
  497TIP3   OH223049   1.454   2.916   1.184  0.0863  0.5884  0.0647
  497TIP3    H123050   1.535   2.866   1.187 -0.1112  0.2446 -0.1765
  497TIP3    H223051   1.391   2.857   1.141 -0.1776  1.0005 -0.1269
  498TIP3   OH223052   3.943   1.882   0.205  0.2676  0.0858 -0.2025
  498TIP3    H123053   3.972   1.829   0.131 -1.0682 -0.4055 -0.4057
  498TIP3    H223054   3.965   1.972   0.181  0.6294 -0.1584 -0.8047
  499TIP3   OH223055   5.325   1.756   0.212 -0.1528 -0.3972 -0.2454
  499TIP3    H123056   5.338   1.849   0.190 -0.8088 -0.0330  0.8136
  499TIP3    H223057   5.298   1.715   0.130 -1.9947  0.7995 -0.3016
  500TIP3   OH223058   0.444   4.410   2.801  0.4892  0.0452 -0.1048
  500TIP3    H123059   0.525   4.415   2.851  0.0993  0.6367  0.4889
  500TIP3    H223060   0.453   4.330   2.749  1.6213  0.3236 -0.3618
  501TIP3   OH223061   0.183   3.992   8.234 -0.0888  0.1680 -0.0782
  501TIP3    H123062   0.173   3.940   8.313  0.4413 -0.3391 -0.3393
  501TIP3    H223063   0.269   4.034   8.243  0.5073 -0.8262 -0.9115
  502TIP3   OH223064   3.027   1.395   8.680  0.4233 -0.1063  0.1022
  502TIP3    H123065   3.120   1.414   8.663  0.3792  0.0043 -0.0170
  502TIP3    H223066   2.986   1.399   8.593  0.2098  0.3839  0.2193
  503TIP3   OH223067   3.967   2.295   1.283 -0.7782 -0.0646  0.2568
  503TIP3    H123068   4.053   2.325   1.312 -0.8579  0.5444 -0.1188
  503TIP3    H223069   3.962   2.204   1.314  1.0848 -1.0366 -1.9358
  504TIP3   OH223070   5.010   6.320   0.297 -0.2798 -0.7727  0.4447
  504TIP3    H123071   5.061   6.308   0.216 -1.0403  1.3613 -0.4213
  504TIP3    H223072   5.037   6.247   0.353  0.7419 -1.9696 -1.4818
  505TIP3   OH223073   0.974   6.063   1.647  0.1947  0.6788 -0.0941
  505TIP3    H123074   0.983   5.994   1.713  0.7374  0.9147  0.0877
  505TIP3    H223075   0.974   6.017   1.564 -1.4564  0.2902  0.0940
  506TIP3   OH223076   4.732   4.067   1.536 -0.1932  0.2306  0.3391
  506TIP3    H123077   4.727   4.092   1.443 -0.5010 -0.2191  0.2350
  506TIP3    H223078   4.642   4.074   1.567  0.1794  2.2575  1.1054
  507TIP3   OH223079   3.269   0.108   2.270  0.0305  0.2542 -0.2381
  507TIP3    H123080   3.178   0.113   2.242  0.4551 -0.9132 -2.0014
  507TIP3    H223081   3.273   0.028   2.323 -0.1732  0.8956  0.7674
  508TIP3   OH223082   1.499   0.278   8.130 -0.1774  0.1174 -0.8067
  508TIP3    H123083   1.491   0.226   8.210 -0.0669  0.5961 -0.4785
  508TIP3    H223084   1.411   0.279   8.093 -0.4290  0.6105 -0.2267
  509TIP3   OH223085   6.771   4.405   7.829  0.2998 -0.1821 -0.1198
  509TIP3    H123086   6.712   4.400   7.754 -1.2557 -1.0110  1.0804
  509TIP3    H223087   6.733   4.472   7.886  0.5657 -0.6520  0.6312
  510TIP3   OH223088   3.267   3.960   2.579  0.1022  0.2378  0.1415
  510TIP3    H123089   3.234   4.010   2.654 -1.0213  0.9167 -0.7705
  510TIP3    H223090   3.323   3.893   2.618 -2.8961 -1.4643  1.8624
  511TIP3   OH223091   5.774   5.723   2.749 -0.1942 -0.1959  0.4027
  511TIP3    H123092   5.809   5.673   2.823 -0.2381 -0.4736  0.2412
  511TIP3    H223093   5.800   5.671   2.672 -1.0205 -0.4359  0.2815
  512TIP3   OH223094   3.133   0.748   6.731 -0.3905  0.2386  0.1819
  512TIP3    H123095   3.176   0.673   6.773  0.6127  1.1259  0.8090
  512TIP3    H223096   3.043   0.719   6.716 -0.0858 -1.0041  0.6269
  513TIP3   OH223097   2.105   1.098   1.411 -0.0540 -0.6872  0.3356
  513TIP3    H123098   2.195   1.117   1.385  0.1759 -0.5825  1.1827
  513TIP3    H223099   2.081   1.020   1.360  0.4353 -0.5820 -0.0560
  514TIP3   OH223100   2.024   1.052   0.402 -0.0342  0.9480 -0.1768
  514TIP3    H123101   1.931   1.028   0.396  0.1156 -0.4033  1.6686
  514TIP3    H223102   2.061   1.028   0.317 -1.9442  4.8973 -2.3967
  515TIP3   OH223103   0.515   2.785   2.118 -0.2904 -1.4997  0.1239
  515TIP3    H123104   0.604   2.794   2.083 -1.0431 -1.2145 -1.8870
  515TIP3    H223105   0.497   2.691   2.114  0.2651 -1.6807  1.5176
  516TIP3   OH223106   3.523   4.449   7.832  0.0621 -0.0454  0.2593
  516TIP3    H123107   3.486   4.450   7.744 -0.3108 -0.2883  0.4097
  516TIP3    H223108   3.612   4.416   7.821 -0.2420 -0.8165  0.0682
  517TIP3   OH223109   3.358   1.239   2.325 -0.0478  0.2718  0.1893
  517TIP3    H123110   3.314   1.304   2.379  2.5489  2.2297  0.1638
  517TIP3    H223111   3.416   1.193   2.386 -0.4349 -0.6744 -0.1497
  518TIP3   OH223112   3.187   3.746   8.454 -0.5615 -0.9508  0.1148
  518TIP3    H123113   3.282   3.748   8.459 -0.5810  0.2167  0.3022
  518TIP3    H223114   3.162   3.673   8.510  0.2133 -1.0867  0.2941
  519TIP3   OH223115   1.286   5.501   7.942 -0.1366 -0.5007 -0.3305
  519TIP3    H123116   1.221   5.561   7.906 -1.2468 -1.1643  0.5042
  519TIP3    H223117   1.366   5.519   7.892 -0.0833  2.4673  0.6247
  520TIP3   OH223118   1.337   3.440   8.389 -0.3055  0.4796 -0.3540
  520TIP3    H123119   1.370   3.481   8.468  0.4541 -2.7881  1.2067
  520TIP3    H223120   1.413   3.395   8.352 -1.2557 -0.3516 -1.3627
  521TIP3   OH223121   4.278   3.318   2.235  0.2468  0.4280  0.3372
  521TIP3    H123122   4.354   3.357   2.278  1.2654 -1.0263 -0.0293
  521TIP3    H223123   4.222   3.289   2.307  0.5141  0.6305  0.6317
  522TIP3   OH223124   3.758   5.052   7.917 -0.0173  0.1828  0.1324
  522TIP3    H123125   3.787   5.097   7.838  0.1526 -0.2311 -0.0423
  522TIP3    H223126   3.807   4.969   7.917  0.7362  0.6151  1.2000
  523TIP3   OH223127   4.256   3.679   7.096 -1.5286  0.0639  0.2736
  523TIP3    H123128   4.343   3.691   7.057 -1.7848  1.6764  0.1364
  523TIP3    H223129   4.205   3.637   7.028 -1.1839  0.1853 -0.0633
  524TIP3   OH223130   6.282   6.202   7.828 -0.1499 -0.3632  0.7656
  524TIP3    H123131   6.231   6.214   7.908  0.4773 -1.2256  1.3127
  524TIP3    H223132   6.269   6.110   7.805  1.4891 -0.7398  1.1804
  525TIP3   OH223133   2.538   6.070   1.718 -0.0958 -0.1517 -0.0073
  525TIP3    H123134   2.462   6.128   1.708  0.1646 -0.1471 -2.6413
  525TIP3    H223135   2.512   5.990   1.672  0.7152 -0.9512  0.9141
  526TIP3   OH223136   5.089   5.607   6.992 -0.2703  0.0202 -0.1324
  526TIP3    H123137   5.160   5.615   6.928  0.1668  1.2320  0.4664
  526TIP3    H223138   5.029   5.678   6.969 -0.6921 -0.2632  0.0919
  527TIP3   OH223139   4.261   2.984   2.061  0.2876  0.0364  0.0483
  527TIP3    H123140   4.297   3.027   1.984  1.1921 -0.7160  0.0316
  527TIP3    H223141   4.305   3.026   2.135 -0.3065  0.5030  0.1453
  528TIP3   OH223142   3.087   5.194   1.084  0.0511 -0.0862 -0.6428
  528TIP3    H123143   3.013   5.195   1.024 -0.1135 -0.1457 -0.4413
  528TIP3    H223144   3.058   5.141   1.158  0.5297 -0.6408 -0.8528
  529TIP3   OH223145   4.396   2.794   7.539  0.5601  0.2355  0.3640
  529TIP3    H123146   4.326   2.832   7.593  1.8508  0.5279  1.9046
  529TIP3    H223147   4.423   2.716   7.587  0.3565 -0.6827 -0.9584
  530TIP3   OH223148   3.953   2.246   7.758 -0.2285  0.7030 -0.3947
  530TIP3    H123149   3.922   2.173   7.812 -0.0689  0.6651 -0.3549
  530TIP3    H223150   4.030   2.280   7.803 -2.3135  3.2292  1.5141
  531TIP3   OH223151   2.667   1.360   0.969  0.3913  0.0225 -0.0133
  531TIP3    H123152   2.721   1.393   1.041  0.8424 -1.8372  0.5472
  531TIP3    H223153   2.725   1.360   0.893  0.8975 -0.9857  0.3559
  532TIP3   OH223154   0.854   5.093   8.186 -0.1005  0.0018  0.0686
  532TIP3    H123155   0.949   5.094   8.188 -0.0421 -1.4071  2.5041
  532TIP3    H223156   0.831   5.000   8.178 -1.2841  0.3456 -0.7858
  533TIP3   OH223157   4.479   5.759   1.032 -0.5819  0.0969 -0.2647
  533TIP3    H123158   4.448   5.733   1.118  1.7491  0.0292  0.6187
  533TIP3    H223159   4.568   5.790   1.047 -0.2301  0.3990 -2.6134
  534TIP3   OH223160   5.657   2.270   2.342 -0.2886 -1.0188  0.1543
  534TIP3    H123161   5.733   2.230   2.300  0.0034 -0.1144 -0.2030
  534TIP3    H223162   5.605   2.196   2.373  0.4248 -1.6608 -0.1481
  535TIP3   OH223163   3.356   1.826   0.650  0.4560 -0.1749  0.0743
  535TIP3    H123164   3.293   1.856   0.715 -0.7852 -0.5757 -0.8945
  535TIP3    H223165   3.391   1.906   0.611  0.7539  0.0567  0.8096
  536TIP3   OH223166   2.419   3.185   0.711  0.3852  0.5273 -0.7482
  536TIP3    H123167   2.405   3.120   0.641 -0.4142 -0.1932  0.0585
  536TIP3    H223168   2.331   3.217   0.732  0.2807 -1.0521  1.5734
  537TIP3   OH223169   0.252   1.784   8.200  0.1272  0.2653  0.3868
  537TIP3    H123170   0.279   1.871   8.168  2.7472 -0.4042  0.5833
  537TIP3    H223171   0.318   1.724   8.165 -3.0836 -2.1781 -2.0734
  538TIP3   OH223172   4.785   6.277   8.101  0.2474  0.8297 -0.2073
  538TIP3    H123173   4.876   6.261   8.074  0.8360  1.9953  0.9552
  538TIP3    H223174   4.742   6.307   8.021  0.6138 -0.6804 -1.0067
  539TIP3   OH223175   0.700   0.674   1.898  0.3529  0.4332  0.0943
  539TIP3    H123176   0.781   0.671   1.949 -0.1832  0.0102  0.9565
  539TIP3    H223177   0.631   0.685   1.964 -0.4541 -1.1039 -0.4575
  540TIP3   OH223178   2.553   6.543   0.115  0.3182 -0.1532  0.4184
  540TIP3    H123179   2.596   6.600   0.179  2.2260  0.0579 -0.9601
  540TIP3    H223180   2.575   6.454   0.144  1.5669 -0.0509 -0.1435
  541TIP3   OH223181   4.720   4.024   2.029  0.3625 -0.1448  0.5426
  541TIP3    H123182   4.774   4.054   1.956 -0.0654  0.7414  0.5820
  541TIP3    H223183   4.775   4.039   2.107  1.4270 -2.4727  0.3372
  542TIP3   OH223184   0.873   1.151   2.677 -0.5164 -0.3306  0.4836
  542TIP3    H123185   0.907   1.240   2.689  0.6455 -0.2361 -2.6594
  542TIP3    H223186   0.782   1.164   2.651 -0.6725 -0.1344  1.1143
  543TIP3   OH223187   5.382   0.095   8.442  0.1233 -0.3387  0.2147
  543TIP3    H123188   5.442   0.059   8.377 -0.4956 -2.4067  0.7084
  543TIP3    H223189   5.339   0.167   8.397  0.6187 -0.9268 -1.2599
  544TIP3   OH223190   3.577   4.276   7.122 -0.1911 -0.1203 -0.4493
  544TIP3    H123191   3.620   4.361   7.110  1.4451 -0.6199  1.2819
  544TIP3    H223192   3.512   4.291   7.190  0.8218 -0.4238  0.6253
  545TIP3   OH223193   2.959   2.899   7.758 -0.2600  0.1795  0.2374
  545TIP3    H123194   2.986   2.977   7.806  0.3763 -0.3909  0.8163
  545TIP3    H223195   2.990   2.826   7.810  1.6162 -0.4730 -1.6466
  546TIP3   OH223196   6.595   3.043   2.299 -0.1451 -0.2497  0.4848
  546TIP3    H123197   6.578   3.025   2.206 -0.7281  0.0055  0.5358
  546TIP3    H223198   6.660   2.978   2.325  0.3269 -0.0689 -0.2096
  547TIP3   OH223199   0.130   3.441   1.686 -0.1726 -0.5081  0.2879
  547TIP3    H123200   0.211   3.397   1.710 -0.0701 -0.6229 -0.2702
  547TIP3    H223201   0.100   3.481   1.768  2.5827  3.1025 -0.2474
  548TIP3   OH223202   2.348   3.509   7.052  0.5000 -0.1576  0.4537
  548TIP3    H123203   2.375   3.506   6.960  0.2156 -1.1594  0.3920
  548TIP3    H223204   2.335   3.603   7.070  0.1404  0.0171 -0.6459
  549TIP3   OH223205   2.856   4.989   0.899 -0.1845  0.1666 -0.1643
  549TIP3    H123206   2.768   5.019   0.924  0.8823  2.2268  1.4878
  549TIP3    H223207   2.881   5.047   0.827 -0.0232 -0.1037 -0.3238
  550TIP3   OH223208   6.475   0.241   7.856 -0.3117  0.8916  0.3346
  550TIP3    H123209   6.395   0.292   7.866 -1.3036 -0.4042 -0.6941
  550TIP3    H223210   6.457   0.183   7.782  0.4261 -1.6147  2.0299
  551TIP3   OH223211   1.331   1.714   8.408  0.3574 -0.1081 -0.3687
  551TIP3    H123212   1.344   1.621   8.430  1.6179  0.1042 -0.1492
  551TIP3    H223213   1.344   1.717   8.313  1.4225  0.0094 -0.2276
  552TIP3   OH223214   5.951   4.262   8.696  0.2970  0.4503 -0.8599
  552TIP3    H123215   5.933   4.222   8.611 -2.3746 -1.5218  0.4708
  552TIP3    H223216   6.039   4.232   8.718  0.3096 -0.5584 -2.1330
  553TIP3   OH223217   2.785   2.049   2.168  1.0070 -0.5266 -0.3860
  553TIP3    H123218   2.838   2.012   2.239  2.7963  0.0957 -1.3157
  553TIP3    H223219   2.733   1.975   2.136  1.2776 -1.1654  0.6107
  554TIP3   OH223220   5.691   2.859   1.645 -0.2701 -0.7612  0.0752
  554TIP3    H123221   5.643   2.823   1.570  0.4954 -1.2260 -0.2071
  554TIP3    H223222   5.727   2.941   1.612  0.3071 -1.1045 -0.1709
  555TIP3   OH223223   1.486   5.119   8.125 -0.1729 -0.1842 -0.1165
  555TIP3    H123224   1.580   5.101   8.138 -0.0638 -0.9431 -1.7628
  555TIP3    H223225   1.457   5.051   8.064 -1.9879 -0.4085  0.9261
  556TIP3   OH223226   4.702   6.079   8.293  0.7693  0.0540 -0.4526
  556TIP3    H123227   4.733   5.997   8.254 -0.1877  0.1219 -1.3925
  556TIP3    H223228   4.701   6.141   8.221 -1.0462  0.1823 -0.3516
  557TIP3   OH223229   6.105   0.723   2.825 -0.1859  0.0718 -0.2388
  557TIP3    H123230   6.180   0.715   2.884 -1.1728  1.0933  1.1943
  557TIP3    H223231   6.030   0.692   2.876 -0.9510  0.2389 -1.2300
  558TIP3   OH223232   0.392   5.347   7.711  0.3534 -0.4032  0.1799
  558TIP3    H123233   0.322   5.303   7.758  0.7607 -2.3398 -0.9191
  558TIP3    H223234   0.443   5.276   7.672  0.4133  1.0424 -2.6223
  559TIP3   OH223235   1.356   4.456   8.793 -0.2361 -0.0367 -0.7489
  559TIP3    H123236   1.447   4.428   8.804 -0.8082 -1.3846  0.9554
  559TIP3    H223237   1.340   4.450   8.699  1.8741  1.7513 -1.3027
  560TIP3   OH223238   4.540   4.275   0.763 -0.3963 -0.1167 -0.5217
  560TIP3    H123239   4.595   4.334   0.815 -0.0411 -0.5817 -0.3564
  560TIP3    H223240   4.600   4.235   0.701 -0.1779 -1.8553  0.7214
  561TIP3   OH223241   6.063   2.460   7.487  0.1680  0.0407 -0.2934
  561TIP3    H123242   6.104   2.541   7.515 -0.8125  0.6028 -0.4509
  561TIP3    H223243   6.134   2.410   7.447  0.5923  1.2405 -1.1058
  562TIP3   OH223244   4.669   1.655   8.754  0.0787  0.0318 -0.5563
  562TIP3    H123245   4.606   1.596   8.713 -0.8421  0.4693  0.1985
  562TIP3    H223246   4.620   1.735   8.770  0.5568  0.0457  0.9348
  563TIP3   OH223247   3.951   0.228   0.705  0.2852 -0.1357  0.2238
  563TIP3    H123248   3.858   0.251   0.694  0.4201 -0.0588 -0.8733
  563TIP3    H223249   3.995   0.313   0.713  0.3920 -0.1166 -0.4785
  564TIP3   OH223250   5.397   5.999   2.031 -0.0307  0.2748 -0.0640
  564TIP3    H123251   5.458   5.955   2.090  0.1830 -2.4233 -2.1204
  564TIP3    H223252   5.429   5.980   1.943 -0.9585  3.2011 -1.1807
  565TIP3   OH223253   2.994   2.079   7.907  0.2004 -0.2950  0.5225
  565TIP3    H123254   2.949   1.997   7.889 -0.0915 -0.2523  1.0293
  565TIP3    H223255   3.061   2.057   7.972 -1.0047  0.1513  1.9937
  566TIP3   OH223256   5.639   3.266   8.658 -0.2028 -0.4004 -0.3546
  566TIP3    H123257   5.711   3.244   8.717 -1.0311  0.1084  0.8956
  566TIP3    H223258   5.571   3.202   8.678 -1.0752  0.7113  0.3752
  567TIP3   OH223259   1.234   4.924   1.831 -0.0820 -0.4271  0.4633
  567TIP3    H123260   1.145   4.953   1.810 -0.4141 -1.7646 -0.0468
  567TIP3    H223261   1.282   4.931   1.749  0.4557  0.8240  0.8631
  568TIP3   OH223262   4.986   3.044   8.192  0.3076  0.5396 -0.2474
  568TIP3    H123263   5.066   3.062   8.241 -0.0804 -1.5480  1.2899
  568TIP3    H223264   5.012   3.052   8.100  1.8661  1.4325  0.2345
  569TIP3   OH223265   1.377   2.446   1.924 -0.1554  0.2688  0.0498
  569TIP3    H123266   1.343   2.371   1.875 -0.9657  0.4673  0.3052
  569TIP3    H223267   1.470   2.426   1.935 -0.3218 -0.6107 -0.0447
  570TIP3   OH223268   0.752   1.174   8.531 -0.3079 -0.0953  0.1044
  570TIP3    H123269   0.731   1.263   8.558 -2.3196  0.2457 -2.2391
  570TIP3    H223270   0.667   1.136   8.508  0.6754 -2.1283 -0.3669
  571TIP3   OH223271   4.534   6.268   8.791 -0.3236  0.0820 -0.9748
  571TIP3    H123272   4.580   6.289   8.872 -0.6906 -2.2481 -0.0941
  571TIP3    H223273   4.441   6.269   8.814 -0.4098 -1.1729 -1.1509
  572TIP3   OH223274   2.539   6.314   1.368 -0.0492  0.9037 -0.4412
  572TIP3    H123275   2.627   6.323   1.331  0.2691  1.7603  0.4969
  572TIP3    H223276   2.530   6.389   1.427 -1.2487  0.5852 -0.2007
  573TIP3   OH223277   1.204   0.291   7.747 -0.3585  0.3076  0.2496
  573TIP3    H123278   1.233   0.247   7.827 -1.1014 -0.3830  0.1574
  573TIP3    H223279   1.111   0.270   7.741 -0.3226  0.3803 -0.7767
  574TIP3   OH223280   0.236   2.756   8.722  0.5085  0.3919  0.0970
  574TIP3    H123281   0.322   2.748   8.682 -0.0828  0.1876 -1.1754
  574TIP3    H223282   0.208   2.845   8.702  0.1558  0.2471 -0.0648
  575TIP3   OH223283   2.448   4.091   0.646 -0.1432 -0.9765 -0.1317
  575TIP3    H123284   2.512   4.119   0.712  1.5884 -0.7739 -1.8019
  575TIP3    H223285   2.495   4.098   0.563 -2.5894 -0.1557 -1.5468
  576TIP3   OH223286   4.977   1.938   2.294 -0.5387 -0.2517  0.2764
  576TIP3    H123287   5.027   1.928   2.213  1.9452  0.5096  1.6052
  576TIP3    H223288   4.967   1.849   2.327 -1.2614 -0.5344 -0.6489
  577TIP3   OH223289   0.898   0.020   0.882  0.0607  0.2657 -0.6385
  577TIP3    H123290   0.865  -0.069   0.899  0.1306 -0.0279 -1.9259
  577TIP3    H223291   0.842   0.076   0.935 -0.1342 -0.5243  0.0269
  578TIP3   OH223292   5.158   0.714   8.383 -0.2890  0.0786  0.0953
  578TIP3    H123293   5.090   0.688   8.445  0.6987 -2.1303  0.3562
  578TIP3    H223294   5.146   0.809   8.372 -3.6066 -0.2699 -0.2073
  579TIP3   OH223295   4.998   3.059   8.532  0.2097  0.0366  0.9243
  579TIP3    H123296   4.944   3.079   8.609 -2.8284 -0.5211 -0.9079
  579TIP3    H223297   4.956   2.983   8.492  2.1763 -0.2068 -0.8601
  580TIP3   OH223298   1.468   1.693   7.262  0.1444  0.6422 -0.4213
  580TIP3    H123299   1.456   1.599   7.251  1.7534  0.3579 -0.0341
  580TIP3    H223300   1.435   1.731   7.181  0.3809 -0.3529 -1.0021
  581TIP3   OH223301   1.352   5.566   8.197  0.3279  0.2033  0.2572
  581TIP3    H123302   1.343   5.544   8.104 -0.7818 -0.8543  0.5983
  581TIP3    H223303   1.283   5.516   8.240  1.2932  0.1021  1.7415
  582TIP3   OH223304   5.093   5.757   7.643  0.2919 -0.9199  0.0016
  582TIP3    H123305   5.137   5.686   7.691  1.4288 -1.2864 -1.5397
  582TIP3    H223306   5.136   5.837   7.673  1.7327 -1.2326 -1.1262
  583TIP3   OH223307   0.998   3.143   0.514 -0.0892 -0.2949  0.3655
  583TIP3    H123308   1.013   3.236   0.530 -0.9796 -0.4321  2.3036
  583TIP3    H223309   1.080   3.112   0.476  0.0666  1.3372 -0.7522
  584TIP3   OH223310   1.877   3.076   8.044 -0.0111 -0.4043  0.7467
  584TIP3    H123311   1.938   3.139   8.083 -1.4505  1.7811 -0.3393
  584TIP3    H223312   1.826   3.043   8.117  0.4526  0.0545  1.2892
  585TIP3   OH223313   1.655   5.071   1.382 -0.2249  0.2280  0.5456
  585TIP3    H123314   1.569   5.038   1.356 -0.1438 -0.2894  0.9262
  585TIP3    H223315   1.637   5.122   1.461 -0.2804  0.7192  0.2235
  586TIP3   OH223316   1.471   0.737   1.886 -0.1322  0.4200 -0.0669
  586TIP3    H123317   1.493   0.688   1.965 -1.6561  0.3610  0.3444
  586TIP3    H223318   1.453   0.669   1.820 -1.0947  0.4275  0.1787
  587TIP3   OH223319   0.255   4.433   7.830  0.4398  0.0565  0.1270
  587TIP3    H123320   0.164   4.406   7.827  0.4679 -0.0220 -0.0777
  587TIP3    H223321   0.253   4.528   7.817  0.5065 -0.1824 -2.1511
  588TIP3   OH223322   5.032   1.832   1.092 -0.2459  0.2077  0.2319
  588TIP3    H123323   4.981   1.913   1.088 -0.1094  0.4396  2.0097
  588TIP3    H223324   5.091   1.837   1.017  0.0938  2.0079  0.5560
  589TIP3   OH223325   0.749   4.082   2.119 -0.2960 -0.0724 -0.0779
  589TIP3    H123326   0.673   4.033   2.148 -0.0193 -1.0004 -0.8674
  589TIP3    H223327   0.727   4.174   2.136 -0.8605 -0.4425  1.3380
  590TIP3   OH223328   2.708   0.401   1.714 -0.3785  0.0918 -0.3900
  590TIP3    H123329   2.649   0.472   1.686 -0.7502 -0.5691 -1.3117
  590TIP3    H223330   2.668   0.369   1.795 -1.6924 -0.7766 -1.3330
  591TIP3   OH223331   3.873   0.680   1.296  0.8308  0.0736 -0.1554
  591TIP3    H123332   3.908   0.603   1.342 -1.9946  0.3000  2.6822
  591TIP3    H223333   3.798   0.707   1.349 -2.5848  0.6593 -4.7493
  592TIP3   OH223334   2.011   5.145   8.273  0.2268 -0.2091  0.1566
  592TIP3    H123335   2.076   5.078   8.292  0.0322 -0.8955 -1.5248
  592TIP3    H223336   1.927   5.105   8.297  0.2350  0.0032  0.5634
  593TIP3   OH223337   2.548   5.932   7.393 -0.2251 -0.1149  0.2087
  593TIP3    H123338   2.594   5.894   7.468 -0.0361  0.0329  0.1683
  593TIP3    H223339   2.503   6.008   7.429 -1.4461 -0.9410  0.5121
  594TIP3   OH223340   0.787   2.874   0.345 -0.4311 -0.1115 -0.0040
  594TIP3    H123341   0.850   2.872   0.416  1.1376  0.4062 -1.3150
  594TIP3    H223342   0.743   2.789   0.349 -0.2633 -0.1512  1.4477
  595TIP3   OH223343   3.757   3.780   2.424  0.2256  0.0112  0.1046
  595TIP3    H123344   3.807   3.858   2.448  0.9807 -0.2942 -0.4513
  595TIP3    H223345   3.724   3.747   2.507  0.3974  0.5854  0.4078
  596TIP3   OH223346   2.179   3.188   0.105  0.1138  0.2941 -0.5257
  596TIP3    H123347   2.116   3.259   0.118  0.7601  0.6377  0.9033
  596TIP3    H223348   2.224   3.179   0.190  0.8566 -1.0367 -1.0229
  597TIP3   OH223349   3.776   2.044   6.970 -0.1023 -0.5533 -0.1244
  597TIP3    H123350   3.867   2.054   6.997 -0.6422  2.0621  1.0818
  597TIP3    H223351   3.772   2.082   6.882 -0.0626 -0.4774 -0.0936
  598TIP3   OH223352   5.614   5.669   8.057  0.3665  0.0367  0.8292
  598TIP3    H123353   5.673   5.676   8.132 -0.3752  0.9732  1.3479
  598TIP3    H223354   5.666   5.700   7.983  0.3859  1.3642  1.3713
  599TIP3   OH223355   4.452   4.044   1.976 -0.2441 -1.0822  0.3801
  599TIP3    H123356   4.541   4.047   2.011  0.9675 -0.9461 -2.4382
  599TIP3    H223357   4.432   3.951   1.971  0.1611 -1.1574  0.0876
  600TIP3   OH223358   5.961   6.767   1.824 -0.2788  0.2179 -0.1635
  600TIP3    H123359   5.981   6.799   1.912  0.0655 -0.0655 -0.1348
  600TIP3    H223360   5.866   6.772   1.817 -0.2452  1.0001 -0.0711
  601TIP3   OH223361   2.803   4.678   8.401  0.3354  0.3251 -0.4871
  601TIP3    H123362   2.742   4.692   8.474  1.8754  0.5839  0.8157
  601TIP3    H223363   2.760   4.718   8.325 -1.5742 -0.4680  0.1348
  602TIP3   OH223364   5.700   4.603   7.923 -0.0830  0.0198 -0.2146
  602TIP3    H123365   5.795   4.615   7.917 -0.1405  0.9503  0.5264
  602TIP3    H223366   5.684   4.519   7.880  1.1445 -0.4406  0.1929
  603TIP3   OH223367   1.083   5.806   0.269 -0.8666 -0.1582  0.1185
  603TIP3    H123368   1.038   5.824   0.187 -0.0844 -0.7775 -0.4532
  603TIP3    H223369   1.103   5.893   0.304  0.6535  0.1371 -1.3837
  604TIP3   OH223370   6.466   1.599   8.538  0.7778 -0.5249  0.3755
  604TIP3    H123371   6.411   1.569   8.610  1.9816  0.5255  1.8078
  604TIP3    H223372   6.493   1.687   8.564 -0.1017  0.5877 -2.1808
  605TIP3   OH223373   2.984   0.745   0.954  0.1002  0.1995 -0.0682
  605TIP3    H123374   2.932   0.692   0.894 -1.5491 -0.0017  1.4870
  605TIP3    H223375   2.963   0.835   0.930 -1.2151  0.1192  0.7413
  606TIP3   OH223376   2.389   1.866   8.378  0.4781  0.1442  0.1014
  606TIP3    H123377   2.350   1.893   8.294  1.4786 -0.1267 -0.4642
  606TIP3    H223378   2.426   1.947   8.414 -0.6826  0.4269  0.6996
  607TIP3   OH223379   3.292   0.531   0.449  0.0935  0.5289  0.4792
  607TIP3    H123380   3.200   0.518   0.422 -0.1819 -0.5359  1.8394
  607TIP3    H223381   3.343   0.503   0.373 -0.6990 -0.1802  0.1920
  608TIP3   OH223382   4.450   1.658   2.395  0.3361 -0.8343 -0.3294
  608TIP3    H123383   4.375   1.615   2.355 -0.3934 -0.4022  0.5471
  608TIP3    H223384   4.461   1.613   2.479 -0.8767  1.0822  0.9323
  609TIP3   OH223385   4.925   1.992   0.866  0.0798  0.0873 -0.1783
  609TIP3    H123386   5.003   1.995   0.811  0.4238  0.2758  0.3137
  609TIP3    H223387   4.879   2.073   0.847  0.1867  0.1413 -0.2088
  610TIP3   OH223388   1.203   1.972   0.473  0.0028  0.2246  0.8783
  610TIP3    H123389   1.141   1.965   0.545  0.9711  2.1081  1.9737
  610TIP3    H223390   1.196   2.063   0.443 -0.0065 -0.3813 -1.1025
  611TIP3   OH223391   0.468   4.012   8.643 -0.1390  0.6426 -0.0369
  611TIP3    H123392   0.442   4.046   8.557  0.5253 -0.0428 -0.5216
  611TIP3    H223393   0.405   3.943   8.662 -0.3363  0.8497  0.0748
  612TIP3   OH223394   4.019   5.359   8.454  0.1610  0.5342  0.1525
  612TIP3    H123395   3.996   5.267   8.450  2.3318 -0.0262 -1.4118
  612TIP3    H223396   4.015   5.390   8.363  1.1318  1.5071  0.4122
  613TIP3   OH223397   2.632   2.605   1.848  0.2154  0.2726  0.2417
  613TIP3    H123398   2.650   2.676   1.910 -1.8602  2.0195 -1.0040
  613TIP3    H223399   2.550   2.566   1.879 -1.9121  2.3930 -2.2176
  614TIP3   OH223400   2.474   1.669   1.323  0.6439  0.5028 -0.4366
  614TIP3    H123401   2.398   1.628   1.281  0.2196  0.4284  0.3843
  614TIP3    H223402   2.518   1.715   1.252 -0.4337  0.9358 -0.8564
  615TIP3   OH223403   4.842   0.089   8.376  0.6572 -0.2116 -0.1459
  615TIP3    H123404   4.847  -0.006   8.362  2.3978 -0.0774 -0.6166
  615TIP3    H223405   4.836   0.099   8.471 -1.2451 -0.8176 -0.1615
  616TIP3   OH223406   2.395   1.434   8.524 -0.2148 -0.4732 -0.0289
  616TIP3    H123407   2.388   1.340   8.507 -0.7696 -0.3891 -0.3074
  616TIP3    H223408   2.345   1.475   8.454 -2.1259 -0.0872  1.4532
  617TIP3   OH223409   5.109   4.077   2.229 -0.0185  0.0811  0.7276
  617TIP3    H123410   5.081   3.987   2.213 -2.1740  0.8637 -0.3895
  617TIP3    H223411   5.047   4.110   2.295 -1.5819  1.7215 -1.4016
  618TIP3   OH223412   3.220   4.728   2.144 -0.1735  0.3154 -0.1596
  618TIP3    H123413   3.258   4.727   2.056 -0.0656 -0.6736 -0.1145
  618TIP3    H223414   3.295   4.730   2.203 -0.1965 -0.4713 -0.0852
  619TIP3   OH223415   1.982   5.499   1.340  0.5251  0.5176  0.2162
  619TIP3    H123416   2.037   5.456   1.274  1.3256  0.0365  1.1680
  619TIP3    H223417   1.904   5.443   1.346  1.5022 -0.7889  1.3560
  620TIP3   OH223418   5.718   1.692   7.807  0.1128  0.4597 -0.5470
  620TIP3    H123419   5.679   1.748   7.875  0.0794  0.2206 -0.3704
  620TIP3    H223420   5.664   1.709   7.730 -0.2414  0.2638 -0.3503
  621TIP3   OH223421   0.832   6.511   0.166 -0.3028  0.2827  0.0007
  621TIP3    H123422   0.771   6.452   0.122 -1.2051 -0.0062  1.5567
  621TIP3    H223423   0.917   6.493   0.125 -1.2797  0.9667 -2.4640
  622TIP3   OH223424   2.209   2.230   7.334 -0.1331  0.5400 -0.3516
  622TIP3    H123425   2.297   2.258   7.362 -0.0950  0.1116 -0.0388
  622TIP3    H223426   2.202   2.262   7.244 -0.6538  2.8272  0.4392
  623TIP3   OH223427   4.955   2.339   1.696 -0.0826  0.7886  0.0303
  623TIP3    H123428   4.882   2.401   1.694 -2.6185 -1.9613 -1.3027
  623TIP3    H223429   5.033   2.393   1.684 -1.9602  3.7964  0.2613
  624TIP3   OH223430   5.819   4.938   1.929  0.3351 -0.2302 -0.2301
  624TIP3    H123431   5.852   4.989   2.003  0.3243  0.2031 -0.5187
  624TIP3    H223432   5.745   4.990   1.896  1.0871  0.2002 -1.2961
  625TIP3   OH223433   0.242   0.944   0.777 -0.9567 -0.2170 -0.2021
  625TIP3    H123434   0.312   1.009   0.771 -0.5362 -0.7323 -1.0975
  625TIP3    H223435   0.269   0.887   0.849 -1.5378  0.8262  0.8642
  626TIP3   OH223436   4.971   3.358   7.489 -0.4490  0.3562 -0.4556
  626TIP3    H123437   4.929   3.444   7.483  0.2228  0.6149 -1.8471
  626TIP3    H223438   5.060   3.377   7.517 -0.6219 -0.0002  0.3568
  627TIP3   OH223439   0.382   5.177   8.613  0.8044 -0.4537 -0.2941
  627TIP3    H123440   0.433   5.250   8.649 -0.8353 -0.1784  1.6930
  627TIP3    H223441   0.308   5.168   8.674 -0.6777 -1.8202 -2.1792
  628TIP3   OH223442   0.223   1.562   2.035  0.2595  0.0134 -0.5320
  628TIP3    H123443   0.318   1.557   2.045  0.0875 -1.3673  0.6665
  628TIP3    H223444   0.194   1.615   2.109  0.3922  4.5167 -3.3146
  629TIP3   OH223445   6.465   4.112   1.965  0.4422 -0.6025 -0.1629
  629TIP3    H123446   6.471   4.047   1.895  2.5520 -1.7506  0.9764
  629TIP3    H223447   6.529   4.178   1.942 -0.2494  0.0381 -0.2802
  630TIP3   OH223448   0.847   6.163   8.330  0.3540  0.2112 -0.0157
  630TIP3    H123449   0.813   6.247   8.361 -1.6136 -1.1032  1.6158
  630TIP3    H223450   0.793   6.140   8.255  2.1614  1.2413 -1.7215
  631TIP3   OH223451   3.731   1.284   0.402  0.1786 -0.6349  0.0173
  631TIP3    H123452   3.688   1.209   0.362  0.0666 -0.2202 -0.6558
  631TIP3    H223453   3.743   1.259   0.494 -0.1984 -1.3188 -0.1156
  632TIP3   OH223454   6.366   2.546   0.963 -0.1143  0.1520 -0.0487
  632TIP3    H123455   6.387   2.640   0.962  0.0126  0.1409  0.8466
  632TIP3    H223456   6.390   2.517   1.051 -1.0103 -0.5266 -0.0136
  633TIP3   OH223457   2.286   1.945   3.268  0.0398  0.1469 -0.0877
  633TIP3    H123458   2.374   1.979   3.282 -0.3990  0.9568  0.7568
  633TIP3    H223459   2.300   1.863   3.220  1.3958 -0.8580  1.9127
  634TIP3   OH223460   2.518   5.217   1.950 -0.3351 -0.2718  0.4061
  634TIP3    H123461   2.527   5.182   2.039 -1.6182 -1.3241  0.1582
  634TIP3    H223462   2.438   5.269   1.953 -1.3143 -1.6384 -0.4887
  635TIP3   OH223463   5.945   1.560   6.893 -0.0420 -0.5146 -0.4372
  635TIP3    H123464   5.961   1.530   6.983 -0.8259  0.8122  0.1765
  635TIP3    H223465   5.850   1.569   6.887  0.1054  1.5897 -0.6154
  636TIP3   OH223466   3.774   3.014   1.917  0.8158  0.6920  0.1683
  636TIP3    H123467   3.684   3.021   1.949  0.8420  0.0988  0.3879
  636TIP3    H223468   3.828   3.019   1.996  1.0965  2.7586 -0.0883
  637TIP3   OH223469   2.486   6.628   8.202  0.2200  0.2603 -0.2991
  637TIP3    H123470   2.510   6.558   8.141 -1.4629 -0.2909 -0.3879
  637TIP3    H223471   2.396   6.649   8.180  0.0623  1.1008  1.0293
  638TIP3   OH223472   2.616   6.575   0.409  0.4445 -0.1568 -0.1182
  638TIP3    H123473   2.672   6.507   0.446  0.7533 -0.5070 -1.2000
  638TIP3    H223474   2.627   6.650   0.468  0.6728 -0.7931  0.6668
  639TIP3   OH223475   1.357   4.828   7.269 -0.2646  0.5404 -0.5286
  639TIP3    H123476   1.346   4.736   7.293 -0.6334  0.5815 -0.5427
  639TIP3    H223477   1.341   4.831   7.174 -1.6542  0.8409 -0.3082
  640TIP3   OH223478   6.623   2.873   7.629 -0.0081  0.2518  0.1441
  640TIP3    H123479   6.614   2.818   7.707  0.4859 -1.1963 -0.7662
  640TIP3    H223480   6.536   2.910   7.616  0.1559  1.3739  1.9567
  641TIP3   OH223481   5.881   4.105   1.547 -0.3436 -0.1540  0.3035
  641TIP3    H123482   5.906   4.033   1.606  1.0270 -0.1258 -0.2173
  641TIP3    H223483   5.906   4.074   1.460  0.6463  1.1022  0.1150
  642TIP3   OH223484   4.883   6.180   1.855  0.3796  0.1740 -0.2825
  642TIP3    H123485   4.924   6.239   1.791 -0.0663  0.5099 -0.2601
  642TIP3    H223486   4.898   6.223   1.939  1.2829 -0.4467 -0.1148
  643TIP3   OH223487   1.983   2.165   7.953  0.6456 -0.0343 -0.0415
  643TIP3    H123488   2.025   2.237   7.906 -0.7614  0.5232 -0.5063
  643TIP3    H223489   1.971   2.199   8.042  0.5777  0.0616 -0.0867
  644TIP3   OH223490   1.845   3.227   7.781 -0.0061  0.2030  0.1863
  644TIP3    H123491   1.860   3.300   7.841 -0.2493  0.1494  0.3139
  644TIP3    H223492   1.756   3.242   7.748  0.4298  0.7178 -0.8269
  645TIP3   OH223493   1.899   3.553   8.733  0.1284  0.4285  0.1659
  645TIP3    H123494   1.900   3.637   8.777 -0.5292  0.7987 -0.5085
  645TIP3    H223495   1.986   3.546   8.693  0.6845  0.1486  1.3608
  646TIP3   OH223496   6.444   0.183   7.113 -0.2686  0.1956 -0.7201
  646TIP3    H123497   6.422   0.109   7.169 -1.9855  0.8115 -0.5139
  646TIP3    H223498   6.366   0.239   7.115 -0.0370  0.7154 -2.9557
  647TIP3   OH223499   2.535   1.245   2.053  0.2887 -0.3005  0.6652
  647TIP3    H123500   2.506   1.281   2.136 -0.1183  1.3525 -0.1612
  647TIP3    H223501   2.454   1.229   2.004  0.5848  0.0677  0.0505
  648TIP3   OH223502   0.731   1.793   1.753  0.3406 -0.4669 -0.2425
  648TIP3    H123503   0.743   1.752   1.667  0.1195 -1.8002  0.3231
  648TIP3    H223504   0.807   1.763   1.804  0.5214  0.3895  0.0029
  649TIP3   OH223505   3.875   2.500   1.978 -0.7643  0.3612  0.8463
  649TIP3    H123506   3.785   2.531   1.988 -1.7738 -1.9571 -0.2556
  649TIP3    H223507   3.926   2.578   1.956 -2.9065  1.4304 -0.6493
  650TIP3   OH223508   0.951   4.632   7.338 -0.3077  0.0223 -0.2556
  650TIP3    H123509   0.937   4.573   7.412 -1.2858  1.6657  0.9324
  650TIP3    H223510   0.941   4.577   7.261 -3.5282 -0.9847  0.7376
  651TIP3   OH223511   3.135   3.804   7.468 -0.1417 -0.4198  0.2471
  651TIP3    H123512   3.050   3.805   7.424  0.3967  1.3528 -0.8557
  651TIP3    H223513   3.122   3.856   7.547 -0.2400 -0.7356  0.4428
  652TIP3   OH223514   5.069   3.129   1.479  0.2978 -0.0350 -0.1150
  652TIP3    H123515   5.023   3.147   1.397  0.1028  0.7572  0.1526
  652TIP3    H223516   5.158   3.161   1.465  0.3635 -0.2386 -0.1503
  653TIP3   OH223517   6.669   2.724   7.966  0.2250 -0.2397  0.2435
  653TIP3    H123518   6.718   2.671   8.029 -1.1985 -1.4434  0.3705
  653TIP3    H223519   6.632   2.661   7.905  0.1300  0.7819 -0.7926
  654TIP3   OH223520   2.208   1.171   7.175  0.1431  0.1878 -0.5410
  654TIP3    H123521   2.245   1.098   7.225  1.5284  1.0080 -0.3037
  654TIP3    H223522   2.260   1.247   7.203 -1.8661  1.4493 -0.0836
  655TIP3   OH223523   3.378   2.050   2.156 -0.5112  0.6733 -0.5431
  655TIP3    H123524   3.426   1.989   2.212  2.5301  1.6076 -1.9178
  655TIP3    H223525   3.332   2.107   2.217 -0.1015 -0.4304  0.8655
  656TIP3   OH223526   3.693   5.922   2.522  0.0946  0.0296 -0.1855
  656TIP3    H123527   3.661   5.975   2.449  1.9227  0.6539 -0.5819
  656TIP3    H223528   3.698   5.983   2.596  2.7708  0.6952 -0.7892
  657TIP3   OH223529   4.422   3.360   7.477 -0.7894 -0.5408  0.2726
  657TIP3    H123530   4.355   3.298   7.506 -0.9573 -0.8317 -0.7184
  657TIP3    H223531   4.394   3.388   7.390 -1.1237  1.5403  1.0024
  658TIP3   OH223532   6.119   0.427   0.736  0.5551  0.1767  0.4179
  658TIP3    H123533   6.208   0.394   0.723  1.0765  1.3473  0.8767
  658TIP3    H223534   6.063   0.359   0.699  1.6238 -0.7141  0.3712
  659TIP3   OH223535   2.015   2.009   0.072 -0.0262 -0.3767 -0.8527
  659TIP3    H123536   1.943   2.054   0.028 -0.8202 -0.4630  0.3139
  659TIP3    H223537   2.054   2.076   0.129 -0.1033 -0.6965 -0.4166
  660TIP3   OH223538   2.019   6.099   0.450 -1.0617  0.5762 -0.1944
  660TIP3    H123539   1.959   6.064   0.383  1.1076 -0.6830 -1.6125
  660TIP3    H223540   2.049   6.182   0.414  0.1730 -0.1420 -0.9124
  661TIP3   OH223541   6.584   5.481   0.487 -0.1568  0.3454 -0.1902
  661TIP3    H123542   6.648   5.536   0.532 -0.2694  0.4549 -0.1647
  661TIP3    H223543   6.637   5.420   0.436  0.0507 -1.0930  1.6179
  662TIP3   OH223544   1.774   1.950   8.768  0.8384 -0.1466  0.0454
  662TIP3    H123545   1.740   1.877   8.716  0.0622  1.7563 -2.2956
  662TIP3    H223546   1.707   1.966   8.834  0.9799 -1.4374  0.5368
  663TIP3   OH223547   1.714   5.904   2.078  0.0446 -0.3263 -0.3428
  663TIP3    H123548   1.671   5.873   2.158  2.0053 -0.2851  0.8017
  663TIP3    H223549   1.665   5.863   2.007 -1.8677 -0.2506  0.8435
  664TIP3   OH223550   0.619   5.321   8.829  0.0412 -0.0215 -0.5856
  664TIP3    H123551   0.688   5.309   8.894 -0.8622 -0.9835  0.2292
  664TIP3    H223552   0.538   5.329   8.880 -0.6788 -0.7323 -1.5678
  665TIP3   OH223553   1.067   1.630   2.274  0.2461 -0.7333 -0.2340
  665TIP3    H123554   0.981   1.620   2.315  0.8353 -1.0234  0.9956
  665TIP3    H223555   1.068   1.565   2.204  0.6016 -3.0582  1.7760
  666TIP3   OH223556   3.073   3.505   8.609  0.3095  0.5545  0.3244
  666TIP3    H123557   3.011   3.526   8.679  0.9290 -0.3901  1.1879
  666TIP3    H223558   3.150   3.472   8.655  0.0952 -1.7613 -0.8459
  667TIP3   OH223559   2.903   0.342   2.914  0.6666 -0.0943  0.1491
  667TIP3    H123560   2.974   0.296   2.869 -0.0968 -1.3668  0.2058
  667TIP3    H223561   2.895   0.297   2.998  1.4887  1.6899  1.2492
  668TIP3   OH223562   2.165   4.730   7.846 -0.5600  0.4007  0.1314
  668TIP3    H123563   2.075   4.764   7.840 -0.5289  0.4395 -0.1225
  668TIP3    H223564   2.154   4.640   7.879 -0.7547  0.0993 -0.7383
  669TIP3   OH223565   1.888   1.206   7.542  0.2895 -0.5819 -0.4729
  669TIP3    H123566   1.953   1.273   7.521  0.2373 -0.3151  0.2038
  669TIP3    H223567   1.842   1.190   7.459  0.8434 -0.3714 -0.8255
  670TIP3   OH223568   1.512   6.517   0.366 -0.0514 -0.1309  0.5441
  670TIP3    H123569   1.555   6.437   0.334  0.0790 -0.5649  1.7337
  670TIP3    H223570   1.432   6.485   0.408 -1.2395  0.6141 -1.0903
  671TIP3   OH223571   1.577   3.535   1.317 -0.1947 -0.5225 -0.0512
  671TIP3    H123572   1.534   3.449   1.315 -1.7466  0.2313 -1.3551
  671TIP3    H223573   1.592   3.556   1.225  1.8906 -0.1612  0.3106
  672TIP3   OH223574   1.987   4.649   1.540  0.4513 -0.4170  0.0441
  672TIP3    H123575   2.002   4.743   1.550 -1.5290  0.1155 -1.4984
  672TIP3    H223576   1.930   4.625   1.613 -1.6597  0.3120 -1.2787
  673TIP3   OH223577   3.050   5.030   1.676 -0.0752 -0.3588 -0.0563
  673TIP3    H123578   3.040   5.011   1.769  0.3369  1.9500  0.5189
  673TIP3    H223579   2.961   5.028   1.641 -0.2120 -1.4311  0.3063
  674TIP3   OH223580   3.538   4.231   2.066  0.3094  0.6777  0.5248
  674TIP3    H123581   3.558   4.321   2.041  0.0426  0.0585 -2.2862
  674TIP3    H223582   3.471   4.204   2.003 -0.9683 -0.9446  2.4556
  675TIP3   OH223583   1.470   4.617   0.110  0.2210 -0.2040  0.1412
  675TIP3    H123584   1.497   4.538   0.157  0.4506 -0.1620  0.0795
  675TIP3    H223585   1.418   4.585   0.036  1.1481 -0.3537 -0.4581
  676TIP3   OH223586   4.743   0.167   0.050 -0.1350 -0.6200 -0.4290
  676TIP3    H123587   4.690   0.144  -0.026  0.2485 -3.1495 -0.0142
  676TIP3    H223588   4.736   0.092   0.108 -0.4981  1.2670  2.1409
  677TIP3   OH223589   2.900   6.630   0.921 -0.7291  0.0545  0.5739
  677TIP3    H123590   2.986   6.667   0.901 -0.0637 -0.9068  1.5330
  677TIP3    H223591   2.874   6.674   1.002 -1.0206  0.1533  0.4261
  678TIP3   OH223592   1.095   4.215   0.976 -0.6687  0.6084 -0.0022
  678TIP3    H123593   1.171   4.165   1.007 -0.7276  0.4753 -0.0767
  678TIP3    H223594   1.075   4.178   0.891 -2.0347 -0.6681  0.8348
  679TIP3   OH223595   5.142   0.873   1.689 -0.9015 -0.6930  0.2988
  679TIP3    H123596   5.202   0.943   1.662  0.6335 -1.1581  2.2817
  679TIP3    H223597   5.057   0.916   1.697 -0.7084  0.1914 -1.7157
  680TIP3   OH223598   6.155   2.745   7.506  0.6895  0.2575  0.2532
  680TIP3    H123599   6.093   2.793   7.450  0.7176  0.6873  0.5832
  680TIP3    H223600   6.241   2.774   7.476  0.7707 -1.0317 -0.8199
  681TIP3   OH223601   1.900   5.610   2.833  0.1250  0.0222 -0.3169
  681TIP3    H123602   1.975   5.616   2.892 -0.2197 -2.4211  0.5182
  681TIP3    H223603   1.824   5.618   2.891 -0.3098  2.1485 -1.1094
  682TIP3   OH223604   0.411   2.395   1.411  0.0459  0.1184 -0.1730
  682TIP3    H123605   0.319   2.404   1.435  0.5016 -0.4686  2.0661
  682TIP3    H223606   0.458   2.442   1.480  1.4219  0.6512 -1.4393
  683TIP3   OH223607   0.940   4.163   2.397 -0.3672 -0.4694 -0.6205
  683TIP3    H123608   0.868   4.104   2.373 -0.5872  0.2506 -1.7920
  683TIP3    H223609   0.898   4.248   2.408  0.4923  0.3279 -2.9373
  684TIP3   OH223610   4.030   1.646   7.631 -0.4106  0.4361 -0.4575
  684TIP3    H123611   3.997   1.726   7.591 -2.2290  0.2596  0.6263
  684TIP3    H223612   3.956   1.610   7.680  0.8437 -1.0194  0.4728
  685TIP3   OH223613   2.938   1.771   7.310  0.0395  0.1137 -0.4263
  685TIP3    H123614   3.016   1.823   7.328  0.2976 -0.6545  0.8762
  685TIP3    H223615   2.930   1.770   7.215  1.5468  0.3261 -0.5808
  686TIP3   OH223616   2.606   0.297   8.764  0.8083  0.5499 -0.3780
  686TIP3    H123617   2.591   0.264   8.675 -0.6007  0.5220 -0.1502
  686TIP3    H223618   2.524   0.339   8.788  1.2812  0.8317  0.8020
  687TIP3   OH223619   4.352   4.906   0.193 -0.1857  0.0964 -0.5753
  687TIP3    H123620   4.411   4.971   0.154 -0.5536  0.4769 -0.4957
  687TIP3    H223621   4.363   4.919   0.287  1.2652 -1.3168 -0.5005
  688TIP3   OH223622   5.437   5.085   1.037  0.2895 -0.4008 -0.2380
  688TIP3    H123623   5.441   5.180   1.048 -1.0636 -0.3907  0.4670
  688TIP3    H223624   5.379   5.072   0.962 -1.5175 -0.6597  1.1240
  689TIP3   OH223625   3.449   4.164   1.828  0.2225  0.2950  0.4979
  689TIP3    H123626   3.545   4.161   1.829  0.2771  0.7230 -1.2225
  689TIP3    H223627   3.425   4.131   1.742 -1.1632  0.7697  0.6900
  690TIP3   OH223628   2.998   1.846   8.751 -0.4099 -0.1690 -0.1203
  690TIP3    H123629   2.908   1.864   8.725 -0.5300  1.1130  1.0267
  690TIP3    H223630   3.026   1.926   8.796  1.9195  0.1822 -2.0092
  691TIP3   OH223631   3.717   1.884   8.624  0.0189  0.4430  0.4398
  691TIP3    H123632   3.662   1.812   8.594 -1.0070  1.3947 -0.0253
  691TIP3    H223633   3.691   1.897   8.715 -0.6953  1.0259  0.1611
  692TIP3   OH223634   4.986   1.992   0.013  0.6273 -0.8353 -0.9036
  692TIP3    H123635   5.045   1.970  -0.059 -0.0755 -1.0042 -1.4391
  692TIP3    H223636   5.001   2.085   0.029  2.8258 -1.3710  0.6333
  693TIP3   OH223637   1.040   6.643   7.962  0.0734  0.0115 -0.1875
  693TIP3    H123638   1.014   6.700   7.889 -0.9022 -0.0518  0.0929
  693TIP3    H223639   1.000   6.559   7.942  0.1291 -0.1143  0.2300
  694TIP3   OH223640   4.245   5.696   2.319 -0.0799 -0.6502 -0.1759
  694TIP3    H123641   4.225   5.650   2.401 -0.8178  0.4552  0.2888
  694TIP3    H223642   4.266   5.626   2.257  0.0573 -1.5296  0.8359
  695TIP3   OH223643   4.193   2.355   0.236  0.3398  0.5744 -0.6732
  695TIP3    H123644   4.139   2.387   0.163 -0.6723 -0.2717 -0.3199
  695TIP3    H223645   4.177   2.417   0.307  0.9424  1.1161 -0.9917
  696TIP3   OH223646   3.448   4.789   8.149 -0.1739 -0.2394 -0.5712
  696TIP3    H123647   3.496   4.870   8.166 -0.2463 -0.5055  1.1156
  696TIP3    H223648   3.515   4.725   8.127  0.2244 -0.4005  0.9499
  697TIP3   OH223649   1.211   0.896   8.318  0.2876 -0.6118 -1.4581
  697TIP3    H123650   1.163   0.823   8.357 -1.1170 -0.1371 -2.2216
  697TIP3    H223651   1.144   0.962   8.302  1.8236  1.8967  1.4553
  698TIP3   OH223652   0.431   4.834   1.316 -0.8607  0.4940 -0.5545
  698TIP3    H123653   0.492   4.845   1.243  3.0630 -1.5689  2.0670
  698TIP3    H223654   0.423   4.739   1.327 -1.7683  0.7379  1.3385
  699TIP3   OH223655   2.276   1.769   0.165 -0.1665  0.0476  0.3824
  699TIP3    H123656   2.316   1.696   0.212 -0.9586  0.2481  1.3791
  699TIP3    H223657   2.269   1.737   0.074  0.8783 -0.5366  0.4842
  700TIP3   OH223658   3.021   3.221   7.740  0.0745 -0.2642 -0.4258
  700TIP3    H123659   3.022   3.169   7.820  0.3473  0.1192 -0.1771
  700TIP3    H223660   3.113   3.243   7.725  0.2257 -1.5897 -1.6797
  701TIP3   OH223661   3.642   5.792   7.984  0.0175  0.5635 -0.0119
  701TIP3    H123662   3.562   5.741   7.999  0.1587  0.6533  1.0948
  701TIP3    H223663   3.640   5.860   8.051 -0.0068  1.8525 -1.2736
  702TIP3   OH223664   4.740   4.444   0.306 -0.0095  0.2432  0.1907
  702TIP3    H123665   4.712   4.364   0.261  0.5372  0.6678 -0.9585
  702TIP3    H223666   4.672   4.461   0.371 -0.3771 -0.8836  0.1178
  703TIP3   OH223667   6.164   4.743   2.186 -0.3286 -0.2564 -0.0019
  703TIP3    H123668   6.198   4.744   2.275  1.0552  0.1940 -0.5195
  703TIP3    H223669   6.200   4.663   2.147 -2.1268 -1.2527  0.2573
  704TIP3   OH223670   1.000   2.299   7.923  0.5014  0.0414 -0.3683
  704TIP3    H123671   0.956   2.229   7.875  1.3622 -0.2062 -0.8287
  704TIP3    H223672   0.946   2.377   7.907 -1.6189 -0.8402  1.8034
  705TIP3   OH223673   3.253   2.059   6.587  0.2082  0.2161 -0.0525
  705TIP3    H123674   3.299   1.978   6.607 -1.5667 -0.7422  0.2931
  705TIP3    H223675   3.167   2.032   6.555  0.4730  1.8874 -2.4732
  706TIP3   OH223676   2.279   1.999   2.337 -0.3251  0.9827 -0.2304
  706TIP3    H123677   2.319   2.079   2.303 -1.6610  1.5868 -0.4497
  706TIP3    H223678   2.353   1.942   2.358  0.6853  2.4900  0.4830
  707TIP3   OH223679   6.166   4.784   0.177  0.5704 -0.0626 -0.0460
  707TIP3    H123680   6.230   4.769   0.246 -0.0267 -0.7307  0.3724
  707TIP3    H223681   6.082   4.794   0.223  0.5440  2.2424 -0.4653
  708TIP3   OH223682   3.631   6.519   7.939  0.0236  0.2744 -0.1923
  708TIP3    H123683   3.645   6.612   7.928 -2.6210  0.7947  0.0174
  708TIP3    H223684   3.694   6.492   8.006  0.8567  1.8764 -0.3025
  709TIP3   OH223685   5.841   5.797   1.208 -0.4484  0.1005  0.6030
  709TIP3    H123686   5.920   5.843   1.180  0.9477 -1.0911  2.3666
  709TIP3    H223687   5.792   5.861   1.259 -0.1092  0.5380  0.3837
  710TIP3   OH223688   4.091   4.940   0.042  0.3474  0.1512  0.0466
  710TIP3    H123689   4.103   4.853   0.079  1.1173  1.0513  2.0453
  710TIP3    H223690   4.121   5.000   0.110  1.8554  1.9439 -2.0246
  711TIP3   OH223691   4.533   0.321   0.383  1.0281 -0.1555 -0.0374
  711TIP3    H123692   4.470   0.252   0.362  0.4259  0.0358  1.0460
  711TIP3    H223693   4.618   0.276   0.385  0.5772 -0.9909  1.1519
  712TIP3   OH223694   4.096   1.152   0.435  0.2300 -0.7121  0.0658
  712TIP3    H123695   4.041   1.226   0.409 -2.3827 -2.4688  0.1602
  712TIP3    H223696   4.101   1.097   0.357 -1.2876 -2.3286  1.0279
  713TIP3   OH223697   6.003   1.002   8.337 -0.5721  0.1767 -0.5351
  713TIP3    H123698   5.935   0.980   8.273  1.4753 -1.3198 -2.3239
  713TIP3    H223699   5.982   0.946   8.413  0.2361 -2.5937 -2.1998
  714TIP3   OH223700   1.198   4.267   1.297 -0.0073  0.2141 -0.6475
  714TIP3    H123701   1.242   4.231   1.220  0.0804  0.4525 -0.7102
  714TIP3    H223702   1.260   4.254   1.368 -1.0651 -2.2982 -0.0806
  715TIP3   OH223703   3.080   3.622   7.842 -0.0292 -0.3400  0.6311
  715TIP3    H123704   3.012   3.657   7.783  0.3766 -0.3129  0.1767
  715TIP3    H223705   3.050   3.647   7.929 -0.8171 -0.6817  0.4690
  716TIP3   OH223706   3.517   3.019   1.983 -0.3001  0.7414 -0.3156
  716TIP3    H123707   3.504   3.114   1.986 -1.0131  0.6269  0.7841
  716TIP3    H223708   3.448   2.984   2.039  0.0144 -0.4305 -0.6376
  717TIP3   OH223709   5.755   4.999   8.158 -0.7409  0.6647  0.2654
  717TIP3    H123710   5.744   4.914   8.200 -0.9688  0.4615 -0.1978
  717TIP3    H223711   5.781   4.978   8.068  1.0871  1.0983  0.6466
  718TIP3   OH223712   5.595   2.892   8.522 -0.3608 -0.0216  0.1210
  718TIP3    H123713   5.617   2.800   8.507 -0.8935 -0.4602  1.8229
  718TIP3    H223714   5.610   2.934   8.438 -0.6467 -1.7667 -0.8483
  719TIP3   OH223715   3.383   6.556   8.521  0.4565  0.5791  0.2259
  719TIP3    H123716   3.378   6.487   8.456  0.5144  1.8928 -1.2225
  719TIP3    H223717   3.341   6.519   8.599  0.5794 -1.0969 -0.4707
  720TIP3   OH223718   4.882   2.560   6.964 -0.0007  0.0936 -0.2385
  720TIP3    H123719   4.880   2.586   6.872  2.1795  0.5493 -0.2189
  720TIP3    H223720   4.891   2.642   7.012 -1.7550 -0.0831  0.4749
  721TIP3   OH223721   1.688   6.696   0.489 -0.0422  0.3597  0.2112
  721TIP3    H123722   1.629   6.739   0.550 -0.6181 -1.2395  0.8362
  721TIP3    H223723   1.630   6.657   0.423  0.5262  1.3910 -0.9465
  722TIP3   OH223724   4.562   0.900   2.281  0.0516 -0.0167 -0.3626
  722TIP3    H123725   4.656   0.899   2.268  0.2803  1.0213  1.0195
  722TIP3    H223726   4.531   0.972   2.226  0.5196  1.7580  1.5539
  723TIP3   OH223727   5.501   5.819   2.213 -0.4597 -0.1008 -0.0885
  723TIP3    H123728   5.501   5.756   2.141 -0.6002 -0.9830  0.6570
  723TIP3    H223729   5.553   5.776   2.282 -0.7327  0.5090  0.5106
  724TIP3   OH223730   6.669   4.340   0.351 -0.1036  0.0127 -0.4237
  724TIP3    H123731   6.710   4.338   0.438 -1.8947  2.4012  0.5792
  724TIP3    H223732   6.734   4.383   0.295 -0.3992  2.0115  0.6929
  725TIP3   OH223733   4.213   4.940   7.622  0.5803 -0.5831 -0.4207
  725TIP3    H123734   4.163   4.910   7.697  0.7609 -1.1926 -0.5346
  725TIP3    H223735   4.236   5.031   7.642  0.1259 -0.5566 -0.0123
  726TIP3   OH223736   5.932   4.599   2.099  0.0164  0.5739 -0.4102
  726TIP3    H123737   6.010   4.654   2.089  0.8241 -0.5706 -0.7016
  726TIP3    H223738   5.934   4.571   2.190 -0.6698  1.4020 -0.1292
  727TIP3   OH223739   6.299   1.295   8.595 -0.1362 -0.1005  0.2033
  727TIP3    H123740   6.393   1.285   8.578 -0.6263  1.5346 -5.5787
  727TIP3    H223741   6.286   1.390   8.601 -1.6770  0.1030 -3.6635
  728TIP3   OH223742   5.448   3.476   0.240 -0.4518  0.2016  0.5713
  728TIP3    H123743   5.450   3.556   0.186 -0.8278 -0.3360 -0.2634
  728TIP3    H223744   5.522   3.485   0.300  0.2517  0.6163 -0.3424
  729TIP3   OH223745   3.471   4.905   2.039  0.0218  0.0037  0.1968
  729TIP3    H123746   3.403   4.939   2.098 -0.8194 -0.9375 -0.2162
  729TIP3    H223747   3.552   4.914   2.089 -0.6140 -0.3154  1.3163
  730TIP3   OH223748   3.281   2.132   8.763  0.0467 -0.3360  0.5916
  730TIP3    H123749   3.361   2.182   8.752  0.2210 -0.8664 -0.6984
  730TIP3    H223750   3.297   2.050   8.717 -0.6105 -1.1682  1.7907
  731TIP3   OH223751   6.571   2.436   1.760  0.3452  0.7624 -0.2950
  731TIP3    H123752   6.588   2.391   1.843 -1.7574  3.0163  1.5013
  731TIP3    H223753   6.596   2.527   1.776  0.9565  1.0467 -2.5474
  732TIP3   OH223754   1.431   3.176   0.085  0.0291 -0.8506  0.1371
  732TIP3    H123755   1.463   3.087   0.070 -0.5043 -1.1566  0.7428
  732TIP3    H223756   1.339   3.173   0.060  0.0693 -0.4013 -0.0778
  733TIP3   OH223757   0.009   3.662   1.861  0.2834 -0.0697  0.5834
  733TIP3    H123758  -0.073   3.640   1.818 -0.7379 -1.1742  2.8879
  733TIP3    H223759  -0.008   3.747   1.902  0.0196 -0.6044  1.6141
  734TIP3   OH223760   1.977   2.942   0.715  0.4882  0.1123 -0.0544
  734TIP3    H123761   2.034   2.865   0.710  0.6347  0.2162  0.0097
  734TIP3    H223762   1.900   2.918   0.664  0.4235 -0.1727  0.1741
  735TIP3   OH223763   4.961   4.894   7.863  0.6284  0.2910  0.6771
  735TIP3    H123764   5.055   4.909   7.874  0.7405 -1.1067  1.9620
  735TIP3    H223765   4.956   4.823   7.800  0.6184 -1.5656  2.6482
  736TIP3   OH223766   1.931   3.631   2.063  0.1684 -0.5107 -0.0960
  736TIP3    H123767   1.846   3.625   2.106  0.4730 -1.9651  0.3482
  736TIP3    H223768   1.994   3.632   2.135  0.5357  0.8930 -0.4111
  737TIP3   OH223769   3.083   5.186   7.470  0.2591 -0.5557  0.3465
  737TIP3    H123770   3.062   5.279   7.466 -2.0618 -1.0656 -0.3383
  737TIP3    H223771   3.176   5.182   7.448  0.4336  1.5932  0.4906
  738TIP3   OH223772   2.072   0.031   2.113 -0.4107 -0.0368  0.4240
  738TIP3    H123773   2.014   0.005   2.042 -0.6273  0.5330  0.3930
  738TIP3    H223774   2.130   0.096   2.074 -0.2001 -0.0980  0.6357
  739TIP3   OH223775   1.613   0.428   0.095 -0.5202  0.4370 -0.6333
  739TIP3    H123776   1.693   0.478   0.111 -1.7421  2.0439  0.7894
  739TIP3    H223777   1.606   0.424  -0.000  1.4251 -0.0827 -0.8036
  740TIP3   OH223778   6.091   0.238   1.642 -0.2765 -0.4683 -0.2001
  740TIP3    H123779   6.029   0.269   1.576  1.3579  0.9103 -1.1631
  740TIP3    H223780   6.177   0.243   1.600  0.9890  1.4071  2.2791
  741TIP3   OH223781   4.692   2.268   6.899  0.1584 -0.1700 -0.8900
  741TIP3    H123782   4.666   2.278   6.807  1.6036 -1.0428 -1.4189
  741TIP3    H223783   4.668   2.352   6.940 -0.2626  0.3296 -2.1135
  742TIP3   OH223784   2.477   1.144   0.991 -0.0459 -0.1509 -0.2140
  742TIP3    H123785   2.522   1.065   0.962 -0.6491 -0.5377 -0.1179
  742TIP3    H223786   2.544   1.213   0.988  0.1074 -0.3398 -1.7791
  743TIP3   OH223787   6.433   0.015   0.897  0.3403  0.2085 -0.4246
  743TIP3    H123788   6.526   0.001   0.879  0.1090 -1.5340 -0.4629
  743TIP3    H223789   6.398  -0.073   0.909 -0.6265  0.9179  3.1908
  744TIP3   OH223790   6.504   6.076   7.530 -0.0622  0.3463  0.2525
  744TIP3    H123791   6.547   6.006   7.480  1.1321  1.0020  0.3056
  744TIP3    H223792   6.553   6.080   7.612 -0.0786  1.2630  0.2270
  745TIP3   OH223793   5.307   1.854   2.433 -0.4072  0.1090  0.2510
  745TIP3    H123794   5.372   1.792   2.469 -0.0267 -1.6577 -3.1158
  745TIP3    H223795   5.225   1.831   2.477 -0.1776 -2.6023 -0.5606
  746TIP3   OH223796   3.616   0.837   0.458 -0.0385  0.4062 -0.1162
  746TIP3    H123797   3.688   0.877   0.506  1.0716 -0.4169 -1.0245
  746TIP3    H223798   3.654   0.812   0.374 -0.2789 -3.6034  0.7557
  747TIP3   OH223799   4.335   2.482   8.794  0.1950  0.5179  0.8052
  747TIP3    H123800   4.246   2.468   8.827  0.1467 -0.2434  0.3716
  747TIP3    H223801   4.336   2.574   8.766 -1.8984 -0.4675 -3.3607
  748TIP3   OH223802   4.158   4.065   0.945 -0.0504 -0.0929 -0.2668
  748TIP3    H123803   4.251   4.068   0.922  0.2488 -1.1822  0.7116
  748TIP3    H223804   4.144   4.144   0.998 -0.0857  0.9137 -1.7156
  749TIP3   OH223805   2.114   4.800   0.076  0.1716 -0.6097 -0.1645
  749TIP3    H123806   2.199   4.834   0.104 -0.2717  1.1565 -0.8332
  749TIP3    H223807   2.052   4.837   0.138 -0.3951  0.4032 -1.2849
  750TIP3   OH223808   2.930   6.688   7.231  0.2999 -0.0909  0.5322
  750TIP3    H123809   2.979   6.743   7.170  1.1616 -0.8605  0.5025
  750TIP3    H223810   2.997   6.645   7.283 -0.4156  1.6449  3.0816
  751TIP3   OH223811   5.487   1.702   1.188  0.2589  0.2094 -0.6286
  751TIP3    H123812   5.440   1.764   1.132 -1.6715 -0.3536  0.2812
  751TIP3    H223813   5.534   1.756   1.250  1.0458  0.7983 -1.6994
  752TIP3   OH223814   5.543   1.769   0.360  0.4304 -0.0060  0.2271
  752TIP3    H123815   5.469   1.742   0.304  0.3559  0.1345  0.2579
  752TIP3    H223816   5.559   1.693   0.417  0.9587 -0.4198 -0.4507
  753TIP3   OH223817   2.363   1.550   8.093 -0.1205  0.1322 -0.0394
  753TIP3    H123818   2.386   1.617   8.028  1.3059  0.5562  0.8451
  753TIP3    H223819   2.438   1.548   8.152 -0.9528 -0.9515  1.0246
  754TIP3   OH223820   5.749   2.605   1.758 -0.4969 -0.8053  0.7781
  754TIP3    H123821   5.754   2.697   1.730  1.0624 -1.1458 -0.1902
  754TIP3    H223822   5.737   2.610   1.852  0.0943  0.4092  0.8145
  755TIP3   OH223823   3.990   2.175   0.147  0.4240  0.0316  0.0977
  755TIP3    H123824   4.080   2.184   0.177  0.4988 -2.3137  0.6830
  755TIP3    H223825   3.998   2.157   0.053  0.6304 -1.0805  0.3204
  756TIP3   OH223826   2.899   0.652   1.240 -0.0467  0.0938  0.1663
  756TIP3    H123827   2.870   0.711   1.309  0.0796 -0.7739  0.9914
  756TIP3    H223828   2.867   0.691   1.159 -2.6322 -0.2815  0.9330
  757TIP3   OH223829   5.030   4.166   7.815 -0.5307 -0.5530  0.2815
  757TIP3    H123830   5.051   4.166   7.908  0.7577 -0.2631  0.0105
  757TIP3    H223831   4.986   4.250   7.800  4.5183  2.4162 -0.3837
  758TIP3   OH223832   5.974   1.618   0.855  0.2835  0.6324 -0.1015
  758TIP3    H123833   6.050   1.670   0.881  1.1766 -1.7510  2.4665
  758TIP3    H223834   5.933   1.592   0.938 -2.5510  0.6315 -1.3742
  759TIP3   OH223835   2.656   1.933   8.255  0.1183  0.2664  0.9469
  759TIP3    H123836   2.749   1.941   8.277  0.0874 -0.8239  1.4911
  759TIP3    H223837   2.613   1.993   8.315  0.3314 -0.3763  1.7530
  760TIP3   OH223838   1.636   4.488   8.764  0.3892 -0.2869 -0.1704
  760TIP3    H123839   1.705   4.540   8.804  1.3285 -2.6411  1.4944
  760TIP3    H223840   1.668   4.468   8.676  1.1875 -0.1532  0.0850
  761TIP3   OH223841   1.701   4.296   7.739 -0.6444  0.1820  1.0464
  761TIP3    H123842   1.657   4.233   7.682  2.9351 -0.3927 -1.4472
  761TIP3    H223843   1.674   4.381   7.707  0.1877 -0.1517 -0.6480
  762TIP3   OH223844   4.274   1.671   8.414  0.1229  0.1915  0.3606
  762TIP3    H123845   4.259   1.739   8.479  0.2052 -2.4222  3.3294
  762TIP3    H223846   4.353   1.626   8.443  0.0457 -1.2262 -1.4327
  763TIP3   OH223847   4.927   2.191   0.327 -0.1299 -0.4317 -0.1969
  763TIP3    H123848   4.917   2.281   0.299 -1.6538  0.0698  1.7053
  763TIP3    H223849   5.019   2.170   0.312  0.3803  1.6190 -0.1871
  764TIP3   OH223850   5.559   3.327   7.878 -0.3440 -0.2337  0.0145
  764TIP3    H123851   5.491   3.272   7.840 -0.3067  0.8173 -1.7049
  764TIP3    H223852   5.622   3.340   7.807 -0.0592  1.5084  0.5224
  765TIP3   OH223853   5.194   0.266   2.532  0.2642 -0.0902 -0.4126
  765TIP3    H123854   5.187   0.336   2.597  1.2539  0.8147 -1.2277
  765TIP3    H223855   5.277   0.224   2.551 -0.6497 -1.5623  0.5196
  766TIP3   OH223856   1.500   3.704   0.222  0.2269 -0.2141  0.6776
  766TIP3    H123857   1.445   3.670   0.151  0.9293  0.3949 -0.1890
  766TIP3    H223858   1.451   3.686   0.302 -0.1875 -1.7418  0.1220
  767TIP3   OH223859   0.203   5.431   2.608  0.1893  0.1015 -0.4476
  767TIP3    H123860   0.284   5.463   2.647 -0.8084 -0.2697  2.0765
  767TIP3    H223861   0.180   5.353   2.659 -2.2544  0.7572 -0.4221
  768TIP3   OH223862   4.739   4.059   1.258  0.3686 -0.3053  0.2153
  768TIP3    H123863   4.760   3.995   1.190  0.1405  1.0902 -1.2463
  768TIP3    H223864   4.717   4.139   1.209 -1.7025  0.2295  1.8531
  769TIP3   OH223865   0.920   1.814   1.233 -0.2474  0.2576 -0.8491
  769TIP3    H123866   0.998   1.860   1.265 -0.2759  0.6056 -1.2812
  769TIP3    H223867   0.848   1.851   1.284 -0.3358  1.0374 -1.5214
  770TIP3   OH223868   6.007   3.153   1.526 -0.1187 -0.5491  0.1452
  770TIP3    H123869   6.099   3.166   1.504 -0.4678  1.2887 -0.3392
  770TIP3    H223870   5.995   3.058   1.522  0.9671 -0.6860 -3.1639
  771TIP3   OH223871   3.631   4.552   0.324 -0.3053  0.1426 -0.0237
  771TIP3    H123872   3.644   4.645   0.305 -3.7642  0.4389 -1.7412
  771TIP3    H223873   3.545   4.549   0.367 -0.2567 -2.2744  0.0200
  772TIP3   OH223874   1.543   1.451   8.075 -0.6062 -0.2018  0.0107
  772TIP3    H123875   1.451   1.425   8.060 -0.6209  0.1309 -0.4882
  772TIP3    H223876   1.545   1.479   8.167 -0.6289 -1.7877  0.5418
  773TIP3   OH223877   3.117   4.935   2.651  0.2195  0.5674  0.1010
  773TIP3    H123878   3.093   4.975   2.734 -1.0159 -1.1772  0.6499
  773TIP3    H223879   3.202   4.893   2.668  0.0328  0.3282  0.4470
  774TIP3   OH223880   4.523   3.383   7.756 -0.2497  0.1481 -0.0710
  774TIP3    H123881   4.474   3.435   7.693 -0.6908  0.7548  0.7606
  774TIP3    H223882   4.615   3.406   7.740 -0.4390  1.2373  0.3205
  775TIP3   OH223883   2.399   2.502   7.225 -0.0563  0.0709 -0.1394
  775TIP3    H123884   2.423   2.430   7.283  0.8260  0.5653  0.1405
  775TIP3    H223885   2.314   2.477   7.189 -0.5030 -0.3806  1.1589
  776TIP3   OH223886   4.872   3.530   0.531 -0.5856 -0.3433  0.0996
  776TIP3    H123887   4.781   3.557   0.547 -0.3287  0.9782 -0.5522
  776TIP3    H223888   4.904   3.592   0.466  0.4827 -1.4150 -0.4380
  777TIP3   OH223889   3.329   1.389   0.122 -0.1725  0.3361  0.1287
  777TIP3    H123890   3.422   1.405   0.104  0.1094 -1.9468 -0.7834
  777TIP3    H223891   3.290   1.476   0.123  1.8218  1.3032 -0.3862
  778TIP3   OH223892   4.472   6.635   1.755  0.0299  0.8452  0.3801
  778TIP3    H123893   4.471   6.622   1.660  0.9278  1.4222  0.2755
  778TIP3    H223894   4.414   6.710   1.769 -1.7952 -0.5467  0.5343
  779TIP3   OH223895   1.433   0.923   0.141 -0.1953 -0.5468 -0.5188
  779TIP3    H123896   1.405   0.953   0.055  1.6401 -0.2032 -1.0347
  779TIP3    H223897   1.354   0.888   0.181 -1.3183  0.3080 -1.8998
  780TIP3   OH223898   2.882   5.567   8.640 -0.5829  0.1897 -0.1895
  780TIP3    H123899   2.951   5.524   8.589 -0.2170 -0.2622  0.6557
  780TIP3    H223900   2.837   5.624   8.577  1.5143  1.6651 -0.4841
  781TIP3   OH223901   0.690   1.961   0.133 -0.3619 -0.4536 -0.2133
  781TIP3    H123902   0.769   1.968   0.185 -0.4184  1.7312 -0.3257
  781TIP3    H223903   0.641   1.888   0.172  1.1950 -1.1554  0.5050
  782TIP3   OH223904   5.002   4.870   0.351  0.1161  0.3742  0.4437
  782TIP3    H123905   5.070   4.805   0.370  0.8570  1.6316  2.3426
  782TIP3    H223906   4.965   4.893   0.436 -3.4015 -0.8839 -0.5551
  783TIP3   OH223907   3.637   4.925   3.128  0.1351 -0.2454  0.2161
  783TIP3    H123908   3.606   5.010   3.159  0.4309 -0.0270 -0.0806
  783TIP3    H223909   3.569   4.863   3.155  0.0698  0.0371  0.7069
  784TIP3   OH223910   1.153   3.905   2.228 -0.2692  0.3490  0.0061
  784TIP3    H123911   1.070   3.889   2.275  0.7222 -0.9362  1.4101
  784TIP3    H223912   1.139   3.867   2.142 -0.5429 -1.5550  0.8489
  785TIP3   OH223913   3.744   3.772   0.286 -0.7612  0.1411  0.4844
  785TIP3    H123914   3.766   3.686   0.321  0.8658 -0.6649 -2.2233
  785TIP3    H223915   3.822   3.825   0.300 -0.8760  0.4386  0.0368
  786TIP3   OH223916   2.090   4.700   2.575 -0.1994 -1.0491  0.0267
  786TIP3    H123917   2.157   4.713   2.642 -1.2016 -0.1142  0.8770
  786TIP3    H223918   2.097   4.607   2.551  0.6938 -1.2074  0.8486
  787TIP3   OH223919   3.681   3.006   0.537 -0.3447  0.1251  0.2756
  787TIP3    H123920   3.726   3.091   0.541  0.2968 -0.1950  0.0560
  787TIP3    H223921   3.635   3.008   0.453  0.2003  0.0070 -0.0347
  788TIP3   OH223922   4.802   2.486   0.180 -0.0234 -0.1530 -0.0145
  788TIP3    H123923   4.786   2.486   0.274 -0.6374  0.3081 -0.1047
  788TIP3    H223924   4.726   2.533   0.143 -0.3127 -1.2095 -0.8254
  789TIP3   OH223925   5.147   4.449   1.148 -0.3218 -0.4459 -0.2935
  789TIP3    H123926   5.157   4.415   1.237  0.6370 -0.4954 -0.4094
  789TIP3    H223927   5.158   4.373   1.091  0.5026 -0.1829 -0.5024
  790TIP3   OH223928   5.597   6.388   0.208 -0.4423 -0.2456  0.0216
  790TIP3    H123929   5.579   6.430   0.124 -0.3791  0.0423  0.1490
  790TIP3    H223930   5.520   6.408   0.261  0.1107  0.7536  0.4794
  791TIP3   OH223931   3.656   3.107   7.621 -0.0650 -0.0309  1.0243
  791TIP3    H123932   3.604   3.187   7.629 -1.0887 -0.6586  0.8628
  791TIP3    H223933   3.592   3.036   7.629  0.7512 -0.8257  0.6820
  792TIP3   OH223934   1.097   2.534   0.688  0.3220  0.2712  0.2726
  792TIP3    H123935   1.003   2.522   0.702  0.5363  2.0364  4.4810
  792TIP3    H223936   1.103   2.604   0.623 -1.2244  0.0818 -0.1022
  793TIP3   OH223937   4.861   1.116   8.281 -0.3226 -0.3793  0.0857
  793TIP3    H123938   4.827   1.120   8.192  1.1015  0.6393 -0.4412
  793TIP3    H223939   4.826   1.194   8.324  0.0823 -0.1687  0.0259
  794TIP3   OH223940   2.246   1.477   2.714 -0.2115  0.0918 -0.4137
  794TIP3    H123941   2.272   1.499   2.803 -3.2448 -1.8238  1.0888
  794TIP3    H223942   2.307   1.407   2.688  0.0705 -0.0390  0.5681
  795TIP3   OH223943   4.809   6.697   2.044 -0.0860  0.3039  0.2638
  795TIP3    H123944   4.829   6.746   1.963  2.2750 -1.7369 -0.5148
  795TIP3    H223945   4.726   6.654   2.025  0.2800  0.0907 -1.0018
  796TIP3   OH223946   2.475   5.224   8.122 -0.0167 -0.0346 -0.3263
  796TIP3    H123947   2.490   5.299   8.179  1.0670  0.7241 -1.5562
  796TIP3    H223948   2.511   5.150   8.170 -1.2717  0.1765  0.9822
  797TIP3   OH223949   0.678   5.290   7.828 -0.3592 -0.0299  0.4015
  797TIP3    H123950   0.611   5.222   7.839  0.4688 -0.8696  0.3029
  797TIP3    H223951   0.750   5.262   7.884  0.1339  0.5805  0.0726
  798TIP3   OH223952   4.781   1.411   0.948 -0.1679 -0.3394  0.5831
  798TIP3    H123953   4.699   1.450   0.976 -0.5235  0.0414 -0.8820
  798TIP3    H223954   4.827   1.390   1.029 -1.0594  0.8255  1.4251
  799TIP3   OH223955   1.228   4.191   1.582  0.0283  0.2960 -0.3654
  799TIP3    H123956   1.223   4.129   1.655 -1.4514  0.6227 -0.1648
  799TIP3    H223957   1.176   4.266   1.610 -0.4201  0.5090 -1.6858
  800TIP3   OH223958   5.935   5.289   0.418 -0.2972  0.1754 -0.4844
  800TIP3    H123959   5.930   5.234   0.496 -1.7183  0.2352 -0.5111
  800TIP3    H223960   5.984   5.366   0.446 -1.1532  0.3906  0.4824
  801TIP3   OH223961   5.136   4.139   1.958  0.2035  0.5900 -0.0461
  801TIP3    H123962   5.075   4.130   2.031 -0.1985  0.5650 -0.3833
  801TIP3    H223963   5.146   4.233   1.947 -0.4294  0.6032 -0.5317
  802TIP3   OH223964   3.931   6.642   1.292  0.5818 -0.1780 -0.0015
  802TIP3    H123965   3.995   6.665   1.359  1.4197  0.5120 -1.0134
  802TIP3    H223966   3.846   6.648   1.336  1.1044  0.5065  0.9240
  803TIP3   OH223967   0.183   0.104   1.039 -0.6158 -0.4781 -0.4700
  803TIP3    H123968   0.115   0.045   1.071 -0.3874 -0.4257  0.1300
  803TIP3    H223969   0.250   0.046   1.003 -0.3606 -0.5887  0.1821
  804TIP3   OH223970   0.036   5.054   1.536 -0.2049 -0.2695  0.1674
  804TIP3    H123971   0.088   5.016   1.606  1.5299  0.1686 -0.8256
  804TIP3    H223972   0.053   5.148   1.542  1.6943 -0.3766 -2.0751
  805TIP3   OH223973   5.058   3.387   1.260  0.1903 -0.1147 -0.1340
  805TIP3    H123974   5.105   3.448   1.317 -0.4738 -0.6317  1.0156
  805TIP3    H223975   5.126   3.332   1.222  0.6004 -0.3451  0.8955
  806TIP3   OH223976   5.094   3.964   8.683 -0.3192  0.4079 -0.3111
  806TIP3    H123977   5.012   4.008   8.703 -0.6174 -0.3664  0.2065
  806TIP3    H223978   5.071   3.872   8.673  0.6277 -0.0134  0.9637
  807TIP3   OH223979   3.359   0.612   1.350 -0.1590  0.1887 -0.3107
  807TIP3    H123980   3.323   0.662   1.423 -1.6942 -1.7980  0.3811
  807TIP3    H223981   3.294   0.544   1.333  0.2812  0.3858 -3.3661
  808TIP3   OH223982   6.230   5.357   1.261  0.6087 -0.4062 -0.0244
  808TIP3    H123983   6.174   5.353   1.339  1.1813 -0.3059  0.4024
  808TIP3    H223984   6.205   5.281   1.209  1.1007 -1.2056  0.8751
  809TIP3   OH223985   3.526   6.244   0.374 -0.3233 -0.2808  0.7879
  809TIP3    H123986   3.440   6.208   0.392 -0.9826  1.0373  0.4026
  809TIP3    H223987   3.514   6.339   0.376  1.0229 -0.0675  0.2749
  810TIP3   OH223988   3.693   1.613   7.955  0.4906  0.6229 -0.2366
  810TIP3    H123989   3.682   1.568   7.872 -0.3982 -2.6909  1.4730
  810TIP3    H223990   3.786   1.606   7.974  0.6905  1.3667 -0.9335
  811TIP3   OH223991   2.206   1.490   1.368  0.2636  0.4023 -0.4295
  811TIP3    H123992   2.259   1.446   1.301 -0.2878 -0.1216 -0.5297
  811TIP3    H223993   2.189   1.577   1.332  2.1184  1.0630  0.1520
  812TIP3   OH223994   5.367   3.294   7.258  0.5768  0.4055 -0.0761
  812TIP3    H123995   5.282   3.256   7.237  0.3932  0.9751 -0.3802
  812TIP3    H223996   5.407   3.313   7.174  0.5069  1.2232  0.0669
  813TIP3   OH223997   2.430   1.003   1.549 -0.0809 -0.1348 -0.2351
  813TIP3    H123998   2.403   1.095   1.552 -0.5797 -0.2754 -0.3233
  813TIP3    H223999   2.490   0.993   1.623  0.3256  0.3677 -0.4939
  814TIP3   OH224000   5.188   1.735   0.881  0.3205 -0.4303 -0.0267
  814TIP3    H124001   5.258   1.670   0.872 -0.4258 -0.9329 -3.2786
  814TIP3    H224002   5.202   1.796   0.809 -0.3267  1.7948  1.6187
  815TIP3   OH224003   2.310   2.643   1.035 -0.1981  0.1605  0.6162
  815TIP3    H124004   2.391   2.688   1.009  0.7143 -1.3519  0.7060
  815TIP3    H224005   2.266   2.705   1.093  0.5141  1.3240 -0.0323
  816TIP3   OH224006   3.777   2.778   2.223 -0.1761  0.4351  0.1331
  816TIP3    H124007   3.739   2.715   2.162  0.8926  0.3272 -0.4306
  816TIP3    H224008   3.871   2.767   2.214  0.0276 -0.0896  2.3300
  817TIP3   OH224009   4.974   0.810   1.179  0.1153 -0.3735  0.2258
  817TIP3    H124010   5.014   0.887   1.138  0.7807 -1.3774 -1.1099
  817TIP3    H224011   4.906   0.783   1.118  0.4841 -1.3514  0.2226
  818TIP3   OH224012   3.874   1.443   7.162  0.6286  0.0788  0.0124
  818TIP3    H124013   3.836   1.505   7.224 -0.7456 -1.5344  0.8622
  818TIP3    H224014   3.804   1.427   7.099  0.7082 -1.0850  0.1994
  819TIP3   OH224015   4.574   1.634   1.061 -0.2166  0.1605  0.3754
  819TIP3    H124016   4.492   1.667   1.024 -0.3681 -0.3315  0.2701
  819TIP3    H224017   4.641   1.695   1.029 -0.6282  0.9786  1.0448
  820TIP3   OH224018   1.245   5.200   7.915 -0.3453 -0.9465 -0.0590
  820TIP3    H124019   1.295   5.281   7.928  2.0324 -2.4440  0.8083
  820TIP3    H224020   1.173   5.225   7.858  0.7716  1.6159 -0.4788
  821TIP3   OH224021   4.267   6.583   2.832 -0.6049 -0.0828 -0.0357
  821TIP3    H124022   4.315   6.554   2.909 -0.2677  1.2094  0.2655
  821TIP3    H224023   4.281   6.513   2.767  0.6514 -0.3087  0.4528
  822TIP3   OH224024   1.979   0.159   2.867 -0.6231 -0.3787 -0.1519
  822TIP3    H124025   2.037   0.235   2.865 -0.9350 -0.1445 -0.4472
  822TIP3    H224026   2.035   0.087   2.899 -0.2142 -0.1245 -0.2817
  823TIP3   OH224027   3.905   3.951   7.407  0.2305 -0.2289 -0.0974
  823TIP3    H124028   3.907   4.012   7.333 -0.8000 -0.1948 -0.1141
  823TIP3    H224029   3.980   3.893   7.393  0.3383  0.0955 -0.8959
  824TIP3   OH224030   5.317   1.867   7.006  0.3830 -0.7229 -0.2787
  824TIP3    H124031   5.360   1.875   7.091  0.4998 -0.4922 -0.3601
  824TIP3    H224032   5.322   1.773   6.986  1.0549 -0.6630 -0.3976
  825TIP3   OH224033   4.249   1.511   2.231  0.4833  0.5913  0.0047
  825TIP3    H124034   4.182   1.540   2.169 -0.1156 -0.8784 -0.0646
  825TIP3    H224035   4.200   1.482   2.308  0.8541 -1.9667 -0.6258
  826TIP3   OH224036   3.424   1.730   7.898  0.4880  0.1312  0.1018
  826TIP3    H124037   3.460   1.818   7.899  1.0996  0.0879 -3.3792
  826TIP3    H224038   3.496   1.673   7.925  0.8753  0.5481 -0.0454
  827TIP3   OH224039   3.828   6.183   2.081 -0.7133 -0.3192 -0.4794
  827TIP3    H124040   3.769   6.239   2.032  0.8270  0.8102 -1.0968
  827TIP3    H224041   3.899   6.240   2.109  0.1412 -1.6440  0.1939
  828TIP3   OH224042   4.893   0.455   8.673 -0.1346  0.1926  0.6549
  828TIP3    H124043   4.954   0.385   8.695 -0.6796 -0.3447  0.4544
  828TIP3    H224044   4.871   0.495   8.757  1.6314  1.3653  0.6220
  829TIP3   OH224045   6.263   0.416   1.912 -0.1378  0.4758 -0.1308
  829TIP3    H124046   6.318   0.392   1.987 -0.8605 -1.0305 -0.0365
  829TIP3    H224047   6.279   0.346   1.848 -0.0962  1.3428 -1.0957
  830TIP3   OH224048   6.554   6.360   7.555 -0.0045  0.2452 -0.2280
  830TIP3    H124049   6.544   6.283   7.499  0.2873  0.2111 -0.2385
  830TIP3    H224050   6.608   6.420   7.503 -1.1776  0.9398 -0.6882
  831TIP3   OH224051   4.966   1.319   7.959  0.1693 -0.2851  0.2821
  831TIP3    H124052   4.948   1.347   7.869 -2.0519 -2.4131 -0.0794
  831TIP3    H224053   5.055   1.284   7.956  0.3468  0.2165 -0.9404
  832TIP3   OH224054   6.445   3.752   8.449  0.2912  0.4014  0.0285
  832TIP3    H124055   6.496   3.683   8.490 -1.1897 -0.2248  0.9002
  832TIP3    H224056   6.427   3.719   8.361  0.6361  0.2367  0.0174
  833TIP3   OH224057   4.539   4.048   8.730 -0.3723 -0.0079 -0.4441
  833TIP3    H124058   4.470   4.058   8.795  0.2389 -1.7178  0.5351
  833TIP3    H224059   4.494   4.011   8.654 -0.4310 -2.2442  0.5894
  834TIP3   OH224060   2.309   0.395   0.520 -0.2006  0.1954 -0.2334
  834TIP3    H124061   2.285   0.326   0.458  1.5238 -0.6211 -0.0478
  834TIP3    H224062   2.359   0.350   0.588  0.8799  1.5942 -0.0568
  835TIP3   OH224063   5.740   4.264   1.227  0.1969  0.1748  1.0802
  835TIP3    H124064   5.835   4.264   1.238  0.1455  0.0249  1.5682
  835TIP3    H224065   5.706   4.275   1.316 -0.2317  1.9702  0.7225
  836TIP3   OH224066   1.331   4.680   1.951  0.1780 -0.2331 -0.0292
  836TIP3    H124067   1.401   4.674   2.017 -1.4617  1.6383  2.0829
  836TIP3    H224068   1.353   4.758   1.900  0.9378 -1.1298 -1.1129
  837TIP3   OH224069   4.732   5.275   7.277 -0.1446  0.2392  0.0498
  837TIP3    H124070   4.790   5.219   7.329  0.4266  0.3154 -0.4854
  837TIP3    H224071   4.783   5.296   7.198  0.0317  2.2579  0.6369
  838TIP3   OH224072   5.254   2.600   7.829  0.5578  0.2583  0.4790
  838TIP3    H124073   5.222   2.670   7.885  0.5623  1.8158 -1.3547
  838TIP3    H224074   5.208   2.522   7.860 -1.6362  1.5781  0.8235
  839TIP3   OH224075   1.642   3.784   8.733 -0.2919  0.3400  0.2659
  839TIP3    H124076   1.646   3.852   8.665 -1.0624 -0.7971 -0.9571
  839TIP3    H224077   1.730   3.782   8.770  1.5424 -1.8531 -3.5773
  840TIP3   OH224078   2.653   3.545   7.988 -0.0773  0.0763  0.2272
  840TIP3    H124079   2.685   3.559   7.899  0.0486  2.1801  0.5539
  840TIP3    H224080   2.689   3.460   8.014 -0.0364 -0.5221 -1.6732
  841TIP3   OH224081   2.874   0.760   1.499  0.4065  0.1026 -0.4385
  841TIP3    H124082   2.898   0.780   1.590 -2.1798 -0.6407  0.4953
  841TIP3    H224083   2.869   0.846   1.457 -1.3901  0.7844  1.0028
  842TIP3   OH224084   0.333   4.094   2.172 -0.4583  0.0126  0.1510
  842TIP3    H124085   0.403   4.103   2.238 -1.2634 -1.3846  1.2430
  842TIP3    H224086   0.302   4.004   2.182 -1.1644  0.0241 -1.6082
  843TIP3   OH224087   2.222   4.906   8.044  0.5320 -0.5604  0.8370
  843TIP3    H124088   2.237   4.990   8.001  0.2518 -0.8214  0.2010
  843TIP3    H224089   2.236   4.842   7.974 -2.4565 -0.8925  0.4013
  844TIP3   OH224090   2.051   3.062   1.256 -0.3840 -0.1675 -0.2568
  844TIP3    H124091   1.970   3.103   1.286 -0.0868 -0.1955  0.6163
  844TIP3    H224092   2.121   3.116   1.294  0.0158  0.1409 -1.3938
  845TIP3   OH224093   4.898   2.369   0.694 -0.0317 -0.1041  0.3998
  845TIP3    H124094   4.841   2.306   0.736  0.8900 -0.8558  0.5624
  845TIP3    H224095   4.987   2.338   0.712  0.4337 -0.5245 -2.1269
  846TIP3   OH224096   4.216   1.093   8.077  0.7581  0.0191 -0.0300
  846TIP3    H124097   4.207   1.069   7.985 -0.6598  1.5991 -0.3698
  846TIP3    H224098   4.258   1.179   8.074 -2.9015  2.0238  0.4423
  847TIP3   OH224099   3.525   5.865   8.247  0.1133  0.0397  0.0527
  847TIP3    H124100   3.592   5.903   8.303 -1.4194  0.8529  1.4248
  847TIP3    H224101   3.517   5.775   8.277 -0.2001  0.2698  0.6700
  848TIP3   OH224102   0.446   4.084   0.958 -0.4817  0.2181  0.4804
  848TIP3    H124103   0.383   4.109   0.890  0.3239 -0.1039 -0.4006
  848TIP3    H224104   0.452   4.161   1.015  0.2690  1.2047 -0.9030
  849TIP3   OH224105   2.289   4.690   0.666  0.6910 -0.3769 -0.0246
  849TIP3    H124106   2.200   4.722   0.674  0.0536 -1.5524 -1.7476
  849TIP3    H224107   2.343   4.769   0.667 -0.1500  0.2500  2.8037
  850TIP3   OH224108   6.255   2.572   7.904  0.1708  1.0175 -0.7601
  850TIP3    H124109   6.206   2.495   7.932  1.3386 -0.2880 -2.1453
  850TIP3    H224110   6.193   2.645   7.914 -1.6999 -0.3975 -1.4733
  851TIP3   OH224111   3.937   4.369   0.519  0.0197  0.3727 -0.7925
  851TIP3    H124112   3.978   4.449   0.487  1.1182  0.0862 -0.1530
  851TIP3    H224113   3.902   4.393   0.605 -1.8685  0.8158 -1.6272
  852TIP3   OH224114   2.205   1.309   0.188  0.0478  0.2715  0.0563
  852TIP3    H124115   2.286   1.271   0.222  1.6934  0.8803 -2.8817
  852TIP3    H224116   2.170   1.241   0.130 -1.2408  0.2806  0.7828
  853TIP3   OH224117   2.325   3.882   0.906 -0.6050 -0.3783  0.2259
  853TIP3    H124118   2.308   3.805   0.851 -1.8594  0.5206 -0.7131
  853TIP3    H224119   2.318   3.956   0.845  1.1857  0.4726  0.9745
  854TIP3   OH224120   1.120   3.974   7.641  0.2112 -0.9717 -0.3059
  854TIP3    H124121   1.113   4.023   7.723 -3.6344 -1.6148 -0.0716
  854TIP3    H224122   1.109   4.039   7.572  1.7873 -0.6657 -0.2997
  855TIP3   OH224123   6.552   5.633   7.860 -0.7088  0.1782 -0.1111
  855TIP3    H124124   6.552   5.726   7.881 -1.4107  0.0033  0.6868
  855TIP3    H224125   6.577   5.630   7.767  2.0122  0.9913  0.4823
  856TIP3   OH224126   0.972   3.148   8.716 -0.3864  0.3993  0.0605
  856TIP3    H124127   1.022   3.117   8.640 -0.4228  2.7066 -0.9988
  856TIP3    H224128   0.981   3.243   8.712 -1.1771  0.6249  2.4483
  857TIP3   OH224129   1.502   4.406   1.291  0.3235  0.4083  0.1941
  857TIP3    H124130   1.577   4.421   1.348  2.2036 -2.9157 -1.0989
  857TIP3    H224131   1.538   4.363   1.214 -2.7059  0.4103 -1.3897
  858TIP3   OH224132   6.215   1.659   8.433  0.3060  0.0270  0.6017
  858TIP3    H124133   6.308   1.637   8.434  0.7467  1.4400 -1.7008
  858TIP3    H224134   6.191   1.657   8.340 -1.2895  2.2127  0.8872
  859TIP3   OH224135   4.986   4.940   8.734  0.2417 -0.2176  0.0218
  859TIP3    H124136   5.067   4.971   8.776 -0.0895  0.6265  0.0681
  859TIP3    H224137   4.919   5.002   8.764  0.1044  0.8174 -2.2414
  860TIP3   OH224138   6.647   4.735   8.488  0.3136 -0.6968 -0.2497
  860TIP3    H124139   6.674   4.719   8.579  0.6665 -0.4985 -0.3175
  860TIP3    H224140   6.654   4.650   8.446 -1.6098 -1.1938  0.3492
  861TIP3   OH224141   5.136   5.925   6.926 -0.3708 -0.7571 -0.6548
  861TIP3    H124142   5.151   6.004   6.977 -1.2958 -2.3835  2.3820
  861TIP3    H224143   5.047   5.898   6.949 -1.4528 -0.8797 -4.3651
  862TIP3   OH224144   5.974   2.898   8.478 -0.3655 -0.1073 -0.6361
  862TIP3    H124145   5.994   2.823   8.534 -1.2468 -0.3219 -0.5911
  862TIP3    H224146   5.921   2.862   8.407 -3.9236  0.9090  1.2118
  863TIP3   OH224147   4.740   1.228   0.579  0.3236  0.0358 -0.6162
  863TIP3    H124148   4.759   1.313   0.619 -0.6236  0.1845 -0.4590
  863TIP3    H224149   4.814   1.173   0.604 -0.5316 -0.0700  1.9179
  864TIP3   OH224150   5.547   2.107   7.533 -1.0106  0.1801  0.1221
  864TIP3    H124151   5.485   2.179   7.539 -0.3934  0.6563  1.0462
  864TIP3    H224152   5.602   2.129   7.458 -1.6062  0.0258 -0.3694
  865TIP3   OH224153   0.593   5.163   1.834 -0.0054  0.1055 -0.1340
  865TIP3    H124154   0.528   5.213   1.884 -2.1604 -0.2820 -2.3442
  865TIP3    H224155   0.627   5.098   1.896 -0.9077  1.0323  1.3875
  866TIP3   OH224156   2.413   5.483   1.748  0.1638  0.3862 -0.5010
  866TIP3    H124157   2.404   5.390   1.725  0.3992  0.1197  0.4753
  866TIP3    H224158   2.423   5.484   1.843  1.2866  1.3299 -0.6069
  867TIP3   OH224159   2.007   5.475   0.849 -0.0287  0.2744 -0.0743
  867TIP3    H124160   2.076   5.432   0.899 -0.5296 -2.5682 -1.6038
  867TIP3    H224161   1.927   5.460   0.900  0.1552  1.7815  0.6920
  868TIP3   OH224162   4.850   6.643   8.511  1.3335 -0.2714  0.3511
  868TIP3    H124163   4.800   6.580   8.459 -2.9988  1.2687  2.1881
  868TIP3    H224164   4.851   6.606   8.599  2.3151  0.3627  0.6134
  869TIP3   OH224165   2.415   2.417   0.912  0.3964  0.0973  0.5703
  869TIP3    H124166   2.450   2.360   0.980 -1.6544 -0.0719  1.5688
  869TIP3    H224167   2.379   2.492   0.958  0.1007  0.5980 -0.4328
  870TIP3   OH224168   2.111   2.432   1.631  0.2308 -0.4717 -0.0418
  870TIP3    H124169   2.116   2.341   1.603 -0.5144 -0.1918 -1.1473
  870TIP3    H224170   2.201   2.464   1.628  0.2961 -0.7270 -1.2060
  871TIP3   OH224171   3.472   4.178   7.711 -0.0726 -0.5860 -0.2670
  871TIP3    H124172   3.421   4.238   7.766 -0.9848 -0.0586 -1.6208
  871TIP3    H224173   3.561   4.183   7.746 -0.7811 -1.0438  1.7681
  872TIP3   OH224174   4.900   5.035   2.184  0.9272 -0.2616  0.6727
  872TIP3    H124175   4.866   5.092   2.254  1.6798  1.0268  0.0284
  872TIP3    H224176   4.994   5.053   2.183  1.0014 -0.6815 -0.3007
  873TIP3   OH224177   1.791   0.352   2.340  0.2947 -0.7017 -0.3130
  873TIP3    H124178   1.737   0.311   2.272  0.4767 -0.2514 -0.7349
  873TIP3    H224179   1.877   0.312   2.331  0.9575  0.9536 -1.8569
  874TIP3   OH224180   3.194   6.184   7.787  0.3276  0.2988 -0.0860
  874TIP3    H124181   3.199   6.186   7.692 -1.9141  1.6611 -0.2407
  874TIP3    H224182   3.275   6.225   7.817  1.1936 -0.4307 -1.3858
  875TIP3   OH224183   1.261   6.682   8.122 -0.7683  0.5118  0.3936
  875TIP3    H124184   1.320   6.614   8.089  0.2573  0.9175  1.3432
  875TIP3    H224185   1.193   6.688   8.055  0.5861  0.4680 -1.0565
  876TIP3   OH224186   3.701   6.752   0.253  0.1328 -0.5727 -0.0876
  876TIP3    H124187   3.663   6.713   0.332 -1.5441  0.1698 -0.4841
  876TIP3    H224188   3.643   6.723   0.182  0.8060 -0.0862 -0.8590
  877TIP3   OH224189   0.459   3.221   0.456  0.5455 -0.5585 -0.3225
  877TIP3    H124190   0.496   3.138   0.484  1.7795 -0.0174 -0.2782
  877TIP3    H224191   0.499   3.238   0.371  0.9140  0.3634  0.0232
  878TIP3   OH224192   5.021   2.589   2.793 -0.3713 -0.3196  0.3781
  878TIP3    H124193   5.075   2.662   2.822 -0.2403 -0.2605 -0.0104
  878TIP3    H224194   4.951   2.583   2.858  0.2567 -0.5729  1.0454
  879TIP3   OH224195   5.230   1.325   1.623 -0.1873  0.2105 -0.3907
  879TIP3    H124196   5.222   1.398   1.561  1.3423  0.1653 -0.6904
  879TIP3    H224197   5.268   1.363   1.701 -0.2022 -0.1063 -0.2251
  880TIP3   OH224198   6.543   3.679   1.440 -0.0391  0.7896  0.3102
  880TIP3    H124199   6.600   3.739   1.392  0.8118 -0.4875 -0.3487
  880TIP3    H224200   6.554   3.595   1.395  0.5690 -0.4067  2.5425
  881TIP3   OH224201   4.465   1.009   7.418 -0.9487 -0.4028 -0.5471
  881TIP3    H124202   4.499   0.998   7.329  0.3857 -1.6302  0.0728
  881TIP3    H224203   4.543   1.004   7.474 -1.9788 -1.8241  0.8458
  882TIP3   OH224204   0.355   0.640   1.539  0.0032  0.3604  0.7614
  882TIP3    H124205   0.264   0.633   1.570  0.4441 -0.6596  1.8900
  882TIP3    H224206   0.408   0.619   1.615  1.1656 -1.0557 -0.3898
  883TIP3   OH224207   5.729   1.592   1.886  0.3411 -0.2162 -0.0433
  883TIP3    H124208   5.728   1.508   1.839  1.3722 -0.3485  0.1456
  883TIP3    H224209   5.671   1.578   1.960 -1.9041  0.2288 -1.6149
  884TIP3   OH224210   4.684   4.213   8.015  0.2695  0.2297 -0.1035
  884TIP3    H124211   4.721   4.252   8.094  0.3598 -0.8042  0.3707
  884TIP3    H224212   4.604   4.263   7.999 -0.7443 -0.7160  1.7034
  885TIP3   OH224213   5.851   2.551   8.423 -0.1821  0.2990  0.1124
  885TIP3    H124214   5.914   2.527   8.491  2.1616  1.3892 -1.5371
  885TIP3    H224215   5.894   2.621   8.374 -0.9641 -1.5622 -3.5593
  886TIP3   OH224216   2.829   6.380   0.812 -0.2576 -0.6199  0.3346
  886TIP3    H124217   2.802   6.358   0.902  0.2267  0.1017  0.6659
  886TIP3    H224218   2.855   6.472   0.817 -0.9023 -0.3650 -0.7109
  887TIP3   OH224219   0.505   2.106   7.880  0.0780 -0.4303  0.4623
  887TIP3    H124220   0.477   2.025   7.923 -1.6764  0.2587  0.6963
  887TIP3    H224221   0.443   2.118   7.808 -0.3164  1.2039  1.0326
  888TIP3   OH224222   3.932   6.672   8.167 -0.5989  0.2164  0.3588
  888TIP3    H124223   3.840   6.696   8.179 -0.8448  0.1122 -1.1280
  888TIP3    H224224   3.946   6.599   8.227 -1.8990 -0.7277 -0.4515
  889TIP3   OH224225   0.880   1.851   0.308  0.2519 -0.6919  0.3942
  889TIP3    H124226   0.886   1.937   0.349 -0.2662 -0.2017 -0.5209
  889TIP3    H224227   0.967   1.835   0.272  0.0599 -0.0729 -0.3523
  890TIP3   OH224228   1.990   1.986   8.333  0.1038  0.1548 -0.1972
  890TIP3    H124229   1.948   2.052   8.278 -1.1245 -0.2924  0.1648
  890TIP3    H224230   2.023   2.035   8.409 -4.8223  0.0120  2.4740
  891TIP3   OH224231   5.614   5.781   8.812 -0.4444 -0.1565 -0.6045
  891TIP3    H124232   5.618   5.741   8.724 -0.3101 -1.3743 -0.0673
  891TIP3    H224233   5.697   5.828   8.820 -0.5019  0.0566 -1.1639
  892TIP3   OH224234   3.580   1.866   8.174  0.2972 -0.1262 -0.2708
  892TIP3    H124235   3.624   1.828   8.098  0.1844 -2.2356  0.6766
  892TIP3    H224236   3.632   1.944   8.195  0.4783  0.3692 -2.3269
  893TIP3   OH224237   6.682   0.233   1.709 -0.6888  0.1362 -0.3519
  893TIP3    H124238   6.644   0.197   1.629  0.8760  1.1279 -1.6219
  893TIP3    H224239   6.767   0.190   1.716 -1.7018 -1.6913  2.1542
  894TIP3   OH224240   3.277   0.177   6.656 -0.2165  0.1502 -0.4123
  894TIP3    H124241   3.264   0.258   6.607  0.1413  0.5312  0.1128
  894TIP3    H224242   3.313   0.205   6.740  1.1969 -0.6374 -0.7123
  895TIP3   OH224243   6.088   0.905   7.547  0.2680 -0.1536  0.4104
  895TIP3    H124244   6.073   0.977   7.484 -0.7006 -0.1779  0.5994
  895TIP3    H224245   6.100   0.828   7.492  2.6420  0.3263  0.1425
  896TIP3   OH224246   5.050   3.972   0.266  0.0401 -0.2109  0.3584
  896TIP3    H124247   5.052   4.066   0.286  0.2607 -0.3136  0.8112
  896TIP3    H224248   5.126   3.936   0.310 -0.4049 -0.7129  0.7300
  897TIP3   OH224249   3.939   6.333   7.071 -0.1696  0.6020 -0.2531
  897TIP3    H124250   3.869   6.385   7.033  0.4833  0.9716 -0.9748
  897TIP3    H224251   3.934   6.248   7.027  0.5716  1.0214 -1.1860
  898TIP3   OH224252   2.855   4.446   2.013  0.2987  0.5884  0.5154
  898TIP3    H124253   2.894   4.533   2.013  0.3450  0.5709  1.4848
  898TIP3    H224254   2.894   4.403   1.936 -1.0519  1.9819 -1.0483
  899TIP3   OH224255   3.080   0.486   8.642  0.1715  0.3015  0.1407
  899TIP3    H124256   3.017   0.556   8.625  0.0353 -0.0626 -0.9329
  899TIP3    H224257   3.162   0.518   8.604  0.0584 -0.1923 -0.5437
  900TIP3   OH224258   0.412   2.012   1.291 -0.2522  0.1527  0.1914
  900TIP3    H124259   0.336   1.961   1.319 -1.1120  0.6615 -1.1396
  900TIP3    H224260   0.377   2.078   1.232  1.0056  1.4830  0.8486
  901TIP3   OH224261   0.182   3.155   7.343  0.3575  0.0445 -0.1324
  901TIP3    H124262   0.170   3.244   7.377  2.1822 -0.8343  3.1686
  901TIP3    H224263   0.192   3.100   7.420 -1.8448 -3.3332 -1.9914
  902TIP3   OH224264   4.788   3.455   1.434  0.2757 -0.5969  0.3787
  902TIP3    H124265   4.843   3.530   1.412  1.3876 -1.7112 -0.8061
  902TIP3    H224266   4.718   3.456   1.369 -1.0831  0.7185  1.7799
  903TIP3   OH224267   5.578   5.223   8.424 -0.1460 -0.1779 -0.6221
  903TIP3    H124268   5.546   5.284   8.357  0.3402  0.6663 -0.0959
  903TIP3    H224269   5.555   5.264   8.507 -2.5871 -2.1624 -0.1983
  904TIP3   OH224270   2.718   3.226   1.984 -0.0187 -0.1963  0.3927
  904TIP3    H124271   2.708   3.131   1.989  2.7051 -0.5685  0.0326
  904TIP3    H224272   2.637   3.256   1.941 -0.1911 -2.5454 -1.1146
  905TIP3   OH224273   0.999   5.672   1.481  0.5237  0.4571 -0.0438
  905TIP3    H124274   0.981   5.651   1.389 -0.5395  0.3086  0.1945
  905TIP3    H224275   1.059   5.747   1.476  0.3687  0.5429 -0.8544
  906TIP3   OH224276   2.067   6.690   0.122  0.0928 -0.1162 -0.3058
  906TIP3    H124277   2.028   6.711   0.207  1.5948  0.6840  0.2208
  906TIP3    H224278   2.088   6.597   0.128  0.4328 -0.0105  0.3299
  907TIP3   OH224279   1.252   6.315   2.649  0.0073  0.0024 -0.3586
  907TIP3    H124280   1.347   6.314   2.640  0.1050  0.4279  0.5446
  907TIP3    H224281   1.229   6.408   2.648 -0.3740 -0.0891 -0.3325
  908TIP3   OH224282   6.309   2.908   8.058 -0.6711 -0.2661 -0.1410
  908TIP3    H124283   6.244   2.951   8.114 -1.0914  0.7720 -1.3516
  908TIP3    H224284   6.257   2.849   8.003 -0.5898  0.3988 -0.9554
  909TIP3   OH224285   6.742   3.074   0.268  0.5958 -0.1672 -0.0181
  909TIP3    H124286   6.726   3.122   0.349 -0.3157  3.4211 -2.1097
  909TIP3    H224287   6.672   3.008   0.266 -0.1404  0.5073  1.5314
  910TIP3   OH224288   6.417   1.786   2.229  0.2767  0.2406  0.2559
  910TIP3    H124289   6.355   1.713   2.229  0.1070  0.3397  1.8165
  910TIP3    H224290   6.493   1.753   2.277 -0.4942  1.5735  2.5624
  911TIP3   OH224291   5.392   2.714   0.311  0.4497  0.0018 -0.6650
  911TIP3    H124292   5.364   2.623   0.297 -0.6209  0.1426  0.3324
  911TIP3    H224293   5.362   2.734   0.400  2.5390  0.6653 -0.0589
  912TIP3   OH224294   6.400   0.008   1.330  0.2031  0.3276  0.3219
  912TIP3    H124295   6.371  -0.078   1.300 -1.2114  0.3681  1.4728
  912TIP3    H224296   6.399   0.062   1.251 -2.6060  0.2121  0.1620
  913TIP3   OH224297   0.439   2.946   0.258  0.1230  0.1869  0.4759
  913TIP3    H124298   0.485   3.012   0.310  0.7654 -0.7172  1.0877
  913TIP3    H224299   0.390   2.894   0.323  0.5904 -0.6906  0.1430
  914TIP3   OH224300   6.639   1.664   2.938 -0.4845  0.3256  0.0919
  914TIP3    H124301   6.677   1.595   2.884  0.7123 -0.5696  1.9496
  914TIP3    H224302   6.544   1.650   2.932 -0.2867 -1.1714 -0.0097
  915TIP3   OH224303   4.212   5.756   1.405 -0.8104 -0.6358  0.7617
  915TIP3    H124304   4.248   5.844   1.401  2.0335 -1.7411 -2.1671
  915TIP3    H224305   4.117   5.769   1.409 -0.4995  2.5242  0.2697
  916TIP3   OH224306   3.895   5.557   1.440  0.0594 -0.2855  0.0367
  916TIP3    H124307   3.977   5.510   1.449  0.2838 -0.3493 -1.9093
  916TIP3    H224308   3.859   5.561   1.529  1.5732 -1.2983  0.7244
  917TIP3   OH224309   5.384   4.054   1.655  0.2681 -0.1270  0.0687
  917TIP3    H124310   5.447   4.124   1.673  1.2856 -1.1203  0.4478
  917TIP3    H224311   5.345   4.034   1.740 -0.4907  0.3891 -0.1410
  918TIP3   OH224312   0.611   3.133   0.851  0.7283 -0.3608  0.2809
  918TIP3    H124313   0.529   3.120   0.899  0.8356 -0.9443  0.3206
  918TIP3    H224314   0.660   3.197   0.902  1.4351 -1.9649  1.7218
  919TIP3   OH224315   4.277   3.129   0.456  0.0363 -0.0831  0.3837
  919TIP3    H124316   4.210   3.068   0.425  0.5744 -0.5242  0.0642
  919TIP3    H224317   4.357   3.076   0.461  0.1321  0.1578  1.8148
  920TIP3   OH224318   4.976   4.627   1.250 -0.3634  0.1194  0.5127
  920TIP3    H124319   4.933   4.648   1.167 -0.0361 -1.9727 -0.2377
  920TIP3    H224320   5.051   4.572   1.226  1.8082  2.2335  1.9178
  921TIP3   OH224321   0.118   6.491   1.182 -0.2328 -0.1780  0.0206
  921TIP3    H124322   0.209   6.503   1.211 -0.4406  0.5204  0.4053
  921TIP3    H224323   0.076   6.574   1.201 -0.7559 -0.2194 -0.9325
  922TIP3   OH224324   5.818   4.274   7.524  0.4795  0.4333 -0.0306
  922TIP3    H124325   5.756   4.204   7.505 -2.1702  2.5372  0.1003
  922TIP3    H224326   5.900   4.245   7.485 -0.6551 -2.3875 -0.5693
  923TIP3   OH224327   3.133   0.324   0.239  0.4548 -0.1620  0.2070
  923TIP3    H124328   3.055   0.378   0.253  0.7054 -0.1713  1.9443
  923TIP3    H224329   3.203   0.387   0.222  0.3498 -0.0673  0.1268
  924TIP3   OH224330   1.088   5.407   0.041  0.2818 -0.5807 -0.0171
  924TIP3    H124331   1.013   5.427   0.098  0.3274 -0.5021  0.0154
  924TIP3    H224332   1.055   5.421  -0.048  0.9429  1.8626  0.0643
  925TIP3   OH224333   2.094   1.309   0.450 -0.1138 -0.1556  0.3112
  925TIP3    H124334   2.150   1.323   0.374  0.5174  1.3171  1.0195
  925TIP3    H224335   2.072   1.215   0.447  0.3207 -0.2270 -1.3673
  926TIP3   OH224336   2.784   5.030   2.641  1.1675 -0.5661 -0.4016
  926TIP3    H124337   2.815   4.960   2.583 -1.3420  0.8812 -3.8942
  926TIP3    H224338   2.851   5.037   2.709  2.9869 -4.2966 -1.5419
  927TIP3   OH224339   3.597   3.178   8.820 -0.2805 -0.5519  0.2271
  927TIP3    H124340   3.521   3.170   8.877  0.1485 -0.8079  0.7737
  927TIP3    H224341   3.618   3.272   8.820  0.2212 -0.6526  1.1708
  928TIP3   OH224342   4.300   2.134   1.384  0.0994 -0.1454  0.3663
  928TIP3    H124343   4.298   2.166   1.294 -0.0580  1.1673  0.8147
  928TIP3    H224344   4.306   2.213   1.438 -2.7815 -0.6892  1.6481
  929TIP3   OH224345   0.092   0.321   8.074  0.4285 -0.1474 -0.0296
  929TIP3    H124346   0.042   0.322   8.156 -0.0440  1.3398 -0.2935
  929TIP3    H224347   0.025   0.314   8.005  0.8397 -1.6365 -0.2932
  930TIP3   OH224348   4.112   6.204   8.641 -0.1399  0.8846 -0.4078
  930TIP3    H124349   4.155   6.132   8.596 -0.7117 -0.7204  1.4707
  930TIP3    H224350   4.018   6.186   8.630 -0.2858  1.2091  0.2879
  931TIP3   OH224351   0.550   2.538   8.051  0.1747 -0.3533  0.6164
  931TIP3    H124352   0.600   2.601   7.999 -0.4903  1.0469  1.6029
  931TIP3    H224353   0.586   2.453   8.026  1.5344  0.4453 -0.3148
  932TIP3   OH224354   4.412   6.267   8.181 -0.2518  0.6450 -0.5000
  932TIP3    H124355   4.495   6.307   8.207 -1.0657  0.9906  1.7822
  932TIP3    H224356   4.358   6.341   8.153 -0.9661  0.9481  1.5032
  933TIP3   OH224357   2.738   4.585   2.574  0.7747  0.1205 -0.0644
  933TIP3    H124358   2.777   4.617   2.656  0.4767  0.1923  0.0502
  933TIP3    H224359   2.684   4.511   2.600  0.9252 -0.0528 -0.2405
  934TIP3   OH224360   4.015   2.434   8.202 -0.2160  0.4665  0.6136
  934TIP3    H124361   3.963   2.363   8.164  1.1192 -1.0949  1.5452
  934TIP3    H224362   3.965   2.463   8.278 -0.4565  0.0489  0.6184
  935TIP3   OH224363   5.843   0.568   8.850 -0.1104 -0.4457  0.5185
  935TIP3    H124364   5.842   0.564   8.945 -0.4650 -1.4664  0.4812
  935TIP3    H224365   5.775   0.507   8.822  0.6202 -0.8661 -0.4103
  936TIP3   OH224366   5.031   4.494   8.573 -0.4654 -0.5892  0.1734
  936TIP3    H124367   5.080   4.412   8.562 -0.0920 -0.1824 -1.5210
  936TIP3    H224368   4.969   4.476   8.643  1.1712 -1.5786  1.4324
  937TIP3   OH224369   2.629   0.116   7.203  0.5612 -0.2958  0.3164
  937TIP3    H124370   2.721   0.142   7.202  0.4795 -0.0108 -0.6059
  937TIP3    H224371   2.581   0.198   7.216  0.4222 -0.3974  0.4534
  938TIP3   OH224372   5.826   2.013   0.687 -0.3534 -0.3983  0.2700
  938TIP3    H124373   5.831   1.918   0.684  2.8484 -0.3215 -0.3143
  938TIP3    H224374   5.792   2.038   0.601 -1.3335 -0.9896  0.4762
  939TIP3   OH224375   1.426   1.182   1.102 -0.6967  0.3638 -0.3915
  939TIP3    H124376   1.466   1.114   1.046  1.5191  0.2616  1.1964
  939TIP3    H224377   1.423   1.260   1.046  1.8337  0.3801 -0.6423
  940TIP3   OH224378   6.348   5.517   0.055  0.4401 -0.6892  0.1292
  940TIP3    H124379   6.258   5.548   0.067  0.0086 -1.1857 -1.5515
  940TIP3    H224380   6.359   5.512  -0.040  1.7487 -2.0819  0.3228
  941TIP3   OH224381   4.685   3.032   7.933  0.0666 -0.0342  0.4325
  941TIP3    H124382   4.628   3.041   7.856 -0.6182 -0.3576  0.8879
  941TIP3    H224383   4.768   3.070   7.906 -0.6454  1.3063  0.0447
  942TIP3   OH224384   2.982   4.321   1.823  0.0749  0.2883  0.0244
  942TIP3    H124385   3.074   4.303   1.842  0.0042 -0.6044 -0.4746
  942TIP3    H224386   2.954   4.251   1.765 -1.6215 -0.9385  2.1797
  943TIP3   OH224387   0.577   1.483   0.141 -0.0401  0.5509 -0.2354
  943TIP3    H124388   0.504   1.435   0.178 -1.3382 -0.0979 -3.3043
  943TIP3    H224389   0.652   1.425   0.153 -1.0525 -1.1016 -1.4318
  944TIP3   OH224390   6.182   4.275   1.997 -0.2863 -0.3935 -0.3256
  944TIP3    H124391   6.269   4.238   1.984  0.4778  1.3565 -0.3806
  944TIP3    H224392   6.194   4.343   2.064 -2.0172 -1.5062  1.2363
  945TIP3   OH224393   3.649   2.586   2.086  0.0326  0.1315  0.2071
  945TIP3    H124394   3.604   2.512   2.126  0.3829 -0.1365  0.1211
  945TIP3    H224395   3.586   2.622   2.023 -1.1770  1.6463  2.1870
  946TIP3   OH224396   4.015   3.317   0.119 -0.4229 -0.7829 -0.1159
  946TIP3    H124397   4.097   3.274   0.097 -0.0299 -1.4400  2.2776
  946TIP3    H224398   3.954   3.245   0.138 -0.2974 -0.4006  2.1018
  947TIP3   OH224399   2.408   2.052   8.655 -0.1165  0.3914  0.3711
  947TIP3    H124400   2.368   1.968   8.634 -1.3131  1.1111 -0.3691
  947TIP3    H224401   2.353   2.087   8.726 -1.3668  1.7402 -1.1804
  948TIP3   OH224402   4.325   1.606   1.773  0.2433  0.0805 -0.3323
  948TIP3    H124403   4.378   1.612   1.694  1.7147  1.6567  0.6891
  948TIP3    H224404   4.339   1.690   1.817 -2.6575  0.3253  0.3177
  949TIP3   OH224405   3.575   3.419   8.244 -0.1562  0.4629 -0.1287
  949TIP3    H124406   3.577   3.495   8.185 -0.6996  2.5047  2.3132
  949TIP3    H224407   3.516   3.357   8.200 -0.3483  1.7659 -1.8284
  950TIP3   OH224408   3.196   6.413   7.147 -0.1516  0.3420  0.6200
  950TIP3    H124409   3.161   6.482   7.204  0.0298  0.3113  0.7685
  950TIP3    H224410   3.276   6.451   7.110  0.0796  0.1215  0.8911
  951TIP3   OH224411   3.695   4.291   0.405  0.0959  0.8375 -0.2319
  951TIP3    H124412   3.661   4.374   0.371 -0.2370  0.3254 -1.1876
  951TIP3    H224413   3.778   4.314   0.446 -0.4091  1.7779  0.3049
  952TIP3   OH224414   3.191   5.010   8.268  0.4828 -0.9831  0.3151
  952TIP3    H124415   3.277   5.049   8.284  0.5277 -1.5664  1.5567
  952TIP3    H224416   3.164   4.974   8.353 -0.6403 -1.5022 -0.2385
  953TIP3   OH224417   4.640   4.021   0.567  0.5089  0.6444  0.6000
  953TIP3    H124418   4.558   3.974   0.553  0.4722  0.8383  0.1517
  953TIP3    H224419   4.675   3.984   0.648  1.5558 -1.7144 -0.8274
  954TIP3   OH224420   2.136   0.517   1.873  0.2697  0.1982 -0.4901
  954TIP3    H124421   2.116   0.584   1.807 -1.2622 -2.4578 -2.9549
  954TIP3    H224422   2.056   0.512   1.926  0.0555 -0.2126 -0.8438
  955TIP3   OH224423   4.263   5.633   0.920 -0.6181 -0.8247 -0.0178
  955TIP3    H124424   4.333   5.685   0.958 -1.8299  0.6911  0.2453
  955TIP3    H224425   4.188   5.646   0.978 -1.9612 -0.0278 -1.7983
  956TIP3   OH224426   3.198   0.607   7.849 -0.3190 -0.6359 -0.4748
  956TIP3    H124427   3.289   0.632   7.830  0.7523 -2.1426  2.1517
  956TIP3    H224428   3.172   0.667   7.919 -0.9481 -0.9627 -0.4304
  957TIP3   OH224429   0.650   5.597   1.657  0.2007 -0.2708 -0.3765
  957TIP3    H124430   0.651   5.574   1.564 -1.4485  2.4228 -1.1968
  957TIP3    H224431   0.572   5.652   1.667  1.3417  1.0721  2.1838
  958TIP3   OH224432   5.047   1.102   0.419  0.1953 -0.3255  0.1616
  958TIP3    H124433   5.018   1.193   0.420 -1.5486 -0.7985  2.2203
  958TIP3    H224434   4.970   1.052   0.392  0.6135 -1.2891  0.6648
  959TIP3   OH224435   2.163   5.522   8.051  0.0396  0.4017  0.0667
  959TIP3    H124436   2.116   5.440   8.036  3.0244 -1.2178 -1.5208
  959TIP3    H224437   2.196   5.546   7.964  2.9326  0.7777  1.1482
  960TIP3   OH224438   1.848   6.237   8.564  0.0342  0.2442 -0.0787
  960TIP3    H124439   1.940   6.220   8.545  0.3776  0.9679  0.8756
  960TIP3    H224440   1.828   6.317   8.515 -0.3935 -0.4633 -1.1082
  961TIP3   OH224441   3.815   0.468   1.675 -0.4310  0.1393 -0.0694
  961TIP3    H124442   3.726   0.472   1.640 -0.6479  0.8938  0.5554
  961TIP3    H224443   3.871   0.468   1.597 -0.8932  2.0731 -0.4410
  962TIP3   OH224444   0.178   1.516   2.882  0.1122 -0.3392 -0.0144
  962TIP3    H124445   0.086   1.512   2.856 -0.0675  0.7787  0.3946
  962TIP3    H224446   0.209   1.425   2.876  0.0844 -0.2777 -4.0066
  963TIP3   OH224447   3.320   1.817   8.236 -0.5351 -0.6169  0.0852
  963TIP3    H124448   3.412   1.827   8.214 -0.6123 -0.3369 -0.1232
  963TIP3    H224449   3.277   1.795   8.154 -0.7538 -0.0484  0.0364
  964TIP3   OH224450   1.195   0.569   8.843  0.3003 -0.3758 -0.0931
  964TIP3    H124451   1.272   0.513   8.851  2.1121  2.1050  0.8141
  964TIP3    H224452   1.211   0.621   8.764 -0.5924  0.0090 -0.0322
  965TIP3   OH224453   2.516   5.271   2.592  0.3629 -0.1495  0.3285
  965TIP3    H124454   2.527   5.219   2.512 -0.3278 -0.6023  0.5184
  965TIP3    H224455   2.556   5.218   2.661  2.5723  1.0360  0.0277
  966TIP3   OH224456   4.694   0.120   7.958 -0.5066 -0.1701 -0.2248
  966TIP3    H124457   4.605   0.141   7.986  0.0761  1.7084  0.3825
  966TIP3    H224458   4.696   0.139   7.865 -1.2487 -2.1667 -0.6933
  967TIP3   OH224459   4.475   4.787   1.857  0.0441 -0.1555  0.3395
  967TIP3    H124460   4.446   4.698   1.838  0.0878  0.1423 -1.2177
  967TIP3    H224461   4.394   4.834   1.878  0.0254 -0.5496  1.2111
  968TIP3   OH224462   4.663   4.390   1.351  0.0962 -0.3028 -0.8421
  968TIP3    H124463   4.586   4.435   1.316  0.6390  1.3007 -0.1094
  968TIP3    H224464   4.703   4.347   1.276 -1.3932 -1.0047 -1.2684
  969TIP3   OH224465   6.348   6.640   1.670 -0.5923 -0.3634  0.0325
  969TIP3    H124466   6.283   6.699   1.631 -0.1270 -0.1540 -0.4524
  969TIP3    H224467   6.400   6.697   1.727 -0.5244 -0.4271  0.0335
  970TIP3   OH224468   3.716   6.468   0.168  0.0665 -0.3179 -0.5094
  970TIP3    H124469   3.647   6.495   0.228 -2.0394  0.5801 -3.1409
  970TIP3    H224470   3.797   6.500   0.209 -1.3968  1.6146  1.0894
  971TIP3   OH224471   6.644   5.723   2.562  0.6003 -0.8353 -0.0801
  971TIP3    H124472   6.588   5.688   2.631 -0.9683 -0.4048 -1.1093
  971TIP3    H224473   6.683   5.646   2.521 -0.2339 -1.2213 -0.1630
  972TIP3   OH224474   3.753   2.732   0.738 -0.5546 -0.6199  0.5832
  972TIP3    H124475   3.772   2.790   0.665  1.9622  0.7131  2.1604
  972TIP3    H224476   3.730   2.790   0.811  0.9130 -1.5830  1.8928
  973TIP3   OH224477   4.845   4.667   1.009 -0.2985  0.0997  0.4930
  973TIP3    H124478   4.882   4.740   0.961  0.1732 -0.7146 -0.4116
  973TIP3    H224479   4.765   4.702   1.048 -0.5156  0.8736 -0.6086
  974TIP3   OH224480   2.959   1.140   8.445  1.1972 -0.1761 -0.8645
  974TIP3    H124481   3.038   1.143   8.393  1.8166  0.8716  0.0762
  974TIP3    H224482   2.989   1.116   8.533  0.4611  0.1335 -0.5189
  975TIP3   OH224483   5.906   5.581   7.715 -0.7492  0.2833  1.0204
  975TIP3    H124484   5.948   5.559   7.797 -1.8042 -1.3547  1.1717
  975TIP3    H224485   5.976   5.618   7.661  0.8071 -1.9479  1.3951
  976TIP3   OH224486   3.621   5.504   7.511 -0.0806  0.0425  0.1523
  976TIP3    H124487   3.574   5.473   7.434  0.4921 -0.2347 -0.0880
  976TIP3    H224488   3.552   5.523   7.575 -0.5478  0.1061 -0.3619
  977TIP3   OH224489   0.964   3.570   1.820  0.3270 -0.4776  0.9665
  977TIP3    H124490   0.894   3.530   1.768  1.2546  0.1847 -0.8878
  977TIP3    H224491   1.044   3.556   1.768  1.3118  0.1929  2.2430
  978TIP3   OH224492   5.460   6.244   2.270  0.2363  0.1254  0.7069
  978TIP3    H124493   5.524   6.269   2.336  0.1363 -1.0179  1.2688
  978TIP3    H224494   5.452   6.149   2.280 -0.8282  0.1270 -0.0019
  979TIP3   OH224495   4.219   4.319   2.500  0.1933 -0.0116 -0.1900
  979TIP3    H124496   4.200   4.321   2.406 -3.9670 -3.6510  0.2511
  979TIP3    H224497   4.241   4.228   2.518 -1.5931 -0.0008  2.6376
  980TIP3   OH224498   1.257   3.166   1.423 -0.1192 -0.1486 -0.7193
  980TIP3    H124499   1.288   3.077   1.404 -1.6622 -0.9819  0.3841
  980TIP3    H224500   1.317   3.199   1.488  0.2628 -0.5277 -0.8734
  981TIP3   OH224501   5.211   2.112   2.672 -0.1858 -0.8030 -0.4927
  981TIP3    H124502   5.215   2.054   2.749  0.0489  0.6125  0.6046
  981TIP3    H224503   5.118   2.115   2.650 -0.5662  0.4502  1.1060
  982TIP3   OH224504   4.690   2.872   2.242 -0.0581 -0.9429  0.2331
  982TIP3    H124505   4.702   2.917   2.159 -1.0000 -0.5180  0.3267
  982TIP3    H224506   4.599   2.841   2.241  0.1128 -1.5047  0.8253
  983TIP3   OH224507   2.593   5.574   7.763 -0.3894  0.2336  0.1204
  983TIP3    H124508   2.535   5.504   7.734 -0.3028 -0.1777  0.9022
  983TIP3    H224509   2.562   5.597   7.850  0.7635 -0.1943  0.6767
  984TIP3   OH224510   3.963   1.871   7.503  0.5154  0.9776  0.1430
  984TIP3    H124511   3.885   1.927   7.502  0.9459  1.6826  2.0689
  984TIP3    H224512   4.033   1.927   7.536  1.1231 -0.4708  1.4798
  985TIP3   OH224513   0.209   2.010   1.906  0.2304  0.2114 -0.1170
  985TIP3    H124514   0.155   2.081   1.940  1.1055  1.8639 -1.9421
  985TIP3    H224515   0.159   1.974   1.833  1.4320  1.7287 -1.7950
  986TIP3   OH224516   6.563   3.583   1.696  0.1040 -0.0912 -0.5219
  986TIP3    H124517   6.483   3.539   1.723 -1.0178  2.3151  0.3507
  986TIP3    H224518   6.548   3.604   1.603  0.3310 -0.8555 -0.7372
  987TIP3   OH224519   1.048   3.585   2.367 -0.0067  0.4723  0.5706
  987TIP3    H124520   0.995   3.571   2.288 -0.8634 -1.9252  1.4885
  987TIP3    H224521   1.022   3.672   2.397 -1.1688  0.5972 -0.6711
  988TIP3   OH224522   2.700   0.760   8.430  0.0529  0.8221 -0.4184
  988TIP3    H124523   2.632   0.827   8.429  0.7809  1.5949  0.1763
  988TIP3    H224524   2.664   0.689   8.377 -1.3126  1.1019  0.0857
  989TIP3   OH224525   4.110   5.578   7.590 -0.0676  0.9315  0.5070
  989TIP3    H124526   4.101   5.508   7.655  2.2063 -0.1087 -0.1788
  989TIP3    H224527   4.060   5.546   7.515 -0.1137  0.6328  0.6606
  990TIP3   OH224528   1.870   2.600   1.395 -0.2109 -0.1366 -0.7542
  990TIP3    H124529   1.911   2.674   1.439 -0.1075 -0.7505  0.1960
  990TIP3    H224530   1.869   2.530   1.460  0.8454 -1.3891 -2.0249
  991TIP3   OH224531   6.211   5.022   7.121 -0.4157 -0.1189 -0.2651
  991TIP3    H124532   6.130   5.040   7.074 -0.4285  1.8976  0.3894
  991TIP3    H224533   6.278   5.071   7.073 -0.2686  1.2004  1.1665
  992TIP3   OH224534   2.785   0.355   7.833  0.0816 -0.3176 -0.3074
  992TIP3    H124535   2.870   0.397   7.825  0.8165 -2.0341 -2.8441
  992TIP3    H224536   2.785   0.316   7.921  1.7439  0.0544 -0.1191
  993TIP3   OH224537   5.763   1.645   1.092 -0.1227  0.8313  0.2142
  993TIP3    H124538   5.744   1.592   1.015 -0.3351  0.7491  0.3234
  993TIP3    H224539   5.678   1.681   1.119 -0.2192  0.0343  1.0223
  994TIP3   OH224540   5.503   2.763   0.629 -0.3730 -0.1442  0.3806
  994TIP3    H124541   5.435   2.704   0.661 -2.1751 -0.3031 -3.1755
  994TIP3    H224542   5.554   2.709   0.568  0.6821  0.9103  0.2904
  995TIP3   OH224543   2.965   3.577   0.750  0.4786  0.1397 -0.1113
  995TIP3    H124544   3.015   3.565   0.831  0.6098  1.0128 -0.0548
  995TIP3    H224545   2.952   3.672   0.743 -0.9628 -0.0458 -0.2626
  996TIP3   OH224546   5.043   3.569   1.667 -0.5498  0.3761  0.0782
  996TIP3    H124547   5.063   3.515   1.744  0.0493  0.5199  0.0308
  996TIP3    H224548   5.120   3.624   1.657 -2.3756  3.6098  2.0966
  997TIP3   OH224549   2.292   0.560   7.847  0.2092  0.3362 -0.2174
  997TIP3    H124550   2.374   0.511   7.838  0.3774  0.3317  1.0909
  997TIP3    H224551   2.313   0.629   7.911 -1.0744 -0.3312  0.9847
  998TIP3   OH224552   2.465   3.085   7.638 -0.2595  0.1421 -0.3825
  998TIP3    H124553   2.411   3.106   7.562 -0.2973 -1.5835 -0.8885
  998TIP3    H224554   2.551   3.063   7.602 -0.7834 -2.5807 -0.2159
  999TIP3   OH224555   4.164   2.493   1.815 -0.1859  0.4101  0.2563
  999TIP3    H124556   4.099   2.422   1.824 -0.2975  0.2712 -1.4116
  999TIP3    H224557   4.134   2.560   1.876  0.1204 -1.0986  2.1560
 1000TIP3   OH224558   6.200   3.849   0.130  0.4462  0.0762 -0.1607
 1000TIP3    H124559   6.232   3.921   0.075  2.9823 -0.9205 -0.1591
 1000TIP3    H224560   6.159   3.789   0.068  0.4091  0.4569 -0.5101
 1001TIP3   OH224561   0.671   6.083   8.792 -0.6074  0.0086 -0.6120
 1001TIP3    H124562   0.636   6.146   8.855 -0.4372 -0.5289  0.0451
 1001TIP3    H224563   0.599   6.021   8.779 -0.4744 -0.1630 -0.5449
 1002TIP3   OH224564   4.056   4.084   2.019 -0.5509  0.5889  0.0211
 1002TIP3    H124565   4.080   4.023   2.089  1.9914  0.7094 -0.6381
 1002TIP3    H224566   4.109   4.056   1.944 -0.9472  2.2973 -0.9474
 1003TIP3   OH224567   4.973   1.657   8.397 -0.1780 -0.5506  0.2367
 1003TIP3    H124568   4.952   1.646   8.489 -0.9221  0.2929  0.1781
 1003TIP3    H224569   4.988   1.568   8.365  0.3819 -0.8244  1.2273
 1004TIP3   OH224570   3.736   2.413   1.203 -0.6455 -0.3020 -0.1032
 1004TIP3    H124571   3.745   2.437   1.111  0.8010  1.0576  0.3524
 1004TIP3    H224572   3.815   2.363   1.223 -0.6862 -0.1317  0.5198
 1005TIP3   OH224573   4.298   4.736   7.469 -0.0007  0.0581  0.4229
 1005TIP3    H124574   4.259   4.803   7.525 -0.7020  1.7291 -1.9100
 1005TIP3    H224575   4.353   4.785   7.408  0.8029 -1.6832 -0.3155
 1006TIP3   OH224576   4.460   4.364   0.448 -0.8956 -0.6995  0.2994
 1006TIP3    H124577   4.435   4.378   0.356  0.4711  0.1517  0.0406
 1006TIP3    H224578   4.418   4.436   0.495 -2.3954 -1.6668  0.5297
 1007TIP3   OH224579   0.094   4.537   1.170 -0.0420 -0.1436  0.4801
 1007TIP3    H124580   0.150   4.605   1.131  0.1393  0.0610  1.0796
 1007TIP3    H224581   0.020   4.586   1.208  0.7928 -0.1151  2.1559
 1008TIP3   OH224582   2.396   3.488   7.341 -0.5814  0.5675 -0.3430
 1008TIP3    H124583   2.392   3.477   7.246  0.5335 -1.3656 -0.2114
 1008TIP3    H224584   2.482   3.527   7.357 -0.2680 -0.2176 -0.0603
 1009TIP3   OH224585   3.101   6.670   1.541  0.3321 -0.6392  0.5137
 1009TIP3    H124586   3.153   6.669   1.621 -0.3422  0.2665  0.9741
 1009TIP3    H224587   3.099   6.762   1.515  0.0983 -0.8544 -0.2487
 1010TIP3   OH224588   2.225   4.025   8.484  0.3762  0.3776 -0.2921
 1010TIP3    H124589   2.286   4.099   8.481  0.9561  0.0087  1.3165
 1010TIP3    H224590   2.255   3.972   8.558 -1.4124 -0.2571  0.0309
 1011TIP3   OH224591   0.205   4.798   0.894 -0.3043 -0.0341  0.6988
 1011TIP3    H124592   0.247   4.884   0.896 -0.0042 -0.1836  1.4081
 1011TIP3    H224593   0.120   4.811   0.936 -0.7901  0.1683 -0.3127
 1012TIP3   OH224594   2.927   5.718   1.839 -0.3262 -0.2471  0.1000
 1012TIP3    H124595   2.850   5.747   1.889  0.7404  0.7773  1.2314
 1012TIP3    H224596   2.994   5.704   1.906  1.1681  1.1870 -1.0188
 1013TIP3   OH224597   5.576   6.693   1.046 -0.2719  0.1617 -0.2238
 1013TIP3    H124598   5.574   6.787   1.063 -0.2407 -0.1522  1.6861
 1013TIP3    H224599   5.649   6.660   1.098 -1.4352 -1.1713  0.6554
 1014TIP3   OH224600   3.831   6.153   2.611  0.5934  0.0118  0.0534
 1014TIP3    H124601   3.809   6.185   2.699  1.6185 -1.2594  0.8192
 1014TIP3    H224602   3.887   6.222   2.574 -0.4120  0.8757  0.1102
 1015TIP3   OH224603   0.354   1.599   8.593 -0.2507  0.1593  0.1491
 1015TIP3    H124604   0.300   1.678   8.599 -0.1793  0.3630 -1.5173
 1015TIP3    H224605   0.339   1.566   8.505 -0.0871 -1.5832  0.7283
 1016TIP3   OH224606   3.036   3.430   2.777  0.4081 -0.1831  0.1084
 1016TIP3    H124607   3.084   3.463   2.853  0.2220  1.2974 -0.3777
 1016TIP3    H224608   3.039   3.335   2.786  1.7698 -0.0788  1.1063
 1017TIP3   OH224609   6.090   3.743   7.938 -0.4792  0.1782  0.3792
 1017TIP3    H124610   5.998   3.717   7.945 -1.2128  2.4165 -0.2192
 1017TIP3    H224611   6.116   3.762   8.028 -0.4788 -0.8009  0.5944
 1018TIP3   OH224612   2.538   5.600   0.595  0.2183  0.4800  0.0351
 1018TIP3    H124613   2.529   5.684   0.550 -2.3889  0.9459  1.2467
 1018TIP3    H224614   2.632   5.581   0.591  0.6220  2.4576 -1.9679
 1019TIP3   OH224615   3.767   2.665   7.495  0.6948  0.6118 -0.4427
 1019TIP3    H124616   3.730   2.706   7.574  1.6382  1.2718 -0.3241
 1019TIP3    H224617   3.691   2.632   7.448  0.2241 -2.7107  2.2675
 1020TIP3   OH224618   1.719   6.030   2.734  1.1003  0.3832 -0.1591
 1020TIP3    H124619   1.777   6.010   2.808  1.0462 -1.1955 -0.5141
 1020TIP3    H224620   1.644   6.074   2.774  1.1908 -0.2124  0.6888
 1021TIP3   OH224621   2.213   3.747   0.663 -0.2835  0.2911  0.2347
 1021TIP3    H124622   2.215   3.668   0.609  0.3468 -0.0757  0.7713
 1021TIP3    H224623   2.155   3.725   0.735 -0.0107  0.2692  0.4506
 1022TIP3   OH224624   0.246   4.426   1.804 -0.2884  0.5140  0.0306
 1022TIP3    H124625   0.284   4.354   1.854  0.3957  1.2830  0.6565
 1022TIP3    H224626   0.165   4.390   1.768 -0.3578 -0.3362  0.9727
 1023TIP3   OH224627   4.494   3.031   7.407 -0.5470  0.4929  0.4155
 1023TIP3    H124628   4.416   3.044   7.353 -0.4123  0.3926  0.1964
 1023TIP3    H224629   4.483   2.945   7.445 -0.8644  0.7519  0.9160
 1024TIP3   OH224630   6.135   0.893   2.356  0.7003  0.3642  0.1875
 1024TIP3    H124631   6.117   0.883   2.450 -1.4852  1.6047 -0.0373
 1024TIP3    H224632   6.129   0.805   2.321  0.0333  0.0832  0.9807
 1025TIP3   OH224633   0.816   2.488   2.286  0.3247  0.1476 -0.0394
 1025TIP3    H124634   0.843   2.423   2.221 -1.0758  0.8633 -1.3805
 1025TIP3    H224635   0.897   2.533   2.310  0.7069  0.6832 -2.1903
 1026TIP3   OH224636   5.347   4.581   2.566 -0.4216  0.4429 -0.8146
 1026TIP3    H124637   5.332   4.669   2.602  1.5554  0.7561 -0.6474
 1026TIP3    H224638   5.365   4.527   2.643 -0.9991  0.0276 -0.9687
 1027TIP3   OH224639   3.873   1.725   1.826 -0.1221  0.3292 -0.3642
 1027TIP3    H124640   3.817   1.649   1.840 -0.9735  0.8947 -0.6042
 1027TIP3    H224641   3.883   1.763   1.913  2.7034 -1.6327  0.2932
 1028TIP3   OH224642   1.555   1.896   8.428  0.1602 -0.0006  0.0826
 1028TIP3    H124643   1.482   1.835   8.417 -0.4114  0.7570 -0.4443
 1028TIP3    H224644   1.621   1.846   8.476 -0.4713 -0.8844  0.0586
 1029TIP3   OH224645   6.374   0.807   1.689  0.1140 -0.5465  0.1605
 1029TIP3    H124646   6.360   0.736   1.752 -2.6925 -1.6980 -1.5227
 1029TIP3    H224647   6.327   0.882   1.726 -2.3475 -1.4902 -0.8300
 1030TIP3   OH224648   4.664   0.574   7.689  0.3646  0.3567 -0.2588
 1030TIP3    H124649   4.592   0.546   7.746  1.0958 -1.4537 -0.1668
 1030TIP3    H224650   4.719   0.628   7.746  0.8904 -1.1274  0.7112
 1031TIP3   OH224651   6.041   1.250   8.456 -0.6442  0.0240 -0.6398
 1031TIP3    H124652   6.048   1.182   8.388  0.9347 -0.5716  0.0511
 1031TIP3    H224653   6.130   1.285   8.463 -0.7842  0.1207  1.0572
 1032TIP3   OH224654   4.690   0.399   1.252  0.0904 -0.4343 -0.4755
 1032TIP3    H124655   4.628   0.360   1.314  0.2272  0.4606  0.2370
 1032TIP3    H224656   4.744   0.457   1.305  0.2883  0.2595 -1.4167
 1033TIP3   OH224657   5.397   6.100   0.422 -0.0363  0.6793 -0.0219
 1033TIP3    H124658   5.448   6.038   0.474  0.9594  1.2327 -0.2923
 1033TIP3    H224659   5.341   6.045   0.367  0.2068  0.0442  0.3529
 1034TIP3   OH224660   6.250   3.417   0.107 -0.6230  0.4018 -0.2017
 1034TIP3    H124661   6.307   3.456   0.042  1.5458  0.5870  1.6997
 1034TIP3    H224662   6.230   3.488   0.168 -0.7723 -0.2757  0.5554
 1035TIP3   OH224663   1.116   0.300   8.597 -0.1383  0.6450 -0.0002
 1035TIP3    H124664   1.143   0.264   8.512 -1.3431 -0.0915 -0.0981
 1035TIP3    H224665   1.047   0.363   8.575 -0.8926  0.0015  0.4586
 1036TIP3   OH224666   1.816   0.511   8.797  0.1948  0.0898 -0.3476
 1036TIP3    H124667   1.824   0.569   8.721  0.8831 -0.3977 -0.6586
 1036TIP3    H224668   1.797   0.425   8.759  0.1126 -0.0721  0.0596
 1037TIP3   OH224669   6.669   2.534   0.418 -0.1023  0.0088  0.1233
 1037TIP3    H124670   6.682   2.617   0.372 -0.5270 -0.4056 -0.7680
 1037TIP3    H224671   6.756   2.495   0.422  0.1543  0.6500  0.8496
 1038TIP3   OH224672   6.184   6.134   1.384  0.3495  0.1151 -0.2628
 1038TIP3    H124673   6.162   6.137   1.477  4.3693 -1.2204  0.9064
 1038TIP3    H224674   6.236   6.213   1.369  0.0721  0.1150 -1.3186
 1039TIP3   OH224675   5.418   0.533   0.957  0.6312  0.0663  0.6270
 1039TIP3    H124676   5.373   0.450   0.941  0.0458 -0.1665  2.9963
 1039TIP3    H224677   5.504   0.508   0.990  1.9833  0.5039 -2.3009
 1040TIP3   OH224678   2.229   1.752   2.198 -0.4055 -0.2760  0.2050
 1040TIP3    H124679   2.304   1.704   2.234 -0.2902 -0.3230 -0.0846
 1040TIP3    H224680   2.228   1.835   2.246  1.8199  1.1435 -1.8904
 1041TIP3   OH224681   1.633   1.801   2.735 -0.4484  0.0671 -0.1927
 1041TIP3    H124682   1.685   1.881   2.746  0.9999 -0.4273 -2.6669
 1041TIP3    H224683   1.543   1.831   2.730 -0.1399  1.2967  0.9819
 1042TIP3   OH224684   3.323   1.838   1.952 -0.4424  0.2775 -0.3121
 1042TIP3    H124685   3.308   1.897   2.027 -2.5049 -2.7389  1.8931
 1042TIP3    H224686   3.254   1.862   1.890 -0.2580  1.2281 -0.1641
 1043TIP3   OH224687   0.843   3.354   0.324  0.2763 -0.3301 -0.3917
 1043TIP3    H124688   0.856   3.359   0.229  0.4898  0.2651 -0.3343
 1043TIP3    H224689   0.928   3.376   0.361  0.0811 -0.1448 -0.0539
 1044TIP3   OH224690   1.863   2.598   0.767  0.4122 -0.0856 -0.0896
 1044TIP3    H124691   1.839   2.644   0.848  1.4194  1.7772 -0.7768
 1044TIP3    H224692   1.824   2.652   0.698  1.2324 -0.5389 -0.9155
 1045TIP3   OH224693   2.015   4.135   1.266 -0.5153 -0.3584  0.3122
 1045TIP3    H124694   1.932   4.139   1.314 -0.1621  1.4608  0.8394
 1045TIP3    H224695   2.082   4.140   1.334  0.0105  0.4356 -0.2611
 1046TIP3   OH224696   1.609   5.571   1.256  0.6038 -0.2577 -0.1889
 1046TIP3    H124697   1.572   5.556   1.169  1.4850 -2.2336 -0.2981
 1046TIP3    H224698   1.658   5.490   1.275  1.3964  0.5916  1.6530
 1047TIP3   OH224699   6.502   4.139   1.223 -0.7231 -0.1038 -0.0547
 1047TIP3    H124700   6.488   4.067   1.162 -2.6836 -0.5082  0.7822
 1047TIP3    H224701   6.506   4.217   1.167 -0.4787 -0.6568 -0.8298
 1048TIP3   OH224702   0.979   5.637   1.987 -0.4550 -0.0592 -0.4246
 1048TIP3    H124703   0.929   5.582   1.926 -0.2130 -0.6475 -0.0990
 1048TIP3    H224704   0.914   5.668   2.050 -0.1743 -2.4010  1.1704
 1049TIP3   OH224705   0.940   1.487   8.812 -0.0887 -0.9577  0.2917
 1049TIP3    H124706   1.022   1.439   8.817  0.2067 -0.4552  0.3226
 1049TIP3    H224707   0.874   1.425   8.844  0.6826 -0.4149  3.2169
 1050TIP3   OH224708   3.218   1.791   0.984  0.1829 -0.8200  0.1544
 1050TIP3    H124709   3.288   1.732   0.957  0.2746 -1.1835  1.1240
 1050TIP3    H224710   3.170   1.741   1.051 -0.4853 -0.2578  0.1012
 1051TIP3   OH224711   4.351   2.286   2.083  0.3122  0.3689  0.4610
 1051TIP3    H124712   4.324   2.196   2.065 -0.7099  0.5001  1.2525
 1051TIP3    H224713   4.334   2.297   2.177  0.3319  1.4225  0.3468
 1052TIP3   OH224714   6.211   0.335   8.728 -0.5592 -0.0149 -0.1780
 1052TIP3    H124715   6.151   0.385   8.674  0.0033  0.5163 -0.3236
 1052TIP3    H224716   6.295   0.341   8.682 -0.1994 -0.0220  0.4699
 1053TIP3   OH224717   1.063   3.384   8.566 -0.0504 -0.4788  0.2832
 1053TIP3    H124718   1.065   3.380   8.470 -0.6561 -0.6754  0.2691
 1053TIP3    H224719   0.993   3.446   8.586  1.5897  1.3747  0.6071
 1054TIP3   OH224720   1.051   1.950   1.825 -0.0045 -0.2927  0.2881
 1054TIP3    H124721   1.117   1.928   1.891  0.5052  0.5287  0.0665
 1054TIP3    H224722   0.996   1.872   1.818  0.8008 -0.8962  0.6475
 1055TIP3   OH224723   4.186   0.245   2.168  0.1083  0.0504  0.4857
 1055TIP3    H124724   4.156   0.159   2.138 -1.4701  0.4253  0.9186
 1055TIP3    H224725   4.118   0.306   2.138 -0.5488  0.6888  3.0734
 1056TIP3   OH224726   3.580   6.400   1.091  0.0465  0.4744  0.2323
 1056TIP3    H124727   3.560   6.427   1.001 -0.2169  0.1183  0.1773
 1056TIP3    H224728   3.667   6.434   1.108  0.6430 -0.5456 -0.6296
 1057TIP3   OH224729   0.900   0.871   0.394  0.1677 -0.0072 -0.0001
 1057TIP3    H124730   0.817   0.892   0.351 -0.2487  1.0774  1.2602
 1057TIP3    H224731   0.933   0.795   0.347 -1.0945  0.1025 -1.1156
 1058TIP3   OH224732   4.521   5.291   1.970  0.1397 -0.3089 -0.0756
 1058TIP3    H124733   4.597   5.234   1.962  0.6644  0.3599  0.0031
 1058TIP3    H224734   4.454   5.249   1.917 -0.0452 -1.8832  1.3116
 1059TIP3   OH224735   6.115   4.517   8.144 -0.3541 -0.1971 -0.1816
 1059TIP3    H124736   6.170   4.491   8.219 -0.2170 -1.2589 -0.6305
 1059TIP3    H224737   6.064   4.591   8.177  0.9571  0.4891  0.4098
 1060TIP3   OH224738   5.318   5.027   0.797 -0.0017 -0.0911 -0.3069
 1060TIP3    H124739   5.252   4.960   0.814 -1.6042  1.3217 -0.7392
 1060TIP3    H224740   5.272   5.095   0.748  1.9255  0.6922 -1.1407
 1061TIP3   OH224741   1.424   1.675   2.020  0.3197 -0.4221  0.0564
 1061TIP3    H124742   1.452   1.584   2.023  1.2820 -0.3332 -2.9547
 1061TIP3    H224743   1.495   1.724   2.061  0.3178 -0.9338  0.6788
 1062TIP3   OH224744   5.155   4.356   2.760  0.1476 -0.0465 -0.3301
 1062TIP3    H124745   5.091   4.411   2.805 -0.5678 -0.5087 -0.7516
 1062TIP3    H224746   5.236   4.406   2.762 -0.8025  1.6837 -1.9272
 1063TIP3   OH224747   2.213   0.835   0.549 -0.3171 -0.0512  0.0643
 1063TIP3    H124748   2.192   0.748   0.515 -1.6493 -0.3115  1.4516
 1063TIP3    H224749   2.165   0.895   0.491 -0.0332 -0.2863 -0.4173
 1064TIP3   OH224750   1.157   2.530   7.838 -0.7171  0.1063 -0.3342
 1064TIP3    H124751   1.246   2.504   7.861 -0.4120  1.2788 -0.1041
 1064TIP3    H224752   1.134   2.474   7.764  0.2771 -0.0959 -0.5081
 1065TIP3   OH224753   5.374   0.002   1.370  0.5751  0.0666  0.0792
 1065TIP3    H124754   5.462  -0.035   1.373  0.3461 -0.5180 -0.1746
 1065TIP3    H224755   5.333  -0.029   1.451 -0.1170 -1.5629 -0.8423
 1066TIP3   OH224756   4.616   0.260   8.362 -0.1762 -0.2978 -0.4290
 1066TIP3    H124757   4.624   0.243   8.456 -1.2577  0.0013 -0.2745
 1066TIP3    H224758   4.689   0.212   8.323  0.9435  0.4768  0.6560
 1067TIP3   OH224759   0.206   2.294   2.175 -0.4827  0.6319 -0.0298
 1067TIP3    H124760   0.202   2.232   2.248 -2.7555  1.3893  0.5567
 1067TIP3    H224761   0.130   2.274   2.121 -0.5989  2.1302 -0.4803
 1068TIP3   OH224762   0.431   1.023   7.278 -0.0767 -0.0899 -0.5387
 1068TIP3    H124763   0.520   1.059   7.277 -0.8510  2.1036  0.7601
 1068TIP3    H224764   0.427   0.973   7.360  0.4964 -1.8582 -1.5425
 1069TIP3   OH224765   3.885   0.146   2.331 -0.1212 -0.2626  0.7238
 1069TIP3    H124766   3.949   0.180   2.394 -1.7084  2.2354  1.1295
 1069TIP3    H224767   3.908   0.053   2.321  2.6324  0.1893  1.9075
 1070TIP3   OH224768   2.327   4.989   0.161 -0.5238 -0.2890  0.4411
 1070TIP3    H124769   2.389   5.053   0.124 -1.4431  0.5363  0.2926
 1070TIP3    H224770   2.381   4.911   0.177  0.8891  0.8488  1.6033
 1071TIP3   OH224771   1.134   5.388   0.711  0.1327  0.1975 -0.3576
 1071TIP3    H124772   1.165   5.384   0.621  0.0132 -0.5329 -0.3672
 1071TIP3    H224773   1.115   5.298   0.734  1.0473  0.2565  0.7177
 1072TIP3   OH224774   0.603   0.610   8.135 -0.0166 -0.1820 -0.5660
 1072TIP3    H124775   0.691   0.609   8.098 -0.3423  2.6628 -1.6767
 1072TIP3    H224776   0.559   0.534   8.096  1.6620 -1.2121 -0.5605
 1073TIP3   OH224777   4.569   3.186   2.319  0.0416 -0.2943 -0.0517
 1073TIP3    H124778   4.492   3.130   2.325  0.6391 -1.2015 -0.6257
 1073TIP3    H224779   4.607   3.165   2.234  0.8320  0.2603  0.1572
 1074TIP3   OH224780   2.285   2.012   1.495  0.0107 -0.1583  0.1290
 1074TIP3    H124781   2.324   1.998   1.581  1.4555 -0.9621 -0.6138
 1074TIP3    H224782   2.356   2.045   1.441 -0.0988 -2.2481 -1.4436
 1075TIP3   OH224783   3.755   0.495   7.872  0.0269 -0.2133  0.8550
 1075TIP3    H124784   3.729   0.488   7.963 -1.4935  1.5549  0.6248
 1075TIP3    H224785   3.673   0.506   7.824  0.9329  2.3029 -0.3052
 1076TIP3   OH224786   4.964   3.484   7.844 -0.0081 -0.4855 -0.5776
 1076TIP3    H124787   4.932   3.497   7.933  2.7992 -1.8020  0.7625
 1076TIP3    H224788   4.890   3.447   7.796 -0.4646 -3.9080  2.3980
 1077TIP3   OH224789   0.911   0.243   7.743 -0.1584  0.0856 -0.8699
 1077TIP3    H124790   0.931   0.306   7.673  0.2785 -0.6896 -1.4648
 1077TIP3    H224791   0.820   0.260   7.766  0.0063  1.0368 -0.9108
 1078TIP3   OH224792   2.160   2.047   1.173 -0.4755  0.3632  0.1795
 1078TIP3    H124793   2.069   2.035   1.197 -0.4942 -0.8915 -0.4188
 1078TIP3    H224794   2.165   2.019   1.081  0.8631 -1.5817  0.7679
 1079TIP3   OH224795   6.690   5.883   7.850 -0.5414 -0.1711  0.2309
 1079TIP3    H124796   6.687   5.874   7.755  0.7326 -0.3330  0.1969
 1079TIP3    H224797   6.659   5.973   7.866 -0.5547 -0.0717 -0.3428
 1080TIP3   OH224798   5.197   3.180   2.364  0.4043  0.2904 -0.2121
 1080TIP3    H124799   5.252   3.210   2.291  1.5643  0.5746  0.7394
 1080TIP3    H224800   5.246   3.206   2.442 -0.6115 -0.3791  0.6681
 1081TIP3   OH224801   5.376   4.905   1.315 -0.5082 -0.2102 -0.5282
 1081TIP3    H124802   5.283   4.883   1.310 -0.3566 -1.0228  0.0593
 1081TIP3    H224803   5.409   4.853   1.388  0.5361 -0.3542 -1.0926
 1082TIP3   OH224804   4.196   0.207   8.868  0.0674 -0.0681  0.1723
 1082TIP3    H124805   4.251   0.259   8.926 -2.0740  0.0367  2.2693
 1082TIP3    H224806   4.252   0.188   8.792  2.1670  1.9414  1.0950
 1083TIP3   OH224807   1.698   2.659   8.581 -0.5665 -0.3281 -0.2406
 1083TIP3    H124808   1.710   2.596   8.511 -1.6200 -0.4957 -0.2879
 1083TIP3    H224809   1.628   2.622   8.636  0.2697 -0.2306  0.9320
 1084TIP3   OH224810   0.317   5.655   2.962 -0.4067  0.7360 -0.2623
 1084TIP3    H124811   0.357   5.681   2.879 -0.1335  0.7494 -0.1259
 1084TIP3    H224812   0.223   5.662   2.946 -0.3494  2.1610 -0.1198
 1085TIP3   OH224813   1.234   3.315   8.012  0.7700 -0.2382  0.4546
 1085TIP3    H124814   1.301   3.318   8.081  0.9925 -1.9510  0.3458
 1085TIP3    H224815   1.281   3.287   7.934  0.2691  0.4056 -0.0860
 1086TIP3   OH224816   0.826   6.382   2.700  0.1548 -0.2170  0.2826
 1086TIP3    H124817   0.788   6.303   2.738 -1.4893 -0.3480 -1.5277
 1086TIP3    H224818   0.772   6.401   2.624  1.3161  1.9289 -0.0792
 1087TIP3   OH224819   0.381   3.479   6.766 -0.9130  0.1662  0.4727
 1087TIP3    H124820   0.414   3.419   6.699  0.6184  0.9483  0.4859
 1087TIP3    H224821   0.286   3.463   6.768 -0.9808 -0.0198 -1.7457
 1088TIP3   OH224822   4.171   0.575   2.516 -0.3711 -0.1230 -0.1059
 1088TIP3    H124823   4.085   0.540   2.496 -1.1851  1.7222 -0.0532
 1088TIP3    H224824   4.159   0.670   2.515  1.4069  0.1598  1.0292
 1089TIP3   OH224825   2.420   2.698   1.648  0.0002 -0.2728  0.4460
 1089TIP3    H124826   2.357   2.752   1.602 -1.2353 -1.3287  0.8323
 1089TIP3    H224827   2.404   2.715   1.741 -0.2772 -1.1235  0.5697
 1090TIP3   OH224828   3.505   2.300   8.739 -0.2577 -0.0501 -0.2588
 1090TIP3    H124829   3.577   2.253   8.781  0.5593 -0.5369 -2.1326
 1090TIP3    H224830   3.537   2.389   8.728 -1.0936  0.5359  1.5413
 1091TIP3   OH224831   4.770   5.867   1.914  0.1008 -0.6852 -0.1380
 1091TIP3    H124832   4.799   5.946   1.960 -0.2520 -0.5232 -0.1869
 1091TIP3    H224833   4.814   5.795   1.959  2.1008 -0.3375 -1.4182
 1092TIP3   OH224834   5.675   3.605   6.720  0.0502 -0.5397  1.0713
 1092TIP3    H124835   5.704   3.525   6.677 -0.2964 -0.3294  0.4307
 1092TIP3    H224836   5.580   3.599   6.722 -0.2273  1.0639 -1.5228
 1093TIP3   OH224837   5.165   2.298   0.173 -0.2108  0.3101 -0.2726
 1093TIP3    H124838   5.154   2.323   0.082 -0.8563  2.8865  0.4434
 1093TIP3    H224839   5.198   2.376   0.216  1.7396 -1.3329  1.4475
 1094TIP3   OH224840   4.505   4.197   1.743 -0.0162 -0.2104  0.5816
 1094TIP3    H124841   4.518   4.156   1.829 -1.4168 -1.3847  0.2693
 1094TIP3    H224842   4.444   4.269   1.759  1.5998  1.1550  0.9400
 1095TIP3   OH224843   5.549   6.287   0.782 -0.0252  0.3036 -0.0406
 1095TIP3    H124844   5.539   6.363   0.840  1.0955  0.3982  0.0563
 1095TIP3    H224845   5.563   6.325   0.695  0.3616  0.2117 -0.0214
 1096TIP3   OH224846   4.592   4.096   2.796 -0.1327  0.6281 -0.1270
 1096TIP3    H124847   4.502   4.068   2.814 -0.3753  0.7454 -1.0608
 1096TIP3    H224848   4.592   4.190   2.816 -1.0427  1.2881 -2.7556
 1097TIP3   OH224849   1.844   5.619   0.177 -0.2070 -0.2845  0.4175
 1097TIP3    H124850   1.830   5.524   0.181  0.7894 -0.4357  0.6708
 1097TIP3    H224851   1.915   5.630   0.113 -0.9533  0.3743 -0.3157
 1098TIP3   OH224852   6.601   2.520   2.964 -0.0100  0.7497  0.0127
 1098TIP3    H124853   6.578   2.435   3.001  1.1867  0.2709 -0.2977
 1098TIP3    H224854   6.595   2.508   2.870 -0.7696  1.2989 -0.0204
 1099TIP3   OH224855   1.390   5.120   1.959 -0.7790  0.6624 -0.5088
 1099TIP3    H124856   1.371   5.054   1.892 -1.6341  1.7258 -1.3656
 1099TIP3    H224857   1.464   5.169   1.924 -1.6752  1.6775 -1.0737
 1100TIP3   OH224858   2.850   4.290   0.779 -0.7070 -0.3177  0.6438
 1100TIP3    H124859   2.918   4.234   0.742 -0.6211 -0.0155  0.3448
 1100TIP3    H224860   2.880   4.308   0.868 -0.0010  0.4692  0.2518
 1101TIP3   OH224861   3.400   1.957   8.569  0.0715 -0.3843 -0.0439
 1101TIP3    H124862   3.468   1.919   8.514  0.3188 -0.7370  0.4963
 1101TIP3    H224863   3.340   1.885   8.586 -0.4888 -0.0537 -0.5861
 1102TIP3   OH224864   6.683   1.422   7.756 -0.0383 -0.1638  0.1180
 1102TIP3    H124865   6.685   1.420   7.660 -1.6353  2.4771 -0.0529
 1102TIP3    H224866   6.753   1.482   7.780 -0.0389 -0.3470  0.5909
 1103TIP3   OH224867   5.085   2.903   0.439  0.1839 -0.5179  0.5446
 1103TIP3    H124868   5.075   2.875   0.348  2.2503  3.2568 -1.0762
 1103TIP3    H224869   5.052   2.992   0.440  0.0915 -0.4975  3.5858
 1104TIP3   OH224870   6.262   5.630   1.851 -0.4149 -0.1945 -0.2000
 1104TIP3    H124871   6.207   5.598   1.780  0.0583 -1.7744  0.1121
 1104TIP3    H224872   6.202   5.646   1.923 -0.7734  0.5147 -0.6423
 1105TIP3   OH224873   3.628   0.460   1.271 -0.2655 -0.3847  0.2896
 1105TIP3    H124874   3.593   0.532   1.324  1.8562  1.5150 -0.7109
 1105TIP3    H224875   3.556   0.436   1.213 -0.8235  1.5118  0.1279
 1106TIP3   OH224876   4.956   4.216   0.312  0.2028  0.4737 -0.3487
 1106TIP3    H124877   4.894   4.232   0.383 -0.6930 -1.2953 -0.6704
 1106TIP3    H224878   4.962   4.301   0.266 -2.4494  0.6133 -0.6462
 1107TIP3   OH224879   5.548   5.897   0.542  0.0480  0.3258 -0.6812
 1107TIP3    H124880   5.557   5.830   0.474 -2.0933  0.2581 -0.9626
 1107TIP3    H224881   5.625   5.884   0.598  0.2809 -1.6448 -1.3660
 1108TIP3   OH224882   1.113   5.155   1.373 -0.0596  0.1508 -0.0465
 1108TIP3    H124883   1.078   5.232   1.327  0.9744  0.0960 -0.9536
 1108TIP3    H224884   1.155   5.103   1.304  1.3579 -0.0322  0.9241
 1109TIP3   OH224885   6.405   5.078   6.903  0.1807  0.2408 -0.0487
 1109TIP3    H124886   6.366   4.997   6.871  0.0720 -0.1353  0.9811
 1109TIP3    H224887   6.499   5.066   6.891  0.1515  0.0328 -0.0711
 1110TIP3   OH224888   6.381   5.409   7.756 -0.4257 -0.3250  0.4956
 1110TIP3    H124889   6.402   5.497   7.726 -0.7451  0.1635  1.6433
 1110TIP3    H224890   6.439   5.352   7.705 -0.3556  0.5161 -0.4000
 1111TIP3   OH224891   2.718   4.544   1.013  0.4126  0.0615 -0.8767
 1111TIP3    H124892   2.744   4.560   0.923  0.2412  0.4096 -0.8654
 1111TIP3    H224893   2.787   4.487   1.049  0.2822 -0.3894 -1.3340
 1112TIP3   OH224894   1.114   3.197   1.204  0.2554  0.3807  0.0522
 1112TIP3    H124895   1.051   3.125   1.215  1.0235 -0.3714 -0.3948
 1112TIP3    H224896   1.171   3.191   1.281  0.1481  0.6951  0.1579
 1113TIP3   OH224897   5.571   5.270   0.636  0.0165  0.4562  0.4706
 1113TIP3    H124898   5.570   5.180   0.669 -1.2949  1.0273  2.1828
 1113TIP3    H224899   5.594   5.323   0.713 -1.4394  1.7320  0.0760
 1114TIP3   OH224900   0.852   1.074   0.166  0.1131 -0.2194 -0.0762
 1114TIP3    H124901   0.863   1.153   0.220 -1.8219 -0.0585  0.1654
 1114TIP3    H224902   0.787   1.022   0.213  0.8961 -1.6899 -0.5625
 1115TIP3   OH224903   2.069   3.136   7.634  0.1589 -0.0122  0.2646
 1115TIP3    H124904   2.142   3.194   7.655  1.0573 -1.5296  1.5349
 1115TIP3    H224905   1.992   3.177   7.675 -0.0282  2.2266 -2.0910
 1116TIP3   OH224906   0.438   6.390   0.182  0.0607  0.8229 -0.1288
 1116TIP3    H124907   0.424   6.406   0.275 -0.9510 -1.2730  0.1318
 1116TIP3    H224908   0.367   6.331   0.157  2.0600 -1.1632 -1.4873
 1117TIP3   OH224909   2.580   4.177   1.585  0.2147  0.4996 -0.2753
 1117TIP3    H124910   2.648   4.109   1.581 -0.5262 -0.3031  0.4751
 1117TIP3    H224911   2.522   4.157   1.511 -0.5411 -0.2901  0.5114
 1118TIP3   OH224912   0.596   5.885   7.784  0.1125  0.2055 -0.2977
 1118TIP3    H124913   0.571   5.794   7.773 -0.5166  0.3532 -0.1158
 1118TIP3    H224914   0.549   5.932   7.715 -1.6126  0.7399  1.1544
 1119TIP3   OH224915   2.983   4.842   2.176  0.3031  0.9018  0.1804
 1119TIP3    H124916   3.073   4.811   2.187 -0.1614 -0.9236 -0.6163
 1119TIP3    H224917   2.933   4.790   2.239 -0.6913 -1.0404 -2.0735
 1120TIP3   OH224918   0.616   0.408   7.540  0.1520 -0.0995 -0.5706
 1120TIP3    H124919   0.596   0.390   7.448 -0.2871  0.3836 -0.5733
 1120TIP3    H224920   0.708   0.431   7.541  0.7801 -2.3298 -0.5696
 1121TIP3   OH224921   0.730   3.017   8.585  0.1587  0.0147 -0.2602
 1121TIP3    H124922   0.708   3.110   8.590  0.6119  0.0811  0.9868
 1121TIP3    H224923   0.656   2.976   8.539 -0.7924  0.7703  0.5488
 1122TIP3   OH224924   5.931   4.671   1.696 -0.1213  0.7120 -0.0186
 1122TIP3    H124925   5.981   4.644   1.619 -1.7026 -2.1810 -0.1665
 1122TIP3    H224926   5.910   4.589   1.741 -2.9542  1.9498  1.1262
 1123TIP3   OH224927   2.038   3.101   0.939 -0.0889 -0.0310  0.0827
 1123TIP3    H124928   1.976   3.088   1.010 -0.8033  2.0196 -0.1133
 1123TIP3    H224929   2.007   3.045   0.868  1.1574 -2.8285  1.5964
 1124TIP3   OH224930   2.569   6.616   2.570 -0.2746  0.3975 -0.0204
 1124TIP3    H124931   2.488   6.564   2.573  0.6898 -1.1754 -0.2526
 1124TIP3    H224932   2.544   6.700   2.608 -2.5126  0.6631 -1.8068
 1125TIP3   OH224933   2.692   6.745   0.593  0.4494  0.5297  0.3867
 1125TIP3    H124934   2.652   6.832   0.595 -0.8776 -0.0517  0.1741
 1125TIP3    H224935   2.755   6.745   0.665 -0.5237  1.2006  1.2465
 1126TIP3   OH224936   1.728   5.726   8.079 -0.1206 -0.3652  0.2196
 1126TIP3    H124937   1.792   5.745   8.010 -0.4013  0.6652  0.2138
 1126TIP3    H224938   1.690   5.642   8.055 -0.0131 -0.1508 -0.7415
 1127TIP3   OH224939   5.680   3.761   0.673 -0.4133  0.2082 -0.0216
 1127TIP3    H124940   5.626   3.704   0.728  1.0080 -0.3623  0.8317
 1127TIP3    H224941   5.653   3.850   0.697 -1.1367 -0.0688  0.2135
 1128TIP3   OH224942   3.842   0.954   0.612  0.0404  0.1698 -0.2777
 1128TIP3    H124943   3.885   0.926   0.693  0.8831  0.4117 -0.6302
 1128TIP3    H224944   3.785   1.026   0.638 -1.1450 -0.9851  0.4150
 1129TIP3   OH224945   3.594   0.698   8.489  0.4705 -0.2592  0.1906
 1129TIP3    H124946   3.687   0.708   8.469  0.8108  1.0603  2.1565
 1129TIP3    H224947   3.558   0.786   8.483 -0.1984 -0.4222  1.3557
 1130TIP3   OH224948   0.559   2.509   2.184  0.4090  0.2197 -0.3279
 1130TIP3    H124949   0.648   2.532   2.210  0.0758  0.5094  0.5904
 1130TIP3    H224950   0.550   2.416   2.208 -0.0086  0.5730  0.9546
 1131TIP3   OH224951   5.775   2.698   7.204  0.0250  0.3168 -0.6763
 1131TIP3    H124952   5.807   2.712   7.293 -0.7928  0.3259 -0.3786
 1131TIP3    H224953   5.770   2.603   7.195  1.2772  0.2709 -1.1508
 1132TIP3   OH224954   0.558   0.516   1.717  0.0715 -0.4142 -0.4433
 1132TIP3    H124955   0.624   0.484   1.656  0.5165 -0.1300 -0.1117
 1132TIP3    H224956   0.606   0.571   1.779 -0.7215  1.1869 -1.1866
 1133TIP3   OH224957   6.608   5.431   1.403  0.5619  0.5262 -0.4363
 1133TIP3    H124958   6.595   5.475   1.487 -1.0844  0.8083 -0.7941
 1133TIP3    H224959   6.549   5.356   1.407  3.0685 -1.5164  0.0189
 1134TIP3   OH224960   2.943   6.143   1.510 -0.0924  0.1686  0.0702
 1134TIP3    H124961   2.934   6.237   1.527  0.3709 -0.0220  1.5412
 1134TIP3    H224962   2.924   6.102   1.595  0.2077 -1.0389 -0.4283
 1135TIP3   OH224963   5.540   6.340   7.564 -0.4761  0.1437 -0.3053
 1135TIP3    H124964   5.465   6.296   7.604 -1.0027 -0.4441 -1.8473
 1135TIP3    H224965   5.575   6.276   7.501  0.7885  0.7326 -0.2462
 1136TIP3   OH224966   5.899   3.689   0.518 -0.2536  0.5189  0.8751
 1136TIP3    H124967   5.826   3.727   0.567 -1.1593  1.3325 -1.0231
 1136TIP3    H224968   5.938   3.762   0.471 -0.0453 -0.3666 -0.3895
 1137TIP3   OH224969   1.184   5.467   1.011  0.0424  0.0513  0.0552
 1137TIP3    H124970   1.160   5.506   0.927  1.1447  1.1204  0.2228
 1137TIP3    H224971   1.267   5.423   0.994 -0.1341 -0.4225  0.3994
 1138TIP3   OH224972   1.627   4.371   8.511  0.2316  0.6100  0.5884
 1138TIP3    H124973   1.691   4.302   8.499  0.9777  1.4163 -0.1396
 1138TIP3    H224974   1.600   4.396   8.423 -1.4976 -0.0702  0.8799
 1139TIP3   OH224975   2.075   4.945   2.902  0.4806 -0.2455  0.3922
 1139TIP3    H124976   2.146   4.945   2.838 -0.9149 -0.8957 -1.2511
 1139TIP3    H224977   2.008   5.002   2.863 -0.4639 -0.7800  1.1932
 1140TIP3   OH224978   3.847   6.532   1.066 -0.1965  0.1297  0.3561
 1140TIP3    H124979   3.915   6.494   1.009  0.6498 -1.3355  2.2504
 1140TIP3    H224980   3.894   6.556   1.146 -1.2696  2.6224  0.3284
 1141TIP3   OH224981   4.891   3.345   1.047 -0.3986  0.2355 -0.1111
 1141TIP3    H124982   4.934   3.373   1.128 -0.1675  0.5634 -0.3438
 1141TIP3    H224983   4.862   3.256   1.065 -3.6724  1.4911  1.6463
 1142TIP3   OH224984   2.095   0.692   8.223 -0.0605 -0.4850 -0.1422
 1142TIP3    H124985   2.027   0.736   8.273  1.3911  2.1078 -0.2962
 1142TIP3    H224986   2.107   0.746   8.145  0.2632 -2.4467 -1.5486
 1143TIP3   OH224987   0.273   6.142   0.030  1.1195  1.0163  0.3343
 1143TIP3    H124988   0.308   6.167  -0.055 -0.8343  1.7253 -0.3241
 1143TIP3    H224989   0.350   6.131   0.086  2.3785  1.9777 -1.1385
 1144TIP3   OH224990   0.015   5.098   8.025 -0.1353  0.2114  0.3338
 1144TIP3    H124991  -0.038   5.168   7.989  1.3579  0.3621 -1.7718
 1144TIP3    H224992  -0.026   5.076   8.109 -1.2502  2.8387  0.5565
 1145TIP3   OH224993   4.154   1.157   7.335 -0.0246 -0.5129 -0.4436
 1145TIP3    H124994   4.231   1.156   7.279  0.2069 -1.2710 -0.1123
 1145TIP3    H224995   4.080   1.167   7.275  0.2926 -0.3259 -0.7997
 1146TIP3   OH224996   5.307   5.963   7.232 -0.4072 -0.2379  0.1848
 1146TIP3    H124997   5.366   5.935   7.161 -0.6924 -0.2619 -0.0459
 1146TIP3    H224998   5.241   5.894   7.237  0.8182 -1.3663  1.9573
 1147TIP3   OH224999   1.414   3.081   7.389 -0.1973  0.8458  0.4376
 1147TIP3    H125000   1.363   3.022   7.444 -2.3539 -0.1297 -2.3533
 1147TIP3    H225001   1.358   3.157   7.377  1.1404  2.0069  1.2375
 1148TIP3   OH225002   0.212   4.670   2.262  0.1187  0.0133  0.2524
 1148TIP3    H125003   0.250   4.747   2.305 -0.1794 -0.0048  0.5527
 1148TIP3    H225004   0.283   4.606   2.259  0.6620  0.6348 -0.8713
 1149TIP3   OH225005   4.213   0.293   7.941  0.1126 -0.4994  0.5281
 1149TIP3    H125006   4.212   0.359   8.010 -0.8441 -0.3619  0.3943
 1149TIP3    H225007   4.134   0.310   7.890  0.5889 -0.8595 -0.3604
 1150TIP3   OH225008   1.401   4.173   8.252  0.1632  0.0874 -0.6069
 1150TIP3    H125009   1.412   4.081   8.229 -0.8939  0.2775 -2.0262
 1150TIP3    H225010   1.397   4.174   8.348 -0.6275 -1.4402 -0.6008
 1151TIP3   OH225011   3.520   2.759   1.252  0.4992 -0.8506 -0.1199
 1151TIP3    H125012   3.510   2.704   1.174  1.2612 -1.5777  0.2835
 1151TIP3    H225013   3.505   2.700   1.325 -0.9772 -0.0048  0.2909
 1152TIP3   OH225014   3.178   4.937   8.538  0.6070 -0.2425  0.3046
 1152TIP3    H125015   3.151   5.016   8.585  1.7089 -0.2488  0.9754
 1152TIP3    H225016   3.124   4.868   8.575 -0.7237  0.2494 -0.6335
 1153TIP3   OH225017   3.886   4.694   0.063 -0.3700 -0.0128 -0.1510
 1153TIP3    H125018   3.839   4.610   0.061 -1.9458  0.8491 -0.9772
 1153TIP3    H225019   3.850   4.740   0.140 -0.1623  0.2648 -0.2191
 1154TIP3   OH225020   3.757   0.612   8.751 -0.1330  0.2757 -0.2175
 1154TIP3    H125021   3.704   0.686   8.721 -0.4443  0.3332  0.4514
 1154TIP3    H225022   3.844   0.648   8.766 -0.8406  1.1219  2.4688
 1155TIP3   OH225023   5.710   2.071   1.043  0.0441  0.5360  0.3619
 1155TIP3    H125024   5.648   2.096   1.111 -0.9004 -1.0420  0.1200
 1155TIP3    H225025   5.694   2.133   0.972 -0.9163  0.4461  0.4917
 1156TIP3   OH225026   5.612   4.125   7.449  0.2599 -0.7581 -0.0954
 1156TIP3    H125027   5.628   4.042   7.405  0.3301 -1.5468  1.3536
 1156TIP3    H225028   5.518   4.142   7.435  0.3495 -0.8074 -0.8144
 1157TIP3   OH225029   3.263   2.409   8.179 -0.7024  0.1453 -0.6773
 1157TIP3    H125030   3.255   2.468   8.255 -1.4444 -1.1546  0.2941
 1157TIP3    H225031   3.179   2.419   8.133 -1.0860 -0.5937 -0.1594
 1158TIP3   OH225032   2.186   2.529   2.598  0.1352 -0.7136 -0.1417
 1158TIP3    H125033   2.230   2.482   2.528  0.3015 -0.3655 -0.2763
 1158TIP3    H225034   2.192   2.471   2.674  0.8812 -0.6458 -0.1442
 1159TIP3   OH225035   0.557   4.879   0.366  0.1605  0.0052 -0.1427
 1159TIP3    H125036   0.571   4.931   0.287 -0.7769 -0.7653 -0.8353
 1159TIP3    H225037   0.643   4.877   0.409  0.5482  0.8918 -0.8447
 1160TIP3   OH225038   5.292   2.059   7.658  0.0944  0.1383  0.4411
 1160TIP3    H125039   5.325   2.016   7.579  0.5146 -0.2854  0.8435
 1160TIP3    H225040   5.351   2.134   7.671  1.1145 -0.7918  1.3316
 1161TIP3   OH225041   2.707   5.294   7.965 -0.1368 -0.3551 -0.3352
 1161TIP3    H125042   2.661   5.291   7.881 -0.5962  0.2822 -0.1186
 1161TIP3    H225043   2.637   5.294   8.031  0.2015 -0.2976  0.0285
 1162TIP3   OH225044   4.361   1.373   8.877 -0.2112  0.0944  0.8182
 1162TIP3    H125045   4.305   1.312   8.925  1.0471 -0.9521  1.0028
 1162TIP3    H225046   4.382   1.442   8.940 -0.7008  0.1155  0.9626
 1163TIP3   OH225047   4.855   5.378   7.625  0.1028 -0.3166  0.7870
 1163TIP3    H125048   4.862   5.471   7.603  1.3589 -0.9192 -1.7675
 1163TIP3    H225049   4.932   5.338   7.586 -1.0030 -2.6036  0.7684
 1164TIP3   OH225050   3.984   2.694   8.781  0.1157 -0.0399  0.4694
 1164TIP3    H125051   3.899   2.693   8.736  0.2249  0.7046  0.2312
 1164TIP3    H225052   4.036   2.758   8.732  0.4523  0.3061  1.2654
 1165TIP3   OH225053   1.283   6.265   1.809 -0.0593 -0.5209  0.0575
 1165TIP3    H125054   1.349   6.252   1.740 -0.8553 -0.1300 -0.8016
 1165TIP3    H225055   1.257   6.177   1.835 -0.0220 -0.6700 -0.4103
 1166TIP3   OH225056   3.271   2.797   0.615 -0.1729 -0.1397 -0.3362
 1166TIP3    H125057   3.352   2.820   0.659 -0.0404  1.3468 -1.2752
 1166TIP3    H225058   3.205   2.853   0.655 -0.5439 -0.5976 -0.2965
 1167TIP3   OH225059   6.100   6.286   2.226  0.1663 -0.1990  0.3791
 1167TIP3    H125060   6.022   6.314   2.274 -0.5485 -0.9328 -0.3314
 1167TIP3    H225061   6.117   6.357   2.165 -0.6130 -0.5106 -0.2218
 1168TIP3   OH225062   0.475   3.871   7.951  0.1802  0.0054 -0.2238
 1168TIP3    H125063   0.400   3.812   7.954 -0.3557  0.5465 -1.8560
 1168TIP3    H225064   0.485   3.893   7.858  2.8868 -0.7100 -0.1843
 1169TIP3   OH225065   5.143   2.691   0.745 -0.1877 -0.0418 -0.3407
 1169TIP3    H125066   5.121   2.684   0.838  0.4016 -0.3778 -0.2220
 1169TIP3    H225067   5.230   2.731   0.744  0.2678 -1.0208 -0.7036
 1170TIP3   OH225068   2.351   3.041   8.734 -0.2567 -0.0451  0.2495
 1170TIP3    H125069   2.292   2.971   8.761 -2.1195  0.3759 -2.3022
 1170TIP3    H225070   2.434   2.997   8.716 -0.0582 -0.8357  2.8320
 1171TIP3   OH225071   2.238   4.494   8.736  0.3253 -0.7882  0.1735
 1171TIP3    H125072   2.276   4.426   8.680  1.2642  2.9733 -4.3755
 1171TIP3    H225073   2.306   4.512   8.801  2.4476 -0.6293 -1.9367
 1172TIP3   OH225074   1.045   4.455   8.283 -0.3833 -0.1825 -0.3878
 1172TIP3    H125075   1.129   4.477   8.241 -0.6138  1.0772 -0.2195
 1172TIP3    H225076   0.979   4.494   8.225 -0.9617 -2.2905 -1.2356
 1173TIP3   OH225077   0.177   2.687   1.192  0.9175 -0.2691 -0.2474
 1173TIP3    H125078   0.169   2.754   1.124 -0.8208  0.5149  0.6431
 1173TIP3    H225079   0.271   2.679   1.207  1.3595 -0.5834 -2.8016
 1174TIP3   OH225080   1.620   6.070   2.265  0.4609 -0.2932 -0.0830
 1174TIP3    H125081   1.668   6.030   2.192  0.4493 -1.2039  0.3917
 1174TIP3    H225082   1.543   6.108   2.225  0.6285 -0.4852 -0.5993
 1175TIP3   OH225083   5.880   1.965   2.530 -0.2988  0.1871  0.9836
 1175TIP3    H125084   5.831   2.031   2.579 -0.0175  0.9291  0.2824
 1175TIP3    H225085   5.845   1.881   2.561 -0.4618  0.6449  2.0938
 1176TIP3   OH225086   1.858   5.224   0.664  0.4036  0.4308  0.2835
 1176TIP3    H125087   1.909   5.143   0.671 -1.3847 -0.6920  1.0285
 1176TIP3    H225088   1.903   5.275   0.596  0.7638 -1.8219 -1.2994
 1177TIP3   OH225089   6.342   0.719   1.116 -0.0619 -0.2623  0.2476
 1177TIP3    H125090   6.403   0.676   1.176 -0.0700 -0.6246 -0.0018
 1177TIP3    H225091   6.269   0.746   1.172  0.9749  1.4986  0.8102
 1178TIP3   OH225092   1.366   3.387   6.742  0.3632 -0.1266  0.1475
 1178TIP3    H125093   1.460   3.380   6.763  0.0475 -0.5890  1.5476
 1178TIP3    H225094   1.355   3.332   6.665  0.7813 -2.3962  1.6245
 1179TIP3   OH225095   4.963   2.254   8.216 -0.0571 -0.1156 -0.1161
 1179TIP3    H125096   4.966   2.219   8.305 -0.9714 -2.6734 -0.9904
 1179TIP3    H225097   4.972   2.176   8.160 -3.0007  0.8963 -2.2497
 1180TIP3   OH225098   1.721   6.383   0.813 -0.2562  0.1383 -0.0593
 1180TIP3    H125099   1.799   6.388   0.867 -1.0747  2.9176  1.0150
 1180TIP3    H225100   1.746   6.425   0.731 -1.1921  3.3731  1.1835
 1181TIP3   OH225101   2.169   3.237   1.642 -0.7188  0.3586 -0.2237
 1181TIP3    H125102   2.170   3.267   1.552  0.2985 -0.5532 -0.5346
 1181TIP3    H225103   2.260   3.213   1.661 -0.7277  1.4155  1.3579
 1182TIP3   OH225104   3.467   4.991   2.448  0.1412  0.8171 -0.2482
 1182TIP3    H125105   3.523   5.051   2.399  0.3448  1.0315  0.2419
 1182TIP3    H225106   3.526   4.946   2.508 -0.0676  0.3800 -0.3653
 1183TIP3   OH225107   6.319   3.968   7.824 -0.1204  0.2532 -0.3371
 1183TIP3    H125108   6.267   4.043   7.852  0.0940 -0.6210  2.6937
 1183TIP3    H225109   6.305   3.901   7.891  1.5255 -1.5994 -1.6927
 1184TIP3   OH225110   0.116   1.447   8.081  0.6392 -0.1067  0.4261
 1184TIP3    H125111   0.097   1.540   8.092 -1.1183 -0.5408  1.4113
 1184TIP3    H225112   0.150   1.419   8.166  1.3928 -0.3445  0.0602
 1185TIP3   OH225113   4.725   1.325   8.060  0.2229  0.4990  0.2770
 1185TIP3    H125114   4.814   1.308   8.031  0.1848 -0.4416  0.6948
 1185TIP3    H225115   4.693   1.395   8.002  0.6091 -0.3797 -1.0164
 1186TIP3   OH225116   3.930   5.503   2.378 -0.7254 -0.0639  0.2143
 1186TIP3    H125117   3.930   5.595   2.354 -1.6032 -0.1591 -0.1973
 1186TIP3    H225118   3.957   5.501   2.469 -0.1672  0.5494  0.0673
 1187TIP3   OH225119   4.610   4.243   0.187 -0.1449 -0.0567 -0.2291
 1187TIP3    H125120   4.577   4.161   0.152  3.1845 -1.2207 -1.0056
 1187TIP3    H225121   4.576   4.310   0.127  0.1454 -1.3180 -1.8632
 1188TIP3   OH225122   0.182   6.353   8.019  0.1823 -0.0679 -0.1181
 1188TIP3    H125123   0.094   6.387   8.032  0.4565  0.0811  1.5991
 1188TIP3    H225124   0.170   6.262   7.992 -0.5124  0.7255 -2.8101
 1189TIP3   OH225125   2.039   4.620   7.585  0.1227 -0.2798  0.3073
 1189TIP3    H125126   2.008   4.681   7.518 -1.8982 -1.3719  0.1864
 1189TIP3    H225127   2.134   4.619   7.574 -0.0872  0.1760 -2.0178
 1190TIP3   OH225128   6.662   5.879   7.138 -0.1014 -0.0225 -0.2674
 1190TIP3    H125129   6.578   5.838   7.118 -0.1772  0.4252 -0.8748
 1190TIP3    H225130   6.707   5.884   7.054  0.7337 -0.6849  0.1176
 1191TIP3   OH225131   4.197   3.700   1.511  0.0385  0.4839  0.1487
 1191TIP3    H125132   4.260   3.723   1.444 -0.6480  1.5535 -0.1455
 1191TIP3    H225133   4.230   3.743   1.590 -0.4153  1.2071 -0.0494
 1192TIP3   OH225134   4.166   3.794   0.314  0.3337 -0.2523 -0.2753
 1192TIP3    H125135   4.136   3.713   0.356  2.5439 -0.7090  0.5500
 1192TIP3    H225136   4.110   3.862   0.350 -1.1253 -1.2970 -0.4760
 1193TIP3   OH225137   6.106   3.489   8.449 -0.7538  0.0101  0.1865
 1193TIP3    H125138   6.045   3.551   8.409  1.1821  1.0944 -1.2518
 1193TIP3    H225139   6.053   3.441   8.513 -3.6012 -0.5733 -2.4107
 1194TIP3   OH225140   4.586   5.590   2.375 -0.0398 -0.0814  0.7384
 1194TIP3    H125141   4.568   5.501   2.345  1.2742  0.2876 -1.3380
 1194TIP3    H225142   4.659   5.581   2.436  0.1324 -0.4348  0.4858
 1195TIP3   OH225143   5.303   1.515   1.234  0.0734 -0.4353 -0.4494
 1195TIP3    H125144   5.287   1.534   1.327 -1.0788 -2.3098 -0.1995
 1195TIP3    H225145   5.363   1.583   1.206  1.1929 -0.3182  1.9208
 1196TIP3   OH225146   1.004   1.639   8.303  0.3889 -0.2800  0.3936
 1196TIP3    H125147   1.006   1.733   8.321  0.6542 -0.1741 -0.1620
 1196TIP3    H225148   1.077   1.604   8.355 -0.4826 -0.3738  1.5928
 1197TIP3   OH225149   1.413   4.147   8.572 -0.2953  0.2992 -0.2166
 1197TIP3    H125150   1.384   4.059   8.550 -0.5115  0.2071  0.3913
 1197TIP3    H225151   1.334   4.191   8.603 -0.4363  1.0884 -1.6177
 1198TIP3   OH225152   1.648   3.442   1.591  0.8223 -0.2199  0.1678
 1198TIP3    H125153   1.652   3.491   1.509  0.7733  1.5453  1.1707
 1198TIP3    H225154   1.739   3.424   1.613  0.8671 -0.1323  0.0536
 1199TIP3   OH225155   4.470   4.528   2.423 -0.3661 -0.3505 -0.0751
 1199TIP3    H125156   4.414   4.602   2.444  0.3000  0.2963 -0.5064
 1199TIP3    H225157   4.464   4.519   2.328  0.2271 -0.2853 -0.1260
 1200TIP3   OH225158   0.713   0.441   0.318  0.0469  0.5005  0.0673
 1200TIP3    H125159   0.649   0.438   0.390 -1.7435 -1.0671 -1.4767
 1200TIP3    H225160   0.717   0.351   0.286  1.0007  1.1003 -1.6478
 1201TIP3   OH225161   2.516   0.198   0.614  0.5054 -0.4495  0.1297
 1201TIP3    H125162   2.543   0.262   0.548 -1.1597  0.5553  0.3884
 1201TIP3    H225163   2.557   0.228   0.695 -0.9931  0.8674  0.4449
 1202TIP3   OH225164   6.538   4.093   7.695 -0.1431 -0.2855  0.6192
 1202TIP3    H125165   6.473   4.033   7.732 -0.1044 -0.3924  0.5152
 1202TIP3    H225166   6.570   4.143   7.770  0.3675 -0.9096  0.8314
 1203TIP3   OH225167   5.923   1.336   0.777  0.3334  0.2580 -0.2648
 1203TIP3    H125168   5.952   1.422   0.806 -0.5499  0.6689 -0.5434
 1203TIP3    H225169   5.835   1.351   0.742 -0.3601 -0.9794  0.8620
 1204TIP3   OH225170   5.478   2.654   2.413 -0.0969  0.1258  0.8177
 1204TIP3    H125171   5.563   2.644   2.455  0.7968  0.6951 -0.7540
 1204TIP3    H225172   5.451   2.564   2.391 -0.2287 -0.1098  1.9072
 1205TIP3   OH225173   0.143   3.807   0.265 -0.3410  0.0210  0.3305
 1205TIP3    H125174   0.180   3.890   0.298 -0.4790  0.1509  0.1543
 1205TIP3    H225175   0.181   3.740   0.323  1.2815 -0.0043 -0.6942
 1206TIP3   OH225176   4.815   6.605   8.785 -0.4868 -0.1213 -0.2418
 1206TIP3    H125177   4.869   6.636   8.857  1.0139  1.7588 -2.0558
 1206TIP3    H225178   4.811   6.510   8.796  1.1027 -0.0400  1.3551
 1207TIP3   OH225179   3.192   4.412   8.008 -0.5928  0.0739  0.3860
 1207TIP3    H125180   3.253   4.340   7.994  1.0362  1.6727 -1.2195
 1207TIP3    H225181   3.190   4.424   8.103  1.0767 -0.4499  0.5132
 1208TIP3   OH225182   0.348   2.640   8.215  0.0678 -0.3761 -0.2550
 1208TIP3    H125183   0.426   2.590   8.189  0.4874  0.9698 -1.7931
 1208TIP3    H225184   0.306   2.586   8.282  1.8611 -1.5405  0.0081
 1209TIP3   OH225185   4.094   0.421   1.056 -0.1568 -0.0082  0.1144
 1209TIP3    H125186   4.023   0.485   1.050 -0.8533 -0.8785 -1.6357
 1209TIP3    H225187   4.054   0.343   1.093 -0.1592 -0.5190 -0.9273
 1210TIP3   OH225188   2.783   3.686   1.880 -0.3502  0.4798  0.3783
 1210TIP3    H125189   2.826   3.633   1.947 -1.1054  0.9310  1.2405
 1210TIP3    H225190   2.820   3.774   1.892 -0.4110  0.5411  0.1324
 1211TIP3   OH225191   3.571   2.229   1.273  0.2373 -0.3556 -0.4046
 1211TIP3    H125192   3.593   2.221   1.366  2.8353 -0.9828 -0.9988
 1211TIP3    H225193   3.630   2.296   1.239 -1.3352  0.5675 -1.4454
 1212TIP3   OH225194   4.639   6.231   0.172 -0.1273 -0.0933  0.2475
 1212TIP3    H125195   4.659   6.139   0.187  0.6373  0.0032 -0.1399
 1212TIP3    H225196   4.555   6.245   0.215 -0.8917 -1.2891 -0.8110
 1213TIP3   OH225197   5.356   3.660   3.160 -0.4719 -0.2818  0.6500
 1213TIP3    H125198   5.407   3.586   3.128 -1.2022 -0.2834 -0.5485
 1213TIP3    H225199   5.412   3.699   3.228 -0.0350 -1.8372  1.2280
 1214TIP3   OH225200   5.363   1.372   0.460  0.6158 -1.1172  0.0174
 1214TIP3    H125201   5.360   1.282   0.494 -1.2381 -0.8167  0.7606
 1214TIP3    H225202   5.276   1.387   0.424  0.7567  0.5340  0.3095
 1215TIP3   OH225203   3.474   2.699   3.099  0.1120  0.3349 -0.0237
 1215TIP3    H125204   3.394   2.741   3.067 -1.0643 -0.1129  2.1495
 1215TIP3    H225205   3.460   2.606   3.083 -0.2522  0.1619  1.2146
 1216TIP3   OH225206   5.983   1.843   8.540  0.1001  0.7116 -0.5069
 1216TIP3    H125207   5.930   1.833   8.619 -0.6917 -0.2060 -1.1327
 1216TIP3    H225208   6.024   1.758   8.528  0.5679  0.9802 -0.8436
 1217TIP3   OH225209   0.662   1.846   7.846  0.3333  0.2658 -0.0905
 1217TIP3    H125210   0.660   1.936   7.813  1.1686 -0.6234 -2.8994
 1217TIP3    H225211   0.699   1.795   7.773  1.4622 -2.1211  1.9909
 1218TIP3   OH225212   6.341   5.961   7.964 -0.3443 -0.0822  0.0426
 1218TIP3    H125213   6.376   6.047   7.987  1.3122 -0.0887 -2.1409
 1218TIP3    H225214   6.386   5.901   8.024  0.1550  0.3686  0.1288
 1219TIP3   OH225215   2.592   6.109   0.484 -0.5742  0.4659 -0.2962
 1219TIP3    H125216   2.498   6.119   0.494 -0.6287  0.2289 -0.5571
 1219TIP3    H225217   2.630   6.176   0.542 -0.8562 -1.2863  2.0615
 1220TIP3   OH225218   5.813   3.731   0.177  0.1892 -0.4621  0.3994
 1220TIP3    H125219   5.831   3.811   0.128 -1.0621 -0.9697 -0.9757
 1220TIP3    H225220   5.751   3.757   0.245 -0.5730 -0.3160 -0.3308
 1221TIP3   OH225221   2.518   0.166   1.430 -0.1164  0.1100  0.3683
 1221TIP3    H125222   2.432   0.148   1.393 -0.2276  2.1212 -0.4953
 1221TIP3    H225223   2.512   0.256   1.462  1.4661  0.0591  0.8860
 1222TIP3   OH225224   0.641   1.731   0.299  0.5253  0.2908  0.0360
 1222TIP3    H125225   0.649   1.647   0.254 -1.5750  0.2966 -0.4479
 1222TIP3    H225226   0.731   1.753   0.326  1.1670 -1.8905 -0.1658
 1223TIP3   OH225227   4.326   6.687   7.277 -0.1113 -0.4944  0.2847
 1223TIP3    H125228   4.411   6.676   7.236 -1.0598 -0.1845 -1.8750
 1223TIP3    H225229   4.290   6.766   7.237 -1.0431 -0.0579  1.8708
 1224TIP3   OH225230   3.100   2.099   1.800 -0.1922  0.3631  0.8416
 1224TIP3    H125231   3.151   2.098   1.718  0.6228 -0.7922  1.3329
 1224TIP3    H225232   3.106   2.190   1.830  2.2660  0.1330  1.2615
 1225TIP3   OH225233   3.673   5.244   0.205  0.6013 -0.0857 -1.0083
 1225TIP3    H125234   3.744   5.191   0.241  0.5952  0.5908  0.0625
 1225TIP3    H225235   3.638   5.192   0.133  1.2055 -1.1028 -0.5882
 1226TIP3   OH225236   4.545   3.344   8.336  0.1493  0.1129 -0.0994
 1226TIP3    H125237   4.550   3.424   8.284 -0.5475 -0.4163 -1.0226
 1226TIP3    H225238   4.598   3.280   8.288  0.4957 -0.0522  0.4929
 1227TIP3   OH225239   6.493   1.752   7.719 -0.2214  0.2803 -0.0669
 1227TIP3    H125240   6.571   1.755   7.774  0.3502  0.2250 -0.8633
 1227TIP3    H225241   6.459   1.841   7.720  0.1903  0.4405 -0.1968
 1228TIP3   OH225242   5.422   4.470   7.911 -0.1583  0.0314  0.0789
 1228TIP3    H125243   5.481   4.541   7.936  0.1172 -0.5342  1.0612
 1228TIP3    H225244   5.464   4.390   7.942  1.8940 -1.2327 -4.9027
 1229TIP3   OH225245   4.646   1.723   1.314  0.7658  0.0556 -0.4624
 1229TIP3    H125246   4.616   1.682   1.233 -1.2660  0.5812 -0.0195
 1229TIP3    H225247   4.599   1.806   1.318  0.5906 -0.0976  1.4038
 1230TIP3   OH225248   3.469   2.070   7.347 -0.0203  0.0362 -0.2465
 1230TIP3    H125249   3.486   2.080   7.441  1.1310  2.3631 -0.6501
 1230TIP3    H225250   3.535   2.123   7.304 -0.7328 -0.7085 -2.4063
 1231TIP3   OH225251   3.512   5.434   1.673 -0.4513  0.1701 -0.1814
 1231TIP3    H125252   3.466   5.359   1.636 -0.4558  0.7171 -1.3338
 1231TIP3    H225253   3.529   5.410   1.764 -2.7649 -0.1576  0.2130
 1232TIP3   OH225254   1.256   1.889   8.659 -0.3430  0.4279 -0.2576
 1232TIP3    H125255   1.168   1.882   8.696 -0.3068  1.7127  0.1082
 1232TIP3    H225256   1.259   1.821   8.591 -0.8821 -1.0551  1.1276
 1233TIP3   OH225257   2.523   3.983   7.905  0.0277  0.0258 -0.1981
 1233TIP3    H125258   2.568   3.927   7.969 -1.6195  0.6618  1.6421
 1233TIP3    H225259   2.571   3.970   7.823  1.1512 -2.2299  0.7215
 1234TIP3   OH225260   4.654   1.185   8.534  0.5220  0.2022  0.3604
 1234TIP3    H125261   4.602   1.226   8.466  0.0317  1.1798  1.2990
 1234TIP3    H225262   4.618   1.097   8.543  2.0775 -0.8134 -2.2029
 1235TIP3   OH225263   1.152   3.167   0.098 -0.0201 -0.2018 -0.1300
 1235TIP3    H125264   1.101   3.247   0.111 -0.8807 -0.5749 -1.1290
 1235TIP3    H225265   1.105   3.119   0.030  1.3409 -0.8459 -0.6446
 1236TIP3   OH225266   3.420   0.391   8.013  0.3802  0.2731 -0.0877
 1236TIP3    H125267   3.408   0.393   7.918  0.0111  0.1572 -0.0455
 1236TIP3    H225268   3.362   0.321   8.043  1.8244 -0.9172  0.0480
 1237TIP3   OH225269   6.279   3.851   1.128  0.0001  0.0762  0.2546
 1237TIP3    H125270   6.359   3.899   1.106 -0.7761  0.4680 -2.0045
 1237TIP3    H225271   6.267   3.790   1.056 -0.5936 -1.5432  1.6505
 1238TIP3   OH225272   3.654   4.956   8.208  0.2746 -0.3571 -0.2553
 1238TIP3    H125273   3.728   5.013   8.185 -0.1639 -0.2089 -1.3444
 1238TIP3    H225274   3.692   4.868   8.211  0.2741 -0.4750 -2.1673
 1239TIP3   OH225275   6.787   4.911   8.310  0.0528 -0.0178  0.4128
 1239TIP3    H125276   6.857   4.878   8.254 -0.2085 -0.2021  0.1903
 1239TIP3    H225277   6.749   4.832   8.350  0.2115  0.1084  0.8198
 1240TIP3   OH225278   5.864   1.141   3.161 -0.6582 -0.4865  0.2367
 1240TIP3    H125279   5.958   1.131   3.178 -0.5817  2.0342  1.7474
 1240TIP3    H225280   5.826   1.060   3.194  0.7139 -0.2670  2.6348
 1241TIP3   OH225281   1.992   4.775   7.334  0.0505  0.4907 -0.3615
 1241TIP3    H125282   2.026   4.694   7.297  0.1400  0.0440  0.6492
 1241TIP3    H225283   2.044   4.844   7.294  0.3201  0.0064 -0.8543
 1242TIP3   OH225284   5.104   2.195   2.389 -0.6145  0.2044  0.2076
 1242TIP3    H125285   5.127   2.122   2.331 -0.2699  0.0595  0.5184
 1242TIP3    H225286   5.048   2.156   2.455  1.5702 -0.3628  1.8373
 1243TIP3   OH225287   5.481   0.194   1.686 -0.2226  0.1161 -0.5626
 1243TIP3    H125288   5.404   0.251   1.694 -0.4614 -0.3357  0.3830
 1243TIP3    H225289   5.552   0.254   1.661 -1.3794  0.1941 -4.3943
 1244TIP3   OH225290   3.634   5.299   8.078 -0.4140 -0.4535 -0.0449
 1244TIP3    H125291   3.654   5.380   8.124  1.4366 -0.8627 -0.0436
 1244TIP3    H225292   3.588   5.245   8.143  0.9991 -0.5233  0.9456
 1245TIP3   OH225293   5.335   5.243   2.507  0.2735  0.0414 -0.5442
 1245TIP3    H125294   5.338   5.278   2.596  0.9994  0.2158 -0.6353
 1245TIP3    H225295   5.248   5.267   2.475  0.4231  0.9592 -0.2805
 1246TIP3   OH225296   3.749   2.511   0.405  0.0807  0.1393 -0.0532
 1246TIP3    H125297   3.660   2.496   0.436  0.8573 -0.6868  1.9631
 1246TIP3    H225298   3.794   2.427   0.418  1.0724  0.4444 -1.3343
 1247TIP3   OH225299   0.927   5.045   8.542  0.7308 -0.1879 -0.2796
 1247TIP3    H125300   0.960   4.990   8.470  0.7080 -0.0842 -0.3698
 1247TIP3    H225301   1.005   5.073   8.589  0.6584 -2.7356  1.5927
 1248TIP3   OH225302   5.314   5.490   0.045  0.1979 -0.5053 -0.0329
 1248TIP3    H125303   5.404   5.522   0.052 -0.7159  2.5143 -0.6567
 1248TIP3    H225304   5.301   5.476  -0.049  0.7538 -3.5941  0.2601
 1249TIP3   OH225305   0.850   2.132   7.746 -0.7215  0.2679  0.0009
 1249TIP3    H125306   0.908   2.074   7.696 -3.5933 -2.8078 -0.1153
 1249TIP3    H225307   0.813   2.191   7.680  0.1142  0.3402 -0.4156
 1250TIP3   OH225308   1.645   3.523   8.168  0.1951  0.6605 -0.0913
 1250TIP3    H125309   1.590   3.554   8.097  0.6475 -0.4431 -0.9510
 1250TIP3    H225310   1.621   3.578   8.243 -2.2933 -0.0100 -0.3298
 1251TIP3   OH225311   2.135   5.893   7.773  0.3898  0.0775  0.3891
 1251TIP3    H125312   2.226   5.865   7.778  0.1288 -1.0805 -0.7821
 1251TIP3    H225313   2.132   5.954   7.699 -0.2401 -2.0439 -1.4476
 1252TIP3   OH225314   1.032   2.385   1.615 -0.1909 -0.1192 -0.1143
 1252TIP3    H125315   0.939   2.364   1.608 -0.2350  0.5062 -1.8170
 1252TIP3    H225316   1.035   2.481   1.616  0.4868 -0.1151 -1.1497
 1253TIP3   OH225317   4.961   5.892   0.309  0.0335  0.0711 -0.7129
 1253TIP3    H125318   4.901   5.866   0.239 -0.2198 -0.7475 -0.2090
 1253TIP3    H225319   4.906   5.895   0.387  0.8722 -2.0617  0.0340
 1254TIP3   OH225320   2.241   4.138   2.493 -0.4727 -0.3227  0.3690
 1254TIP3    H125321   2.146   4.149   2.498 -0.4503 -0.2947  0.7890
 1254TIP3    H225322   2.276   4.211   2.543 -0.1588  0.9517 -1.6103
 1255TIP3   OH225323   1.839   4.200   8.462  0.5844 -0.0237 -0.7704
 1255TIP3    H125324   1.910   4.265   8.457  0.3159  0.7634  2.8071
 1255TIP3    H225325   1.883   4.118   8.486  0.4367  0.2755  0.6197
 1256TIP3   OH225326   3.574   1.904   0.461  0.0233 -0.2271 -0.0271
 1256TIP3    H125327   3.543   1.828   0.410 -2.2476 -1.1133  2.3992
 1256TIP3    H225328   3.648   1.871   0.511 -0.0543 -0.4436 -0.0534
 1257TIP3   OH225329   5.652   6.172   2.051 -0.1808 -0.0847 -0.2166
 1257TIP3    H125330   5.730   6.228   2.057  1.0287 -1.6455 -0.7753
 1257TIP3    H225331   5.667   6.103   2.115  0.8905 -2.6712 -3.0094
 1258TIP3   OH225332   2.969   1.584   7.992  0.6147  0.2673 -0.2699
 1258TIP3    H125333   2.897   1.640   7.963 -2.0838 -2.2417  1.0792
 1258TIP3    H225334   2.968   1.510   7.932  0.9542 -0.5883  0.7506
 1259TIP3   OH225335   1.641   1.102   0.289  0.3469  0.0438  0.2621
 1259TIP3    H125336   1.592   1.056   0.221  2.2867 -0.7580 -0.6872
 1259TIP3    H225337   1.669   1.033   0.349  0.4175  0.4678  0.7247
 1260TIP3   OH225338   1.813   2.215   8.240 -0.2543  0.7647  0.5557
 1260TIP3    H125339   1.776   2.300   8.216 -1.1282  0.3310  0.3639
 1260TIP3    H225340   1.775   2.195   8.325 -0.1025  0.5287  0.5695
 1261TIP3   OH225341   5.290   4.932   7.920  0.2611 -0.4349  0.0267
 1261TIP3    H125342   5.366   4.877   7.938  0.8136  0.7250  1.5158
 1261TIP3    H225343   5.253   4.951   8.006 -0.9098  0.1388 -0.5770
 1262TIP3   OH225344   2.109   5.327   2.815 -0.0090 -0.2399 -0.1962
 1262TIP3    H125345   2.128   5.335   2.908 -0.5183  0.9865 -0.1841
 1262TIP3    H225346   2.020   5.293   2.811 -0.6322  1.3382 -0.2099
 1263TIP3   OH225347   1.877   0.601   1.992 -0.1923  0.1056  0.3887
 1263TIP3    H125348   1.861   0.612   2.086  0.7874  0.0076  0.5802
 1263TIP3    H225349   1.792   0.577   1.956 -1.0542  2.1342  0.9261
 1264TIP3   OH225350   4.946   4.153   8.383  0.0187 -0.2807  0.2415
 1264TIP3    H125351   5.009   4.083   8.368 -0.4202 -0.9863  1.5193
 1264TIP3    H225352   4.899   4.126   8.462  1.2549  2.4425  2.0609
 1265TIP3   OH225353   0.127   3.051   6.691  0.0650 -0.6181  0.1845
 1265TIP3    H125354   0.083   3.010   6.616  1.5068 -0.9502 -0.5243
 1265TIP3    H225355   0.085   3.137   6.699  1.1630  0.2589 -2.3206
 1266TIP3   OH225356   0.365   4.717   2.760 -0.9167  0.0017 -0.0744
 1266TIP3    H125357   0.398   4.628   2.771 -1.9284 -0.3340  0.4506
 1266TIP3    H225358   0.285   4.706   2.709  0.2649  0.8918 -2.2381
 1267TIP3   OH225359   4.600   0.607   7.414  0.0735 -0.4073 -0.2024
 1267TIP3    H125360   4.517   0.655   7.412  0.9741  1.2442 -0.4221
 1267TIP3    H225361   4.613   0.584   7.506  0.6176  1.7026  0.2986
 1268TIP3   OH225362   0.122   2.221   7.318 -0.2427  0.1219  0.2931
 1268TIP3    H125363   0.168   2.142   7.347  0.1619  0.5026  0.6970
 1268TIP3    H225364   0.093   2.200   7.229 -0.3637 -0.5753  0.4974
 1269TIP3   OH225365   6.105   3.500   2.128 -0.0973 -0.2147  0.5352
 1269TIP3    H125366   6.059   3.569   2.176 -2.2374 -0.3540 -1.1302
 1269TIP3    H225367   6.040   3.430   2.119  0.9325 -1.0617 -0.6465
 1270TIP3   OH225368   1.516   2.148   1.539  0.1071 -0.1306  0.0037
 1270TIP3    H125369   1.588   2.104   1.584 -0.5172 -0.8627  0.3115
 1270TIP3    H225370   1.480   2.083   1.480 -2.0172 -0.7294  1.7984
 1271TIP3   OH225371   1.937   6.680   1.853 -0.3960 -0.1514  0.1754
 1271TIP3    H125372   1.888   6.598   1.851  0.8488 -0.9409  0.6564
 1271TIP3    H225373   1.996   6.675   1.778  0.9452 -0.5466  1.2072
 1272TIP3   OH225374   5.093   1.995   6.994  0.1653  0.0246  0.4989
 1272TIP3    H125375   5.181   1.960   7.008 -0.3075 -0.2770  3.0702
 1272TIP3    H225376   5.035   1.937   7.043 -0.8712  3.2244  3.4334
 1273TIP3   OH225377   6.740   2.835   6.570 -0.7344  0.3344  0.1491
 1273TIP3    H125378   6.743   2.742   6.549 -0.0957  0.3174  0.3049
 1273TIP3    H225379   6.658   2.846   6.618 -1.3034  0.0403 -0.7362
 1274TIP3   OH225380   6.399   1.756   8.054  0.6258  0.1123 -0.1511
 1274TIP3    H125381   6.399   1.833   8.110 -0.0312 -0.1675  0.2370
 1274TIP3    H225382   6.488   1.723   8.059  1.2842  1.5399 -1.3062
 1275TIP3   OH225383   0.004   1.701   8.300  0.1833 -0.1892  0.4141
 1275TIP3    H125384  -0.007   1.687   8.394 -0.6763 -3.3586 -0.0418
 1275TIP3    H225385   0.091   1.739   8.291  0.6444 -0.6504  2.4354
 1276TIP3   OH225386   5.726   5.793   0.742  0.0097  0.5106  0.2427
 1276TIP3    H125387   5.657   5.818   0.804  1.0570  1.0726  1.2344
 1276TIP3    H225388   5.807   5.800   0.793  0.7870 -0.3527 -0.8233
 1277TIP3   OH225389   1.087   3.313   2.321  0.1520  0.2070  0.3286
 1277TIP3    H125390   1.019   3.253   2.351 -1.4477  0.0049 -3.2404
 1277TIP3    H225391   1.065   3.397   2.363 -1.2819 -0.2523  0.5478
 1278TIP3   OH225392   5.091   4.752   8.500  0.4106  0.5952 -0.0855
 1278TIP3    H125393   5.077   4.660   8.524 -0.5306  0.7734  0.0764
 1278TIP3    H225394   5.039   4.802   8.563 -0.8010  1.1351 -1.4465
 1279TIP3   OH225395   2.311   2.863   7.775  0.5459 -0.2891 -0.3648
 1279TIP3    H125396   2.351   2.940   7.735  1.1797  0.9128  2.3519
 1279TIP3    H225397   2.247   2.833   7.710  1.6372  1.3349 -2.3189
 1280TIP3   OH225398   2.955   1.250   1.482 -0.7855  0.2185  0.0372
 1280TIP3    H125399   2.899   1.175   1.465  1.1217 -1.5924  1.2285
 1280TIP3    H225400   2.944   1.269   1.575  0.6955 -0.3408  0.3582
 1281TIP3   OH225401   5.371   2.986   2.198 -0.2457 -0.1754  0.4939
 1281TIP3    H125402   5.442   2.923   2.193  1.1041  1.3208 -0.1242
 1281TIP3    H225403   5.298   2.937   2.235  2.1273 -0.9072  4.9135
 1282TIP3   OH225404   0.532   0.082   1.322 -0.2378 -0.9467 -0.0328
 1282TIP3    H125405   0.495  -0.006   1.314  1.5949 -1.8325  0.7132
 1282TIP3    H225406   0.614   0.078   1.272  0.6789 -0.1815  1.3486
 1283TIP3   OH225407   0.185   3.630   2.077  0.8307  0.2435  0.2204
 1283TIP3    H125408   0.131   3.640   1.999 -0.1222 -1.1804  0.6483
 1283TIP3    H225409   0.269   3.599   2.044  0.8536  0.8648 -0.3242
 1284TIP3   OH225410   1.204   4.751   0.700  0.5412 -0.0809  0.2802
 1284TIP3    H125411   1.224   4.660   0.681  0.2634 -0.3695  1.2707
 1284TIP3    H225412   1.152   4.747   0.781 -0.0495  0.9066 -0.0398
 1285TIP3   OH225413   3.259   2.599   2.069  0.2774  0.0293 -0.3138
 1285TIP3    H125414   3.188   2.659   2.044  0.1545  0.1478  0.3030
 1285TIP3    H225415   3.335   2.630   2.020  0.2150  0.6961 -0.0026
 1286TIP3   OH225416   2.673   5.267   0.577 -0.0816 -0.1839  0.1286
 1286TIP3    H125417   2.708   5.339   0.525 -3.0849  0.9191 -0.5508
 1286TIP3    H225418   2.601   5.231   0.524 -0.7348 -1.5685  1.8421
 1287TIP3   OH225419   4.695   2.465   7.498  0.3074 -0.0114 -0.3903
 1287TIP3    H125420   4.788   2.485   7.495  0.2620  0.6286  1.4244
 1287TIP3    H225421   4.691   2.370   7.509  0.7620  0.0603  0.4038
 1288TIP3   OH225422   2.763   0.743   1.920  0.2418  0.7762 -0.2645
 1288TIP3    H125423   2.818   0.793   1.860 -1.2813  1.5531 -1.0828
 1288TIP3    H225424   2.700   0.698   1.862 -0.0603  0.0197  0.6360
 1289TIP3   OH225425   0.983   4.216   0.133  0.4263  0.3687 -0.2834
 1289TIP3    H125426   1.010   4.290   0.080  0.7886 -0.6491 -1.5591
 1289TIP3    H225427   0.888   4.225   0.140  0.4196  0.7210 -0.7859
 1290TIP3   OH225428   4.769   5.085   7.740 -0.1154  0.2097  0.2936
 1290TIP3    H125429   4.782   5.068   7.646 -1.7970 -1.8243  0.3515
 1290TIP3    H225430   4.832   5.027   7.783  1.8493  2.3569  0.4923
 1291TIP3   OH225431   0.325   4.614   1.974 -0.1969 -0.0506 -0.2075
 1291TIP3    H125432   0.380   4.591   2.049  1.3931 -0.8877 -1.5605
 1291TIP3    H225433   0.297   4.530   1.938 -2.4972  0.3490  0.4596
 1292TIP3   OH225434   4.983   2.926   0.858  0.4131  0.0582 -0.1530
 1292TIP3    H125435   4.932   2.967   0.788  1.1949  1.0696 -0.1581
 1292TIP3    H225436   4.942   2.955   0.939  0.9300  0.8359 -0.1579
 1293TIP3   OH225437   4.923   4.927   0.848 -0.0723 -0.1497  0.5205
 1293TIP3    H125438   5.001   4.880   0.816 -1.8924 -1.4048 -2.5098
 1293TIP3    H225439   4.939   5.018   0.825  0.7793 -0.2881  0.5263
 1294TIP3   OH225440   1.699   1.233   8.237  0.2456  0.2013  0.4853
 1294TIP3    H125441   1.660   1.163   8.290  0.5824  0.0909  0.5929
 1294TIP3    H225442   1.648   1.233   8.156  1.4752 -1.5212 -0.3656
 1295TIP3   OH225443   1.444   5.045   7.000 -0.5659  0.3551  0.4744
 1295TIP3    H125444   1.529   5.030   7.042 -1.5073  0.6288  2.6147
 1295TIP3    H225445   1.400   4.960   7.006 -0.0081 -0.1804 -1.8742
 1296TIP3   OH225446   2.427   5.995   8.167  0.1784 -0.6742  0.2261
 1296TIP3    H125447   2.442   5.903   8.145 -1.5854 -1.1769  0.9467
 1296TIP3    H225448   2.344   5.995   8.214  0.1560  1.2980  0.2636
 1297TIP3   OH225449   2.240   1.180   2.485  0.5995  0.0799 -0.7943
 1297TIP3    H125450   2.256   1.131   2.405  0.2498 -3.4235  1.0999
 1297TIP3    H225451   2.320   1.170   2.537  0.2589  0.9510 -0.0531
 1298TIP3   OH225452   3.848   3.673   8.877  0.0735 -0.1698  0.3955
 1298TIP3    H125453   3.841   3.710   8.965  2.7666 -1.4809  1.2735
 1298TIP3    H225454   3.940   3.687   8.853  0.2398 -2.8001 -0.8042
 1299TIP3   OH225455   3.905   0.242   8.615 -0.1149 -0.2996  0.2631
 1299TIP3    H125456   3.861   0.163   8.648  0.3002 -1.5841 -2.0209
 1299TIP3    H225457   3.959   0.210   8.543  0.2252  2.0653 -0.5998
 1300TIP3   OH225458   0.708   0.346   1.483  0.4958 -0.2530 -0.7855
 1300TIP3    H125459   0.793   0.352   1.440  0.5555  0.8563 -0.5267
 1300TIP3    H225460   0.645   0.368   1.414  0.5628  1.0446 -0.4584
 1301TIP3   OH225461   0.490   1.357   0.435  0.1258 -0.5610 -0.1406
 1301TIP3    H125462   0.407   1.398   0.462  0.6344  0.1112  0.4623
 1301TIP3    H225463   0.556   1.398   0.492  0.5406 -3.0348  1.3272
 1302TIP3   OH225464   2.829   2.177   0.087 -0.2774 -0.3149 -0.3965
 1302TIP3    H125465   2.770   2.228   0.141  0.6698  0.5149 -0.1197
 1302TIP3    H225466   2.772   2.129   0.027 -1.3341 -1.0783  1.1678
 1303TIP3   OH225467   6.666   3.257   7.570 -0.1020 -0.0294 -0.6943
 1303TIP3    H125468   6.718   3.178   7.556  0.6628  0.4489 -0.6108
 1303TIP3    H225469   6.684   3.311   7.493  0.3017  0.5556 -0.1949
 1304TIP3   OH225470   1.981   4.328   1.720 -0.4380 -0.3019 -0.5599
 1304TIP3    H125471   2.071   4.357   1.731 -0.6830  0.4558 -0.4835
 1304TIP3    H225472   1.930   4.409   1.719 -1.3571 -0.7980  1.5311
 1305TIP3   OH225473   3.618   6.134   0.963  0.2205 -0.0144 -0.2492
 1305TIP3    H125474   3.598   6.217   1.006 -0.3115  1.0047 -2.3046
 1305TIP3    H225475   3.708   6.145   0.931 -0.3680  0.4201 -1.8422
 1306TIP3   OH225476   0.513   6.460   0.662  0.1073  0.3245  0.2767
 1306TIP3    H125477   0.523   6.366   0.646  0.4779  0.3870  0.1308
 1306TIP3    H225478   0.457   6.490   0.590  0.1913  0.2612  0.1850
 1307TIP3   OH225479   1.491   2.744   1.464  0.0887 -0.0009 -0.5994
 1307TIP3    H125480   1.548   2.735   1.388  0.4028  0.6209 -0.4439
 1307TIP3    H225481   1.414   2.692   1.442  1.1465 -1.7448 -0.3681
 1308TIP3   OH225482   1.150   0.236   2.158  0.1005 -0.1562 -0.0352
 1308TIP3    H125483   1.228   0.181   2.152 -1.0911 -2.1040  1.3086
 1308TIP3    H225484   1.120   0.225   2.248 -1.3860  1.0710 -0.3385
 1309TIP3   OH225485   2.954   1.069   7.745  0.2250 -0.0862 -0.0588
 1309TIP3    H125486   2.958   0.977   7.718  0.7551  0.0609 -0.4727
 1309TIP3    H225487   2.928   1.065   7.837  0.2129 -0.6503 -0.0833
 1310TIP3   OH225488   6.149   2.536   1.193 -0.2542 -0.1881 -0.6523
 1310TIP3    H125489   6.125   2.586   1.271 -1.2375 -0.9847 -0.4262
 1310TIP3    H225490   6.190   2.456   1.227  1.6139  0.5692 -1.0154
 1311TIP3   OH225491   1.630   5.597   0.418 -0.4327 -0.2149 -0.6672
 1311TIP3    H125492   1.698   5.532   0.435 -0.1410  0.1862 -0.2880
 1311TIP3    H225493   1.630   5.653   0.496 -2.3053 -1.1695  0.1048
 1312TIP3   OH225494   3.394   0.294   6.879 -0.4192 -0.5987 -0.1350
 1312TIP3    H125495   3.384   0.283   6.973 -0.6484  0.2141 -0.0542
 1312TIP3    H225496   3.485   0.272   6.861 -0.4536 -1.0491  0.2257
 1313TIP3   OH225497   1.547   3.800   0.614  0.1510 -0.2875  0.5493
 1313TIP3    H125498   1.622   3.742   0.614  1.0050  0.7037 -1.3114
 1313TIP3    H225499   1.580   3.883   0.579 -1.4994  0.6276  1.0101
 1314TIP3   OH225500   1.099   6.252   8.340 -0.0170  0.8814 -0.1524
 1314TIP3    H125501   1.116   6.236   8.247  0.0132 -4.5104  0.4785
 1314TIP3    H225502   1.007   6.232   8.352  0.3289 -0.0402  1.1760
 1315TIP3   OH225503   4.447   0.768   8.302  0.3808 -0.0665 -0.9016
 1315TIP3    H125504   4.509   0.732   8.239 -0.4178  0.5146 -2.0355
 1315TIP3    H225505   4.377   0.805   8.249  0.5537  2.0362  0.2364
 1316TIP3   OH225506   0.297   2.159   0.033  0.3867 -0.3032 -0.2463
 1316TIP3    H125507   0.300   2.224  -0.037  0.9276  1.3726  1.2417
 1316TIP3    H225508   0.224   2.188   0.089  2.3017  0.6924  1.8897
 1317TIP3   OH225509   6.228   2.924   2.631 -0.2348  0.1449 -0.0977
 1317TIP3    H125510   6.283   3.002   2.637 -1.5685  1.1555 -0.6000
 1317TIP3    H225511   6.252   2.873   2.708  0.2366  1.3439  0.5818
 1318TIP3   OH225512   5.832   5.036   8.836 -0.3590  0.1883 -0.5172
 1318TIP3    H125513   5.854   5.111   8.892  0.1192  0.0880 -0.5684
 1318TIP3    H225514   5.736   5.040   8.827 -0.4322  0.2900  0.1912
 1319TIP3   OH225515   6.630   4.917   1.893  0.6563  1.3366  0.4706
 1319TIP3    H125516   6.554   4.867   1.866  0.9127  0.6187  1.0437
 1319TIP3    H225517   6.616   5.004   1.856  0.9281  0.4699 -1.8309
 1320TIP3   OH225518   6.124   3.113   0.577 -0.2943  0.5759 -0.1104
 1320TIP3    H125519   6.041   3.098   0.622  0.5547  0.4661  1.4915
 1320TIP3    H225520   6.172   3.032   0.587 -0.0314  0.5957 -1.1454
 1321TIP3   OH225521   1.184   3.705   6.713  0.5751  0.0210 -0.5490
 1321TIP3    H125522   1.237   3.782   6.732  0.8515 -0.2722 -0.1185
 1321TIP3    H225523   1.208   3.642   6.781 -1.0565  0.2394  0.2624
 1322TIP3   OH225524   1.674   2.447   2.414  0.6086  0.2128 -0.4794
 1322TIP3    H125525   1.731   2.376   2.444 -0.2043 -0.1272  0.3167
 1322TIP3    H225526   1.586   2.417   2.434  0.2976  1.9302  0.9873
 1323TIP3   OH225527   5.383   0.933   0.909 -0.1553  0.3921 -0.4290
 1323TIP3    H125528   5.393   0.861   0.970 -0.7196 -0.2507 -1.0794
 1323TIP3    H225529   5.310   0.907   0.852  0.3602  0.9665 -1.3787
 1324TIP3   OH225530   4.184   0.407   7.302  0.2942 -0.0320 -0.5051
 1324TIP3    H125531   4.150   0.491   7.270 -3.9656 -0.7602  1.4297
 1324TIP3    H225532   4.237   0.430   7.379 -0.7173  0.9135 -0.0676
 1325TIP3   OH225533   1.297   6.606   7.457 -0.5144 -0.2748 -0.1763
 1325TIP3    H125534   1.287   6.567   7.370 -1.7452  2.5178 -1.4169
 1325TIP3    H225535   1.391   6.614   7.469 -0.3135  0.8265 -2.0723
 1326TIP3   OH225536   0.516   5.239   2.713  0.0837 -0.1631 -0.6198
 1326TIP3    H125537   0.610   5.229   2.699  0.5923  1.2544  1.3915
 1326TIP3    H225538   0.485   5.150   2.731  1.0040 -0.6546 -1.3283
 1327TIP3   OH225539   2.003   3.514   7.085 -0.1181  1.0897 -0.2541
 1327TIP3    H125540   2.054   3.549   7.013  2.4160  0.1421  0.9552
 1327TIP3    H225541   1.960   3.436   7.050  3.4327 -1.1160 -0.1832
 1328TIP3   OH225542   4.319   4.093   2.591  0.3918 -0.3976 -0.1669
 1328TIP3    H125543   4.360   4.023   2.541 -0.1012  0.2865 -1.5656
 1328TIP3    H225544   4.334   4.068   2.683  0.5896 -2.1064 -0.6195
 1329TIP3   OH225545   3.171   4.565   1.416 -0.3238  0.3856 -0.0102
 1329TIP3    H125546   3.121   4.497   1.372  0.1260 -0.0194  0.0953
 1329TIP3    H225547   3.211   4.615   1.344 -0.4493  0.3837 -0.0823
 1330TIP3   OH225548   1.026   6.629   8.510 -0.0383  0.5886  0.2669
 1330TIP3    H125549   0.954   6.572   8.483  1.4062 -0.9479 -0.5690
 1330TIP3    H225550   0.985   6.698   8.562 -1.8865 -1.2057  1.2953
 1331TIP3   OH225551   4.636   6.200   3.077 -0.7637  0.9743  0.0966
 1331TIP3    H125552   4.597   6.233   2.996  0.6746  0.3729 -0.8816
 1331TIP3    H225553   4.729   6.224   3.070 -0.1029 -1.2370  0.3732
 1332TIP3   OH225554   5.262   3.434   7.493 -0.5465 -0.1381  0.3985
 1332TIP3    H125555   5.305   3.413   7.410 -0.6775 -2.1923  0.8014
 1332TIP3    H225556   5.334   3.443   7.556 -0.5512 -1.2782  0.5922
 1333TIP3   OH225557   0.849   4.251   8.059  0.2595  0.3707 -1.0956
 1333TIP3    H125558   0.871   4.241   7.966  0.8095 -1.0660 -0.8426
 1333TIP3    H225559   0.929   4.226   8.106 -0.8578 -1.8040 -0.2074
 1334TIP3   OH225560   6.447   6.477   0.330  0.2163  0.4400 -0.1575
 1334TIP3    H125561   6.531   6.520   0.343  0.5893 -0.0791 -0.7751
 1334TIP3    H225562   6.386   6.548   0.312  0.3093  0.9127  1.2218
 1335TIP3   OH225563   0.505   3.856   1.085 -0.1119 -0.1270 -0.0303
 1335TIP3    H125564   0.522   3.832   0.994  1.1045 -0.7486  0.3313
 1335TIP3    H225565   0.465   3.942   1.080 -1.8916 -0.9558 -1.2426
 1336TIP3   OH225566   4.560   2.639   8.531  0.0740 -0.0494 -0.6237
 1336TIP3    H125567   4.500   2.628   8.604  1.0345  0.2949  0.2331
 1336TIP3    H225568   4.556   2.555   8.484 -1.4276  0.1290 -0.8907
 1337TIP3   OH225569   2.433   5.627   8.354  0.4101 -0.0481  0.0418
 1337TIP3    H125570   2.440   5.644   8.260 -0.5207  1.2665  0.1789
 1337TIP3    H225571   2.375   5.551   8.361  0.9585 -0.5158 -0.4566
 1338TIP3   OH225572   1.356   3.257   7.772 -0.9044 -0.7193 -0.2486
 1338TIP3    H125573   1.441   3.268   7.729 -0.2085  0.3138  1.2922
 1338TIP3    H225574   1.312   3.341   7.761 -1.0507 -0.7115  0.3277
 1339TIP3   OH225575   5.208   0.936   8.042 -0.2938 -0.3504  0.0461
 1339TIP3    H125576   5.167   0.936   8.129 -0.5094 -1.6489 -0.0347
 1339TIP3    H225577   5.280   1.000   8.049 -1.7686  1.3532  0.4426
 1340TIP3   OH225578   4.087   2.733   2.257  0.3754 -0.0286  0.5026
 1340TIP3    H125579   4.132   2.713   2.339  0.1795 -0.0378  0.6091
 1340TIP3    H225580   4.061   2.825   2.266  1.0948  0.2189  0.0989
 1341TIP3   OH225581   5.041   6.391   2.337 -0.1001  0.6783  0.1881
 1341TIP3    H125582   5.130   6.425   2.349 -0.3015  1.3545 -0.1994
 1341TIP3    H225583   4.989   6.435   2.405 -0.2839  0.8392 -0.0574
 1342TIP3   OH225584   4.298   1.857   0.070  0.1538  0.7616  0.3421
 1342TIP3    H125585   4.293   1.927   0.135 -1.8932  0.4748  0.5616
 1342TIP3    H225586   4.240   1.789   0.104 -0.0572  0.1282 -1.2287
 1343TIP3   OH225587   4.004   5.184   1.949  0.0761 -0.4170 -0.0340
 1343TIP3    H125588   3.976   5.238   2.023 -2.4539  1.7342 -2.3427
 1343TIP3    H225589   4.064   5.239   1.899 -1.3756 -0.1972 -1.6448
 1344TIP3   OH225590   2.228   3.266   8.678  0.5076 -0.2919 -0.8576
 1344TIP3    H125591   2.270   3.185   8.707 -0.7317  0.0317  2.1378
 1344TIP3    H225592   2.260   3.332   8.739 -0.0503  1.0957 -2.0197
 1345TIP3   OH225593   0.494   5.515   2.682  0.0016  0.2481 -0.1525
 1345TIP3    H125594   0.479   5.423   2.706 -1.7254 -0.1689 -2.5211
 1345TIP3    H225595   0.583   5.534   2.713  0.0838 -1.9317  1.1456
 1346TIP3   OH225596   5.274   1.248   0.066 -0.7641  0.2494 -0.2620
 1346TIP3    H125597   5.201   1.262   0.125  0.1883  0.1469  0.9834
 1346TIP3    H225598   5.305   1.159   0.086  0.4990  0.7615  0.1933
 1347TIP3   OH225599   2.043   1.576   0.191  0.1568 -0.1680  0.0305
 1347TIP3    H125600   2.108   1.508   0.174  1.4047  0.6846  1.1891
 1347TIP3    H225601   2.093   1.648   0.229 -1.3967  0.7336  0.4502
 1348TIP3   OH225602   5.114   1.792   1.478 -0.5615 -0.1992 -0.2900
 1348TIP3    H125603   5.179   1.852   1.441  0.2162 -2.1209 -2.2179
 1348TIP3    H225604   5.078   1.746   1.402 -3.5390  0.1118  0.8162
 1349TIP3   OH225605   2.136   5.559   8.709 -0.2308 -0.0440  0.1888
 1349TIP3    H125606   2.183   5.502   8.769 -1.6597 -0.8833  0.5595
 1349TIP3    H225607   2.186   5.555   8.627  0.0432 -1.3172  0.4101
 1350TIP3   OH225608   5.109   2.710   8.046  0.1226  0.3497 -0.2793
 1350TIP3    H125609   5.064   2.697   8.130 -0.6360  3.4548 -0.0627
 1350TIP3    H225610   5.040   2.701   7.980  0.1179  0.6844 -0.3220
 1351TIP3   OH225611   3.000   5.300   7.975 -0.1724 -0.4622 -0.6588
 1351TIP3    H125612   3.002   5.234   7.906  0.7290 -1.8289  0.6279
 1351TIP3    H225613   2.907   5.321   7.985 -0.8816 -3.6866  0.8274
 1352TIP3   OH225614   0.457   4.363   1.045 -0.2477  0.4354  0.4280
 1352TIP3    H125615   0.451   4.456   1.067  1.4171  0.4837  0.7498
 1352TIP3    H225616   0.536   4.332   1.089 -0.7648 -1.1459  0.3150
 1353TIP3   OH225617   5.108   3.205   7.176  0.2580 -0.3830 -0.4984
 1353TIP3    H125618   5.043   3.270   7.150 -0.8829 -1.7442 -1.1555
 1353TIP3    H225619   5.062   3.121   7.173  1.4247 -1.1485  1.2594
 1354TIP3   OH225620   1.396   2.230   0.261 -0.2761  0.3747 -0.1851
 1354TIP3    H125621   1.399   2.146   0.216 -0.1010  0.2669  0.0213
 1354TIP3    H225622   1.347   2.288   0.203 -0.2990  0.1600 -0.3787
 1355TIP3   OH225623   2.229   0.976   2.258 -0.2971  0.0398 -0.0297
 1355TIP3    H125624   2.251   0.894   2.213  0.1944 -0.1980  0.6230
 1355TIP3    H225625   2.296   1.038   2.231  2.0657 -1.0075  2.8817
 1356TIP3   OH225626   3.882   3.665   2.193 -0.0880 -0.0840  0.0982
 1356TIP3    H125627   3.953   3.620   2.238  0.6469  0.0975 -0.8486
 1356TIP3    H225628   3.821   3.689   2.262  0.8338 -0.1275  0.9434
 1357TIP3   OH225629   6.292   2.317   7.430 -0.2941  0.2984 -0.5262
 1357TIP3    H125630   6.288   2.244   7.367 -1.0873  0.5655 -0.7915
 1357TIP3    H225631   6.334   2.388   7.381 -0.3440  0.3064 -0.5576
 1358TIP3   OH225632   4.316   3.555   8.805 -0.0414  1.0521  0.5975
 1358TIP3    H125633   4.384   3.608   8.846  1.3447 -1.1202  1.2974
 1358TIP3    H225634   4.361   3.505   8.737 -1.2016  0.4805  0.2119
 1359TIP3   OH225635   5.693   4.731   2.045  0.3108  0.5977  0.0559
 1359TIP3    H125636   5.735   4.790   1.982 -1.0530 -0.5242 -2.0153
 1359TIP3    H225637   5.763   4.672   2.072  0.6348  0.1613 -1.5974
 1360TIP3   OH225638   2.130   6.639   0.567 -0.0798 -0.1226 -0.5660
 1360TIP3    H125639   2.159   6.660   0.656 -1.8206 -0.5582  0.1486
 1360TIP3    H225640   2.209   6.608   0.523  0.2106 -3.5949  1.9679
 1361TIP3   OH225641   0.757   5.301   1.640  0.7554 -0.0445 -0.5733
 1361TIP3    H125642   0.737   5.258   1.723 -0.5862 -0.2406 -0.9757
 1361TIP3    H225643   0.810   5.377   1.665 -1.4814  1.1844  0.7472
 1362TIP3   OH225644   0.263   1.940   1.604 -0.4486  0.4346  0.5706
 1362TIP3    H125645   0.273   1.865   1.545 -1.5926  0.8481 -0.1845
 1362TIP3    H225646   0.353   1.969   1.621 -0.0633 -0.1878 -0.3309
 1363TIP3   OH225647   4.350   0.777   7.334 -0.3251 -0.6502  0.3636
 1363TIP3    H125648   4.413   0.760   7.264  1.5724  0.0319  1.8034
 1363TIP3    H225649   4.378   0.860   7.372 -2.0457 -0.3936  1.1531
 1364TIP3   OH225650   3.192   1.932   7.332  0.1648  0.3414 -0.0933
 1364TIP3    H125651   3.282   1.954   7.308 -0.6228  3.1992 -0.9136
 1364TIP3    H225652   3.184   1.959   7.423  0.3598 -0.7366  0.2493
 1365TIP3   OH225653   4.139   4.291   1.660  0.5710  0.3773 -0.1378
 1365TIP3    H125654   4.208   4.351   1.691  0.3103  0.6338 -0.0493
 1365TIP3    H225655   4.171   4.204   1.683  1.3942  0.4078 -1.1078
 1366TIP3   OH225656   3.195   5.794   0.966 -0.1149 -0.1004 -0.5877
 1366TIP3    H125657   3.238   5.812   0.882 -0.7938 -0.5578 -1.0446
 1366TIP3    H225658   3.248   5.724   1.005 -1.2587 -1.7362 -1.8382
 1367TIP3   OH225659   1.433   2.156   1.094  0.1862  0.6916  0.6238
 1367TIP3    H125660   1.349   2.117   1.071  0.2339  0.7720  0.3167
 1367TIP3    H225661   1.486   2.150   1.014  0.6588  0.1496  0.9666
 1368TIP3   OH225662   5.893   2.354   8.845  0.0320 -0.0669 -0.1552
 1368TIP3    H125663   5.915   2.440   8.880 -1.8422  0.1622  0.5620
 1368TIP3    H225664   5.884   2.298   8.922 -0.8258 -0.3852 -0.4767
 1369TIP3   OH225665   2.003   3.615   1.703  0.2879  0.2586 -0.2298
 1369TIP3    H125666   1.972   3.680   1.639  0.1987  1.0753  0.6074
 1369TIP3    H225667   1.962   3.533   1.675 -0.2855  0.7311 -0.8347
 1370TIP3   OH225668   5.445   0.981   0.162  0.7381 -0.2729 -0.2722
 1370TIP3    H125669   5.497   1.018   0.090 -2.4881  0.1595 -2.6406
 1370TIP3    H225670   5.416   0.896   0.128 -3.4302  1.2537 -1.0054
 1371TIP3   OH225671   3.788   6.515   8.420 -0.3515 -0.2179  0.3723
 1371TIP3    H125672   3.718   6.572   8.453 -0.7437 -1.0130  0.9400
 1371TIP3    H225673   3.866   6.544   8.468 -0.1185  1.0922 -0.7139
 1372TIP3   OH225674   5.256   4.571   0.676 -0.1850 -0.1033 -0.4011
 1372TIP3    H125675   5.326   4.510   0.654  1.2894  1.3457  0.1338
 1372TIP3    H225676   5.182   4.514   0.700  0.5554 -1.6595 -1.6403
 1373TIP3   OH225677   2.088   3.796   1.165 -0.0161  0.0710 -0.4638
 1373TIP3    H125678   2.050   3.750   1.241  0.8981  1.1642  0.6991
 1373TIP3    H225679   2.124   3.876   1.202  0.5955  0.5584 -2.0623
 1374TIP3   OH225680   3.434   3.491   8.528  0.2756 -0.2341  0.2992
 1374TIP3    H125681   3.414   3.506   8.436 -1.2420 -0.2172  0.6031
 1374TIP3    H225682   3.445   3.578   8.565 -0.7209 -0.1578  0.4473
 1375TIP3   OH225683   5.833   6.001   0.007 -0.4786  0.1687  0.0646
 1375TIP3    H125684   5.830   6.094  -0.017  1.3180  0.1327 -0.3699
 1375TIP3    H225685   5.792   5.998   0.094 -0.0855  1.4491  0.3099
 1376TIP3   OH225686   5.139   3.044   0.012 -0.1367 -0.6492  0.6905
 1376TIP3    H125687   5.202   3.068  -0.056 -0.4164 -0.3400  0.5349
 1376TIP3    H225688   5.173   3.084   0.092  1.2081 -2.5833  1.1565
 1377TIP3   OH225689   4.818   3.694   1.616 -0.2527 -0.7822  0.2008
 1377TIP3    H125690   4.892   3.642   1.646  1.1009  0.8749 -0.1035
 1377TIP3    H225691   4.758   3.631   1.577  1.9072 -1.9941 -1.3784
 1378TIP3   OH225692   4.682   5.120   2.910  0.0478  0.0852  0.1683
 1378TIP3    H125693   4.671   5.049   2.846  0.2498  0.0500  0.1731
 1378TIP3    H225694   4.593   5.146   2.933 -0.0445 -0.8919  0.9773
 1379TIP3   OH225695   0.693   3.317   2.053 -0.5440  0.0593  0.3210
 1379TIP3    H125696   0.669   3.299   2.144 -0.2047 -0.7873  0.2540
 1379TIP3    H225697   0.631   3.265   2.002 -1.6952  1.6846  0.0125
 1380TIP3   OH225698   6.115   4.138   8.103  0.1261 -0.0076  0.4457
 1380TIP3    H125699   6.191   4.194   8.093  0.4358 -0.4184  0.4843
 1380TIP3    H225700   6.076   4.134   8.016 -1.0396  1.8531  0.8103
 1381TIP3   OH225701   1.374   0.435   1.036  0.2184  0.7416  0.2145
 1381TIP3    H125702   1.290   0.396   1.059  0.9047 -1.2397 -0.4278
 1381TIP3    H225703   1.355   0.528   1.022 -2.3963 -0.0577 -2.5245
 1382TIP3   OH225704   5.636   5.506   1.396 -0.5728 -0.1176  0.7446
 1382TIP3    H125705   5.648   5.499   1.302  0.4850 -1.2904  0.9293
 1382TIP3    H225706   5.547   5.474   1.412 -0.1218 -1.7240  0.2829
 1383TIP3   OH225707   5.760   3.693   2.044  0.2890 -0.0646  0.1809
 1383TIP3    H125708   5.786   3.646   1.965  3.3324  0.4461  0.7424
 1383TIP3    H225709   5.843   3.714   2.088 -1.0518  3.1950  1.4870
 1384TIP3   OH225710   2.834   4.494   2.339  0.5042 -0.4121  0.3552
 1384TIP3    H125711   2.757   4.466   2.290  0.1570 -0.2976  0.8321
 1384TIP3    H225712   2.800   4.552   2.407  1.1395  0.6814 -0.2179
 1385TIP3   OH225713   3.551   3.928   8.741 -0.2507 -0.1090 -0.4389
 1385TIP3    H125714   3.604   3.928   8.821  1.5335 -0.1227 -1.5821
 1385TIP3    H225715   3.464   3.957   8.771  1.0938  2.8694  1.0669
 1386TIP3   OH225716   1.536   1.001   8.328  0.2144  0.4687  0.4241
 1386TIP3    H125717   1.579   0.928   8.284  0.2878  0.4433  0.5359
 1386TIP3    H225718   1.470   1.032   8.266  0.1230  0.2499  0.4116
 1387TIP3   OH225719   3.809   3.296   0.977 -0.1866 -0.3551 -0.0857
 1387TIP3    H125720   3.904   3.310   0.975 -0.2011  0.2743  1.8372
 1387TIP3    H225721   3.791   3.245   0.898  1.6284  0.1849 -0.9131
 1388TIP3   OH225722   5.414   0.872   0.473 -0.0223 -1.1055  0.0211
 1388TIP3    H125723   5.502   0.890   0.441 -0.4253 -0.4816 -0.7843
 1388TIP3    H225724   5.425   0.803   0.538  0.8007 -2.7598 -1.7708
 1389TIP3   OH225725   1.956   1.250   1.038  0.5114 -0.2838 -0.8443
 1389TIP3    H125726   1.928   1.222   0.951 -0.2879  1.5545 -1.2408
 1389TIP3    H225727   2.049   1.228   1.042  0.9156  0.8439 -2.7398
 1390TIP3   OH225728   4.748   4.322   0.570  0.2211  0.0741  0.1257
 1390TIP3    H125729   4.686   4.279   0.510  0.7952 -0.3684 -0.1542
 1390TIP3    H225730   4.789   4.390   0.517  0.4232 -0.0391  0.1369
 1391TIP3   OH225731   4.403   3.763   1.299 -0.0278 -0.5656  0.1757
 1391TIP3    H125732   4.492   3.778   1.329 -0.5859  1.4740  0.9730
 1391TIP3    H225733   4.374   3.849   1.267 -1.2949 -1.4617 -1.2124
 1392TIP3   OH225734   4.877   4.684   0.614 -0.1120  0.7843  0.8100
 1392TIP3    H125735   4.786   4.714   0.608 -0.8106 -1.3467 -0.5421
 1392TIP3    H225736   4.894   4.680   0.709 -0.7871  2.8964  1.0572
 1393TIP3   OH225737   3.343   3.793   7.895  0.0531 -0.0778  0.0903
 1393TIP3    H125738   3.288   3.835   7.829  2.0654 -0.2174 -1.7794
 1393TIP3    H225739   3.372   3.712   7.854 -1.6570 -2.1538  2.6420
 1394TIP3   OH225740   4.156   0.916   1.637  0.2144 -0.0444 -0.0286
 1394TIP3    H125741   4.183   0.845   1.578 -1.1304 -2.6480  2.2219
 1394TIP3    H225742   4.235   0.939   1.685  0.6972  0.0765 -0.8652
 1395TIP3   OH225743   3.011   1.239   8.031 -0.6378 -0.4171 -0.8294
 1395TIP3    H125744   2.932   1.193   8.001 -2.4365  1.8728  0.0444
 1395TIP3    H225745   3.063   1.251   7.951 -0.5370 -2.9902 -1.2295
 1396TIP3   OH225746   3.613   5.068   1.614 -0.0467 -0.2515 -0.0343
 1396TIP3    H125747   3.533   5.058   1.666 -0.9030 -1.1948 -1.4715
 1396TIP3    H225748   3.684   5.067   1.679 -1.1196 -0.5459  1.1722
 1397TIP3   OH225749   0.147   2.107   0.863 -0.2547  0.5102 -0.2605
 1397TIP3    H125750   0.207   2.172   0.827  0.1278 -0.4815 -1.4701
 1397TIP3    H225751   0.189   2.023   0.846  0.8674 -0.0768  4.0753
 1398TIP3   OH225752   0.086   0.684   1.314 -0.0275 -0.0117  0.5279
 1398TIP3    H125753   0.063   0.775   1.295 -0.0290  0.0788  0.9579
 1398TIP3    H225754   0.065   0.672   1.407  0.6606 -0.2412  0.6603
 1399TIP3   OH225755   4.988   4.697   8.883  0.0256  0.1065  0.3254
 1399TIP3    H125756   4.897   4.698   8.911  0.0654  0.5643  0.4473
 1399TIP3    H225757   4.999   4.777   8.832  0.8320  1.0743  1.9166
 1400TIP3   OH225758   0.680   2.289   7.975  0.7630  0.2706  0.4040
 1400TIP3    H125759   0.722   2.340   7.906  0.0650  2.8071  1.7309
 1400TIP3    H225760   0.622   2.228   7.929 -0.6940  2.7582 -1.2781
 1401TIP3   OH225761   6.623   4.676   7.682  0.3682 -0.3463 -0.6588
 1401TIP3    H125762   6.581   4.723   7.753  1.4113 -0.6029  0.1488
 1401TIP3    H225763   6.685   4.739   7.645 -1.4169  0.4160 -2.5753
 1402TIP3   OH225764   1.442   4.751   0.360  0.1793  0.4705  0.1638
 1402TIP3    H125765   1.393   4.833   0.351  0.2320  0.4568 -0.2516
 1402TIP3    H225766   1.403   4.692   0.296 -2.1619 -0.9914  2.7256
 1403TIP3   OH225767   3.441   6.328   7.901  0.0860 -0.1351  0.0900
 1403TIP3    H125768   3.480   6.258   7.849  0.6265 -0.2353  0.6087
 1403TIP3    H225769   3.504   6.400   7.897 -0.5683  0.4149 -0.6209
 1404TIP3   OH225770   4.172   5.750   1.684 -0.2983 -0.4876  0.0202
 1404TIP3    H125771   4.183   5.765   1.590  1.0887 -0.1395  0.2205
 1404TIP3    H225772   4.139   5.833   1.718  0.0763 -0.3175 -0.0267
 1405TIP3   OH225773   3.943   5.099   8.478  0.2705  0.3248 -0.1880
 1405TIP3    H125774   3.978   5.105   8.389  3.5963  3.5056  1.0806
 1405TIP3    H225775   4.006   5.042   8.524 -0.4851  0.0481  0.5249
 1406TIP3   OH225776   6.534   1.712   1.502 -0.5972 -0.5039  0.0855
 1406TIP3    H125777   6.594   1.673   1.438  0.5606 -0.9427  1.3805
 1406TIP3    H225778   6.576   1.697   1.586 -1.5442  1.0393  0.8747
 1407TIP3   OH225779   6.789   6.592   0.626 -0.6221 -0.1234 -0.5068
 1407TIP3    H125780   6.851   6.655   0.588 -0.5659  0.0762 -0.0887
 1407TIP3    H225781   6.784   6.521   0.562  0.5344 -0.4552 -0.2514
 1408TIP3   OH225782   0.116   4.164   6.987 -1.1494  0.1617  0.0708
 1408TIP3    H125783   0.088   4.253   7.009 -1.0766  0.3554 -0.6075
 1408TIP3    H225784   0.199   4.153   7.034 -0.4322  0.9713 -0.9464
 1409TIP3   OH225785   4.749   0.088   0.729 -0.1100  0.1870 -0.0128
 1409TIP3    H125786   4.657   0.081   0.754 -0.5203 -0.1844 -1.4807
 1409TIP3    H225787   4.781  -0.003   0.731 -0.0098  0.2141 -0.2632
 1410TIP3   OH225788   6.246   1.588   2.124  0.7117  0.3100 -0.2896
 1410TIP3    H125789   6.250   1.518   2.189 -1.1402 -1.3930 -1.8713
 1410TIP3    H225790   6.166   1.570   2.074 -0.6085  4.3189  0.0154
 1411TIP3   OH225791   4.056   3.931   8.701 -0.2597  0.8303 -0.4379
 1411TIP3    H125792   4.110   3.860   8.666  0.1009  0.6328  0.4858
 1411TIP3    H225793   4.043   3.908   8.793 -1.1011  1.3830 -0.4068
 1412TIP3   OH225794   0.192   3.883   8.782  0.6048 -0.1521  0.2197
 1412TIP3    H125795   0.111   3.893   8.833  1.3221 -1.9202  1.8368
 1412TIP3    H225796   0.188   3.952   8.717 -0.7059  1.8438  2.2721
 1413TIP3   OH225797   1.023   3.725   0.697 -0.1425 -0.3965 -0.2023
 1413TIP3    H125798   1.083   3.657   0.728 -0.2668 -0.7151 -0.6463
 1413TIP3    H225799   1.053   3.744   0.608 -0.4756 -0.2916 -0.2913
 1414TIP3   OH225800   5.599   5.822   8.351 -1.1433  0.4336 -0.3238
 1414TIP3    H125801   5.607   5.775   8.434  0.8718  0.2128 -0.5917
 1414TIP3    H225802   5.526   5.882   8.364 -1.0729  0.1750  1.5055
 1415TIP3   OH225803   3.247   0.586   8.438  0.0404 -0.5108 -0.5580
 1415TIP3    H125804   3.334   0.587   8.400 -0.3723  0.4400 -1.5223
 1415TIP3    H225805   3.197   0.526   8.383  0.0266 -0.9163 -0.1139
 1416TIP3   OH225806   2.957   3.200   1.707  0.7757 -0.9147  0.5651
 1416TIP3    H125807   2.939   3.206   1.801 -0.6878  0.0949  0.2662
 1416TIP3    H225808   2.925   3.283   1.672 -0.2308 -1.9203 -1.0405
 1417TIP3   OH225809   3.334   3.876   1.945 -0.1867 -0.3336  0.1634
 1417TIP3    H125810   3.272   3.934   1.902 -0.7356 -0.4006  0.8479
 1417TIP3    H225811   3.327   3.793   1.897 -0.7313 -0.3810  0.3212
 1418TIP3   OH225812   5.737   1.012   8.214  0.0650 -0.1848  0.4129
 1418TIP3    H125813   5.668   0.948   8.194  1.6461 -1.0995 -2.6749
 1418TIP3    H225814   5.765   1.045   8.128 -0.1305  4.2018  1.7835
 1419TIP3   OH225815   6.284   2.955   1.404 -1.0063 -0.1112  0.0658
 1419TIP3    H125816   6.268   2.917   1.317  0.5174  0.8602 -0.6740
 1419TIP3    H225817   6.234   2.899   1.463 -0.3734 -2.1304 -1.1925
 1420TIP3   OH225818   1.705   3.589   0.364 -0.3106  0.1970  0.3145
 1420TIP3    H125819   1.692   3.495   0.379 -0.4427 -0.0252 -1.1195
 1420TIP3    H225820   1.637   3.613   0.302  0.2346  1.0773  0.0459
 1421TIP3   OH225821   3.594   3.740   7.127  0.4215  0.2922  0.2880
 1421TIP3    H125822   3.568   3.730   7.036 -0.7373 -0.0686  0.6432
 1421TIP3    H225823   3.689   3.731   7.126  0.6303  2.0469 -1.1193
 1422TIP3   OH225824   0.270   3.371   2.804  0.0693 -0.0419  0.3100
 1422TIP3    H125825   0.176   3.374   2.823 -0.2118  0.8860 -1.0781
 1422TIP3    H225826   0.311   3.420   2.876 -0.6208  0.5179  0.3298
 1423TIP3   OH225827   6.630   1.309   0.658 -0.1395  0.1840 -0.0704
 1423TIP3    H125828   6.565   1.286   0.726 -2.4233  2.0174 -1.4850
 1423TIP3    H225829   6.589   1.282   0.576 -0.1297  3.2855 -1.2071
 1424TIP3   OH225830   4.520   2.223   1.845  0.0082  0.7326 -0.0181
 1424TIP3    H125831   4.489   2.266   1.924 -1.8270 -1.7746  0.7770
 1424TIP3    H225832   4.450   2.239   1.781 -0.7801 -1.0239  0.3350
 1425TIP3   OH225833   5.640   6.090   0.285 -0.2949 -0.1771 -0.4183
 1425TIP3    H125834   5.648   6.183   0.265 -0.7941 -0.1413 -0.4679
 1425TIP3    H225835   5.562   6.085   0.341 -1.2801 -0.7589 -1.7772
 1426TIP3   OH225836   4.568   5.885   1.517 -0.2513  0.3394  0.2806
 1426TIP3    H125837   4.566   5.884   1.613  1.2653 -0.3204  0.3326
 1426TIP3    H225838   4.542   5.796   1.492 -0.2183  0.3834  0.0912
 1427TIP3   OH225839   4.229   5.186   2.846 -0.2608  0.5239  0.5111
 1427TIP3    H125840   4.203   5.227   2.763  0.7444 -0.8387 -0.5263
 1427TIP3    H225841   4.149   5.183   2.897 -0.6876  2.3486  0.0282
 1428TIP3   OH225842   3.348   0.170   2.912 -0.8359 -0.0634 -0.3268
 1428TIP3    H125843   3.404   0.234   2.956 -0.6257 -0.0347 -0.6291
 1428TIP3    H225844   3.383   0.085   2.939 -0.7198 -0.0462 -0.4221
 1429TIP3   OH225845   6.127   1.213   3.193  0.4591  0.0714 -0.1727
 1429TIP3    H125846   6.091   1.300   3.207 -0.5219 -0.3007 -0.2975
 1429TIP3    H225847   6.178   1.220   3.112 -2.2018 -0.1936 -1.9763
 1430TIP3   OH225848   3.837   4.676   1.275  0.1256  0.2839 -0.2254
 1430TIP3    H125849   3.861   4.682   1.183 -1.2733 -1.1229 -0.7231
 1430TIP3    H225850   3.753   4.630   1.276  0.5139 -0.5093  1.8115
 1431TIP3   OH225851   3.319   4.012   8.828  0.0400 -0.1560 -0.1257
 1431TIP3    H125852   3.352   4.099   8.806 -2.0850  0.2447 -2.0273
 1431TIP3    H225853   3.258   4.027   8.900 -0.2792 -0.0816 -0.4119
 1432TIP3   OH225854   3.591   3.497   1.390 -0.5187 -0.2431  0.2970
 1432TIP3    H125855   3.659   3.553   1.429 -1.2447  1.1258 -0.3247
 1432TIP3    H225856   3.581   3.425   1.452  1.7337 -0.6766  0.2278
 1433TIP3   OH225857   0.981   6.586   1.945 -0.0569 -0.0795  0.3205
 1433TIP3    H125858   1.007   6.516   2.005  0.0703 -0.3049  0.0041
 1433TIP3    H225859   1.040   6.577   1.870  0.8061  1.1374  0.8024
 1434TIP3   OH225860   5.525   2.476   0.867 -0.0418 -0.2363 -0.3495
 1434TIP3    H125861   5.479   2.544   0.917 -0.9112 -1.9730  1.3504
 1434TIP3    H225862   5.604   2.519   0.836  0.3279  1.1411  2.1948
 1435TIP3   OH225863   3.256   4.444   1.635  0.3115  0.1788 -0.8062
 1435TIP3    H125864   3.194   4.435   1.707  0.9391  1.2127 -0.1214
 1435TIP3    H225865   3.223   4.517   1.583  1.8693  1.9603  0.5724
 1436TIP3   OH225866   1.536   0.994   7.869  0.0789  0.0634  0.1062
 1436TIP3    H125867   1.613   0.940   7.851 -0.4912 -0.3484 -1.2327
 1436TIP3    H225868   1.495   1.005   7.783 -0.5123  1.5726  0.5620
 1437TIP3   OH225869   2.526   1.554   7.816 -0.3123  0.3604  0.6515
 1437TIP3    H125870   2.509   1.470   7.773  1.7264  0.0669  0.3490
 1437TIP3    H225871   2.475   1.617   7.764  0.9252 -0.1927 -1.3663
 1438TIP3   OH225872   2.139   2.722   2.060 -0.2911  0.0296  0.8222
 1438TIP3    H125873   2.192   2.688   2.132 -0.0109 -1.5606 -0.0992
 1438TIP3    H225874   2.120   2.646   2.005 -1.5874  0.9698 -0.1160
 1439TIP3   OH225875   0.285   2.751   1.485  0.2873  0.2651  0.0560
 1439TIP3    H125876   0.285   2.656   1.486  1.2904  0.2583  0.2572
 1439TIP3    H225877   0.266   2.774   1.394  0.8195 -0.1353 -0.1567
 1440TIP3   OH225878   4.272   5.485   0.006 -0.9949  0.2847 -0.2141
 1440TIP3    H125879   4.268   5.480  -0.090  1.2745  3.4295 -0.6561
 1440TIP3    H225880   4.243   5.574   0.026 -1.0856 -0.2031  2.0143
 1441TIP3   OH225881   0.546   1.480   1.148 -0.1050 -0.6920  0.1116
 1441TIP3    H125882   0.636   1.488   1.179 -0.1978  1.0251  0.0425
 1441TIP3    H225883   0.510   1.406   1.196  0.4721  0.4125  2.3545
 1442TIP3   OH225884   0.790   5.742   0.704 -0.1319  0.4467 -0.4161
 1442TIP3    H125885   0.771   5.658   0.746  0.0883  0.6186  0.0285
 1442TIP3    H225886   0.874   5.727   0.660  1.4404  1.2725  2.0859
 1443TIP3   OH225887   5.289   6.257   1.173  0.0757  0.5155  0.2748
 1443TIP3    H125888   5.241   6.184   1.212 -2.4329  1.7563 -0.3376
 1443TIP3    H225889   5.272   6.331   1.232  1.3249  0.9948  0.0624
 1444TIP3   OH225890   3.766   2.455   0.926  0.0251  0.1189 -0.0788
 1444TIP3    H125891   3.739   2.526   0.868  2.0950  0.3607 -0.8333
 1444TIP3    H225892   3.778   2.380   0.867 -0.5641 -0.4273  0.4793
 1445TIP3   OH225893   2.253   6.744   2.417  0.4763 -0.0307 -0.4657
 1445TIP3    H125894   2.286   6.811   2.476  2.4679 -0.9092 -0.5078
 1445TIP3    H225895   2.229   6.671   2.474 -1.5085  0.5836 -0.4351
 1446TIP3   OH225896   2.336   1.651   8.817  0.2144 -0.1849 -0.4837
 1446TIP3    H125897   2.290   1.622   8.739 -0.4398 -0.6460  0.0551
 1446TIP3    H225898   2.421   1.607   8.813  0.0072 -0.5690 -0.7071
 1447TIP3   OH225899   2.206   1.947   7.472 -0.3223 -0.2622 -0.0029
 1447TIP3    H125900   2.199   2.021   7.413  1.9749 -0.9679 -1.2613
 1447TIP3    H225901   2.266   1.976   7.540  0.1221 -0.7530 -0.1792
 1448TIP3   OH225902   0.597   1.787   8.371  0.2460 -0.7643  0.0735
 1448TIP3    H125903   0.680   1.746   8.393  1.9074  1.8377 -0.9501
 1448TIP3    H225904   0.572   1.746   8.288 -0.1961 -2.4323  0.9872
 1449TIP3   OH225905   5.066   1.049   8.643 -0.1284 -0.1972  0.4684
 1449TIP3    H125906   5.085   1.027   8.551 -0.1174  0.4778  0.3089
 1449TIP3    H225907   4.985   1.003   8.662  0.3247 -1.0521  0.3884
 1450TIP3   OH225908   4.092   3.084   0.824 -0.4803  0.0266 -0.1348
 1450TIP3    H125909   4.151   3.088   0.898  0.3489 -1.7227 -0.6555
 1450TIP3    H225910   4.106   3.168   0.778 -1.0896  1.1769  1.6725
 1451TIP3   OH225911   0.772   2.216   2.131  0.1930 -0.0364 -0.4225
 1451TIP3    H125912   0.863   2.220   2.101  0.2299 -0.5667 -0.3987
 1451TIP3    H225913   0.727   2.280   2.077  0.6991  0.7016  0.0166
 1452TIP3   OH225914   6.478   0.361   2.438 -0.4033 -0.2082  0.4150
 1452TIP3    H125915   6.514   0.438   2.481  0.0875  0.0631 -0.4542
 1452TIP3    H225916   6.389   0.386   2.414 -0.1355  0.2087 -0.1544
 1453TIP3   OH225917   5.975   1.035   1.252 -0.0191  0.4307 -0.3097
 1453TIP3    H125918   5.920   1.011   1.177 -0.7910 -0.5004  0.5316
 1453TIP3    H225919   6.002   0.951   1.289  2.0260  0.8580 -0.7165
 1454TIP3   OH225920   4.163   2.825   6.827 -0.1421 -0.3969 -0.1292
 1454TIP3    H125921   4.111   2.804   6.750  0.9719  0.2901 -1.1030
 1454TIP3    H225922   4.208   2.743   6.848 -0.8491 -0.7291  0.1338
 1455TIP3   OH225923   2.765   1.031   7.960  0.2128  0.8037  0.5732
 1455TIP3    H125924   2.679   1.060   7.929 -0.1554 -0.1559  0.6638
 1455TIP3    H225925   2.756   1.030   8.055  0.5782  1.4482  0.6177
 1456TIP3   OH225926   4.959   5.387   0.000  0.2689 -0.3483  0.2321
 1456TIP3    H125927   4.922   5.443  -0.069  2.2669  1.3374  0.4328
 1456TIP3    H225928   4.979   5.448   0.072  0.0540 -1.7673  1.5531
 1457TIP3   OH225929   4.294   1.340   7.925  0.2959 -0.4416 -0.1566
 1457TIP3    H125930   4.326   1.418   7.970 -0.4619  0.0256 -0.4100
 1457TIP3    H225931   4.227   1.373   7.865  0.0973 -1.2665 -0.3961
 1458TIP3   OH225932   0.830   0.790   0.802  0.7526  0.1877 -0.0726
 1458TIP3    H125933   0.891   0.817   0.733  1.2061 -0.0503  0.2328
 1458TIP3    H225934   0.882   0.790   0.882  0.0873  1.0558  0.3830
 1459TIP3   OH225935   1.159   2.836   8.169  0.4233  0.2619  0.5337
 1459TIP3    H125936   1.235   2.824   8.113  0.2969  1.3561  0.1166
 1459TIP3    H225937   1.171   2.921   8.211  0.9972 -0.9321  2.9713
 1460TIP3   OH225938   1.406   5.834   0.938 -0.0367 -0.2884 -0.2173
 1460TIP3    H125939   1.428   5.916   0.982  1.8766 -0.5709 -0.5282
 1460TIP3    H225940   1.457   5.836   0.857 -0.3774 -1.5344 -0.4823
 1461TIP3   OH225941   0.615   2.218   1.384  0.2187  0.0781 -0.0198
 1461TIP3    H125942   0.541   2.279   1.391  0.3568  0.4288 -1.2932
 1461TIP3    H225943   0.574   2.133   1.369  0.0563  0.2435 -0.5517
 1462TIP3   OH225944   3.818   1.677   8.394  0.1180 -0.7234 -0.0948
 1462TIP3    H125945   3.723   1.681   8.404  0.0150 -0.2987 -1.1219
 1462TIP3    H225946   3.848   1.765   8.418  0.4969 -1.4088  2.2394
 1463TIP3   OH225947   0.891   0.514   8.558 -0.2632  0.1512  0.2512
 1463TIP3    H125948   0.829   0.488   8.490 -1.3026  0.9236  0.8694
 1463TIP3    H225949   0.844   0.501   8.640  0.9965 -0.8281  0.8596
 1464TIP3   OH225950   3.345   3.451   8.782  0.3263 -0.1747 -0.0611
 1464TIP3    H125951   3.394   3.418   8.706  0.7610  1.9909 -0.8064
 1464TIP3    H225952   3.412   3.470   8.847  0.2093  0.3451 -0.0909
 1465TIP3   OH225953   4.794   1.574   2.104  0.3315  0.9900 -0.4147
 1465TIP3    H125954   4.853   1.539   2.171  0.8401  0.9924 -0.8577
 1465TIP3    H225955   4.792   1.507   2.035 -0.7314  0.6688 -0.1020
 1466TIP3   OH225956   6.531   6.502   0.782 -0.2860 -0.2162  0.4541
 1466TIP3    H125957   6.449   6.502   0.733 -0.7102 -0.5005  1.1544
 1466TIP3    H225958   6.592   6.552   0.727 -0.6437 -0.8487 -0.5351
 1467TIP3   OH225959   1.932   2.052   6.996 -0.4259 -0.0380  0.0342
 1467TIP3    H125960   1.895   2.051   7.084  0.7150  2.6216  0.6419
 1467TIP3    H225961   2.012   2.104   7.004 -0.2179  0.1839 -2.5552
 1468TIP3   OH225962   4.989   5.909   7.209 -0.2586  0.9112 -0.2276
 1468TIP3    H125963   4.945   5.884   7.127 -0.9312 -0.0408  0.3962
 1468TIP3    H225964   5.031   5.828   7.238 -0.0797  1.2275  0.4033
 1469TIP3   OH225965   5.032   5.439   1.499  0.1879 -0.0090  0.1147
 1469TIP3    H125966   5.015   5.347   1.482  0.1986 -0.0781  0.4572
 1469TIP3    H225967   4.984   5.458   1.579  0.9047  0.0476  0.5477
 1470TIP3   OH225968   4.059   4.537   8.071  0.1521 -0.8484 -0.1100
 1470TIP3    H125969   4.082   4.584   8.151 -0.7787  0.2324 -0.4360
 1470TIP3    H225970   4.140   4.536   8.020  0.1807  0.5670 -0.1486
 1471TIP3   OH225971   0.306   5.371   0.499 -0.2142 -0.5013  0.1972
 1471TIP3    H125972   0.359   5.323   0.436  1.4602  2.1986 -0.6468
 1471TIP3    H225973   0.240   5.417   0.445  1.2831  1.8950  0.2494
 1472TIP3   OH225974   1.280   6.791   1.678 -0.4720 -0.2945 -0.1727
 1472TIP3    H125975   1.200   6.840   1.661  1.2758  2.8696  0.0257
 1472TIP3    H225976   1.272   6.764   1.770 -1.0536  0.5182  0.0311
 1473TIP3   OH225977   2.706   3.155   8.839  0.3443  0.5884  0.4860
 1473TIP3    H125978   2.692   3.134   8.747 -0.3581  2.1850  0.1887
 1473TIP3    H225979   2.713   3.251   8.841  0.6129  0.5677  2.0573
 1474TIP3   OH225980   0.930   4.448   2.375  0.0203 -0.3985 -0.1239
 1474TIP3    H125981   0.938   4.543   2.364 -1.3953 -0.2032  0.3327
 1474TIP3    H225982   0.963   4.412   2.292 -2.7764  0.6692 -1.8677
 1475TIP3   OH225983   0.153   2.567   2.891 -0.4850  0.1254 -0.1688
 1475TIP3    H125984   0.114   2.496   2.942 -0.3499  0.3487  0.2505
 1475TIP3    H225985   0.105   2.566   2.808 -1.1532  0.1792  0.2087
 1476TIP3   OH225986   0.550   6.700   0.799  0.2157  0.1843 -0.1610
 1476TIP3    H125987   0.529   6.619   0.753 -0.8680  0.8336 -0.8593
 1476TIP3    H225988   0.643   6.694   0.819 -0.0554 -1.6706  0.7127
 1477TIP3   OH225989   3.425   0.677   8.724 -0.0956 -0.7841  0.4944
 1477TIP3    H125990   3.483   0.699   8.796  0.9542 -0.7537 -0.3378
 1477TIP3    H225991   3.481   0.676   8.647 -1.3628  0.2122 -0.5042
 1478TIP3   OH225992   0.053   5.678   2.243  0.0772  0.5025 -0.7734
 1478TIP3    H125993  -0.010   5.640   2.303 -0.0109  0.0726 -1.1380
 1478TIP3    H225994   0.133   5.628   2.257 -0.2283 -0.2805 -1.7361
 1479TIP3   OH225995   0.138   2.422   0.416 -0.8612 -0.4979 -0.6099
 1479TIP3    H125996   0.148   2.342   0.469  0.8522  0.2167  0.2302
 1479TIP3    H225997   0.211   2.418   0.354  0.2456  1.1467  0.4991
 1480TIP3   OH225998   3.001   1.874   0.828 -0.7745  0.2256 -0.1703
 1480TIP3    H125999   3.073   1.848   0.771 -0.8336  1.1394 -0.6762
 1480TIP3    H226000   3.036   1.864   0.917 -0.5294 -0.7569 -0.3665
 1481TIP3   OH226001   0.140   5.928   2.414 -0.1395  0.2085  0.1991
 1481TIP3    H126002   0.074   5.861   2.434  0.4036 -0.5777 -0.5901
 1481TIP3    H226003   0.162   5.914   2.322  1.2351  0.3628  0.4820
 1482TIP3   OH226004   4.362   4.814   8.771  0.1628  0.2541  0.1029
 1482TIP3    H126005   4.396   4.874   8.705 -0.0173  0.3953  0.1362
 1482TIP3    H226006   4.349   4.870   8.848 -0.1567  0.2030  0.0853
 1483TIP3   OH226007   5.335   3.723   2.338  0.3010  0.6636 -0.6259
 1483TIP3    H126008   5.318   3.764   2.254  1.5329 -0.9026 -1.6968
 1483TIP3    H226009   5.285   3.641   2.335  1.2685  0.0502 -0.3141
 1484TIP3   OH226010   5.968   0.597   1.969 -0.7637 -0.1574  0.0309
 1484TIP3    H126011   6.039   0.635   1.916 -0.4096 -0.7924  0.0328
 1484TIP3    H226012   5.967   0.505   1.943 -2.0082 -0.0310 -0.4205
 1485TIP3   OH226013   0.708   1.844   8.736 -0.3745 -0.2842 -0.2357
 1485TIP3    H126014   0.650   1.770   8.753  0.2954 -0.8923 -0.5466
 1485TIP3    H226015   0.717   1.888   8.821  0.8496 -1.7560  0.4393
 1486TIP3   OH226016   1.007   2.590   2.592 -0.0171  0.5333  0.1340
 1486TIP3    H126017   1.007   2.507   2.543 -1.0506 -0.2503  1.4044
 1486TIP3    H226018   1.029   2.565   2.682  1.5515  1.9091  0.1869
 1487TIP3   OH226019   5.696   0.357   1.743  0.6251 -0.0960  0.0317
 1487TIP3    H126020   5.691   0.447   1.712 -1.0845 -0.2756 -0.3057
 1487TIP3    H226021   5.789   0.343   1.762  0.7894  2.0335  1.0555
 1488TIP3   OH226022   5.164   4.296   8.774  0.7052 -0.0745  0.0906
 1488TIP3    H126023   5.136   4.238   8.703  0.5947  0.4925 -0.3382
 1488TIP3    H226024   5.244   4.337   8.741 -0.2291  1.4461 -0.4238
 1489TIP3   OH226025   5.826   3.218   1.316  0.3097  0.1685  0.1229
 1489TIP3    H126026   5.891   3.197   1.382  0.6628  1.5988  0.2745
 1489TIP3    H226027   5.843   3.157   1.245 -1.1085 -2.4865  1.9243
 1490TIP3   OH226028   1.952   1.477   1.459  0.1561  0.1212  0.1586
 1490TIP3    H126029   1.883   1.518   1.407 -2.6653 -2.4251  1.5902
 1490TIP3    H226030   2.025   1.465   1.397  0.0130  4.1610 -1.0731
 1491TIP3   OH226031   6.514   2.524   0.111 -0.1003  0.1606 -0.1155
 1491TIP3    H126032   6.579   2.562   0.170 -1.0358  0.1070  0.9926
 1491TIP3    H226033   6.477   2.451   0.161 -0.4057 -0.3495 -1.0677
 1492TIP3   OH226034   0.827   2.959   8.336  0.0421 -0.0687 -0.2473
 1492TIP3    H126035   0.847   3.051   8.319 -2.5729  0.0781 -3.3704
 1492TIP3    H226036   0.806   2.956   8.429  0.7101  2.3478  0.0483
 1493TIP3   OH226037   6.394   6.599   2.060 -0.0427  0.1075  0.6246
 1493TIP3    H126038   6.450   6.582   2.136 -0.0256 -1.0008  0.3843
 1493TIP3    H226039   6.453   6.635   1.994  0.2746 -0.4526  0.5934
 1494TIP3   OH226040   0.705   1.994   8.486  0.8652 -0.4268  0.0630
 1494TIP3    H126041   0.694   1.968   8.577 -2.6421  2.7470  0.8140
 1494TIP3    H226042   0.645   1.938   8.437  0.7929 -0.4019  0.1229
 1495TIP3   OH226043   4.811   1.073   1.139  0.4616 -0.0756 -0.1445
 1495TIP3    H126044   4.719   1.046   1.145  0.6059 -0.3544  1.0812
 1495TIP3    H226045   4.831   1.108   1.226  1.3475  0.5560 -0.5889
 1496TIP3   OH226046   2.032   5.183   1.487  0.0186 -0.1769  0.0937
 1496TIP3    H126047   2.064   5.223   1.406  1.2533  0.6572  0.9538
 1496TIP3    H226048   1.996   5.256   1.537 -1.4110 -0.8008  0.0197
 1497TIP3   OH226049   6.776   0.079   0.565 -0.2121  0.1908 -0.2547
 1497TIP3    H126050   6.736   0.095   0.650 -0.5520 -1.0005 -0.1866
 1497TIP3    H226051   6.851   0.139   0.563  0.0452 -0.0507  1.0520
 1498TIP3   OH226052   5.687   5.097   7.718  0.3381  0.0555  0.3911
 1498TIP3    H126053   5.671   5.016   7.670  0.7641 -0.0401  0.4041
 1498TIP3    H226054   5.602   5.141   7.721  0.4021  0.3025 -0.8706
 1499TIP3   OH226055   0.056   0.999   0.550  0.0095  0.0855  0.1914
 1499TIP3    H126056  -0.013   1.030   0.608  0.9316  1.8993  0.3878
 1499TIP3    H226057   0.133   0.990   0.607  0.2286 -0.8389 -0.2293
 1500TIP3   OH226058   4.669   1.767   2.265  0.0843 -0.0029  0.2400
 1500TIP3    H126059   4.600   1.727   2.319  0.0827  1.1826  1.1440
 1500TIP3    H226060   4.750   1.751   2.313 -0.2141  3.6604  2.3097
 1501TIP3   OH226061   0.578   3.455   8.762 -0.3451  0.1149 -0.5296
 1501TIP3    H126062   0.523   3.513   8.814 -1.2451  0.1155 -1.4474
 1501TIP3    H226063   0.666   3.493   8.769 -0.1854 -0.5908  1.9561
 1502TIP3   OH226064   5.002   1.355   0.492 -0.0878 -0.2212  0.0235
 1502TIP3    H126065   4.934   1.347   0.560  0.5817  0.0464  0.7411
 1502TIP3    H226066   5.060   1.423   0.525  0.9295 -0.9524 -0.2191
 1503TIP3   OH226067   3.770   4.801   0.289  0.0772  0.1715 -0.4104
 1503TIP3    H126068   3.826   4.840   0.357  2.4837  0.0484 -2.1981
 1503TIP3    H226069   3.712   4.873   0.262  1.6256  1.3280 -0.7667
 1504TIP3   OH226070   3.467   4.357   1.509  0.5451  0.4964  0.4650
 1504TIP3    H126071   3.396   4.388   1.565  1.7076  1.6185  1.4218
 1504TIP3    H226072   3.528   4.431   1.507  1.6243 -0.3879 -0.4051
 1505TIP3   OH226073   6.368   0.307   0.788 -0.1345  0.6256  0.4735
 1505TIP3    H126074   6.306   0.328   0.859  0.7699  1.6539  0.9890
 1505TIP3    H226075   6.378   0.212   0.792 -2.1294  0.3525 -0.0212
 1506TIP3   OH226076   1.348   2.503   1.636 -0.3310  0.0895  0.3131
 1506TIP3    H126077   1.307   2.457   1.709  0.2750 -1.5230 -0.3008
 1506TIP3    H226078   1.441   2.483   1.645 -0.4030 -1.6485 -1.8115
 1507TIP3   OH226079   6.048   3.898   0.415 -0.2520  0.3402 -0.3892
 1507TIP3    H126080   6.088   3.927   0.333 -0.4700  0.3227 -0.5017
 1507TIP3    H226081   5.995   3.973   0.443  1.5829  1.2301  0.9087
 1508TIP3   OH226082   1.948   5.832   2.677 -0.2394  0.7322  0.2180
 1508TIP3    H126083   1.973   5.744   2.704  0.1782  0.7134 -0.2068
 1508TIP3    H226084   1.926   5.877   2.759  0.3775  0.4907  0.5265
 1509TIP3   OH226085   6.419   4.592   8.088 -0.5041 -0.2269 -0.1281
 1509TIP3    H126086   6.411   4.664   8.151  0.7492 -0.1816  0.0035
 1509TIP3    H226087   6.345   4.604   8.029  0.7712  2.4153 -1.3693
 1510TIP3   OH226088   6.173   2.924   8.303  0.3399 -0.3687 -0.2606
 1510TIP3    H126089   6.125   2.973   8.237 -0.0212  1.8245  1.4872
 1510TIP3    H226090   6.107   2.903   8.370  1.3875  1.2516  1.3942
 1511TIP3   OH226091   4.863   3.693   1.282 -0.6972 -0.2678 -0.1971
 1511TIP3    H126092   4.858   3.721   1.191  0.8339  2.1636  0.3790
 1511TIP3    H226093   4.803   3.750   1.329 -1.0152 -1.0953  0.4319
 1512TIP3   OH226094   5.552   2.586   7.691 -0.3748  0.2405 -0.0427
 1512TIP3    H126095   5.588   2.518   7.634 -3.3778 -0.8371 -0.8354
 1512TIP3    H226096   5.569   2.555   7.779  0.4694 -0.2764 -0.3741
 1513TIP3   OH226097   1.420   3.548   2.360  0.4632  0.2202 -0.1861
 1513TIP3    H126098   1.420   3.594   2.276 -1.6564 -0.7050 -0.7633
 1513TIP3    H226099   1.427   3.456   2.337 -0.7865 -0.0931  0.5664
 1514TIP3   OH226100   5.680   1.301   8.273  0.0755  0.1339  0.4115
 1514TIP3    H126101   5.656   1.213   8.301 -0.7498 -0.0056 -0.6389
 1514TIP3    H226102   5.706   1.290   8.181  0.4215  0.9090  0.4110
 1515TIP3   OH226103   5.543   5.699   2.559 -0.4024 -0.6654 -0.3738
 1515TIP3    H126104   5.595   5.651   2.623  1.3273  0.4778 -0.8610
 1515TIP3    H226105   5.494   5.763   2.610  1.5227  0.7354 -0.2131
 1516TIP3   OH226106   0.113   2.906   1.881  0.0153 -0.0832  0.8477
 1516TIP3    H126107   0.171   2.886   1.954  1.9827  0.7919 -0.4063
 1516TIP3    H226108   0.147   2.988   1.845 -0.5261 -0.7955 -1.4110
 1517TIP3   OH226109   4.739   5.222   3.184 -0.4211  0.2900  0.0624
 1517TIP3    H126110   4.804   5.163   3.221 -0.2631  0.0769 -0.5537
 1517TIP3    H226111   4.723   5.189   3.096 -2.7927 -0.8256  0.8474
 1518TIP3   OH226112   6.182   5.247   7.799  0.4745  0.2409 -0.1905
 1518TIP3    H126113   6.238   5.317   7.765  0.5574  0.1536 -0.2354
 1518TIP3    H226114   6.235   5.168   7.790 -0.0946 -0.0274 -1.3182
 1519TIP3   OH226115   2.482   3.478   1.020  0.2095 -0.1311  0.0007
 1519TIP3    H126116   2.388   3.486   1.035  0.4848 -1.0698  2.7974
 1519TIP3    H226117   2.511   3.568   1.003 -1.0543  0.3109  0.0794
 1520TIP3   OH226118   3.000   5.990   1.267 -0.4253  1.5186 -0.8152
 1520TIP3    H126119   2.980   6.045   1.342  0.6887  1.4737 -0.4627
 1520TIP3    H226120   3.062   6.042   1.215 -0.9483  1.4271 -1.5532
 1521TIP3   OH226121   1.580   5.869   1.304 -0.0277 -0.2010  0.4361
 1521TIP3    H126122   1.551   5.780   1.284 -1.2596 -0.0113  1.2371
 1521TIP3    H226123   1.673   5.870   1.281 -0.1752 -1.4607 -0.3092
 1522TIP3   OH226124   3.845   5.080   2.222  0.0766 -0.1368  0.3115
 1522TIP3    H126125   3.920   5.138   2.225  0.6176 -0.5928 -2.1047
 1522TIP3    H226126   3.836   5.057   2.130 -2.4877 -0.8236  0.6435
 1523TIP3   OH226127   0.626   4.315   7.623  0.0048 -0.5317 -0.1728
 1523TIP3    H126128   0.576   4.288   7.700 -0.3086 -1.6717 -0.7572
 1523TIP3    H226129   0.668   4.235   7.592  0.4030 -0.0203 -0.9800
 1524TIP3   OH226130   3.375   0.455   0.208 -0.2909 -0.0017  0.6576
 1524TIP3    H126131   3.336   0.487   0.127  0.1022  0.1781  0.5366
 1524TIP3    H226132   3.427   0.379   0.181 -0.8439 -0.4652  0.8731
 1525TIP3   OH226133   2.455   2.050   0.407  0.0654 -0.3099  0.0902
 1525TIP3    H126134   2.393   2.117   0.435  0.2731 -0.1786  0.2331
 1525TIP3    H226135   2.418   1.968   0.442 -2.2306 -0.8710 -3.2100
 1526TIP3   OH226136   0.720   4.598   2.789 -0.0708  0.5274 -0.2455
 1526TIP3    H126137   0.740   4.688   2.816  2.6278 -0.3858  1.2097
 1526TIP3    H226138   0.705   4.605   2.694 -0.3057  2.5438 -0.1146
 1527TIP3   OH226139   0.140   5.881   1.652  0.2211  0.0457 -0.1769
 1527TIP3    H126140   0.151   5.947   1.720  1.2718 -0.5110  0.2158
 1527TIP3    H226141   0.052   5.846   1.667  0.1568  0.4451  0.4343
 1528TIP3   OH226142   1.060   1.981   0.009  0.3873  0.6363  0.4355
 1528TIP3    H126143   1.020   1.917  -0.051  0.2139  0.0924  1.1204
 1528TIP3    H226144   1.102   1.928   0.076  0.5344  1.2452  0.8307
 1529TIP3   OH226145   0.874   6.400   8.718  0.2575 -0.4583 -0.4101
 1529TIP3    H126146   0.889   6.474   8.659 -2.9699 -1.1088 -2.2435
 1529TIP3    H226147   0.837   6.332   8.663 -0.6088 -2.0252  1.9401
 1530TIP3   OH226148   3.157   2.368   0.820 -0.0340  0.0165 -0.6945
 1530TIP3    H126149   3.214   2.409   0.754 -2.6152  0.3143 -2.9242
 1530TIP3    H226150   3.076   2.418   0.815 -1.3867 -1.9480  0.5358
 1531TIP3   OH226151   2.661   0.684   7.223  0.3535  0.1312  0.0424
 1531TIP3    H126152   2.601   0.714   7.292  1.0312  1.7311 -0.0118
 1531TIP3    H226153   2.689   0.765   7.180  0.0117 -0.8160 -2.0803
 1532TIP3   OH226154   0.022   5.069   2.084 -0.1819 -0.1118  0.7124
 1532TIP3    H126155  -0.047   5.022   2.038 -0.7763  0.4038  1.0528
 1532TIP3    H226156   0.103   5.043   2.040 -0.0824 -3.7816  2.7027
 1533TIP3   OH226157   5.712   2.331   2.022  0.2361 -0.0615 -0.1511
 1533TIP3    H126158   5.725   2.274   1.946 -0.9748 -2.4376  1.3071
 1533TIP3    H226159   5.775   2.300   2.086  2.5307  3.1070 -0.6517
 1534TIP3   OH226160   1.803   4.149   1.462 -0.1387 -0.5991  0.1995
 1534TIP3    H126161   1.795   4.244   1.452  0.4771 -0.4276  1.1708
 1534TIP3    H226162   1.833   4.137   1.552  3.0732 -1.5345 -0.8552
 1535TIP3   OH226163   6.488   2.948   0.221  0.2888  0.1131  0.7337
 1535TIP3    H126164   6.429   2.909   0.157 -0.2172  0.4289  1.0036
 1535TIP3    H226165   6.452   3.036   0.237  1.8584  1.0352 -0.4869
 1536TIP3   OH226166   2.500   1.559   6.710 -0.3596 -0.0502  0.3095
 1536TIP3    H126167   2.488   1.507   6.789 -1.5372  1.2198  0.9880
 1536TIP3    H226168   2.546   1.638   6.739  0.1481 -0.0424 -0.4733
 1537TIP3   OH226169   6.285   0.587   8.171  0.7297 -0.0741  0.2071
 1537TIP3    H126170   6.274   0.680   8.193  1.2124 -0.0859  0.5248
 1537TIP3    H226171   6.328   0.550   8.248  0.4616 -0.5815  0.1149
 1538TIP3   OH226172   3.089   2.538   0.084 -0.6042  0.4432  0.2690
 1538TIP3    H126173   3.007   2.538   0.133 -0.3932 -2.6339  0.8540
 1538TIP3    H226174   3.125   2.450   0.098  2.7503  1.6314 -0.0689
 1539TIP3   OH226175   2.604   0.007   1.135 -0.2451  0.0328  0.1074
 1539TIP3    H126176   2.544  -0.068   1.136 -0.6798  0.3844  0.6385
 1539TIP3    H226177   2.550   0.081   1.162  0.3723  0.3986  0.3527
 1540TIP3   OH226178   4.145   4.394   2.253 -0.1839 -0.1294 -0.4296
 1540TIP3    H126179   4.067   4.403   2.198 -0.7969 -3.1048 -0.1940
 1540TIP3    H226180   4.202   4.335   2.205 -0.2436 -1.8928  1.5277
 1541TIP3   OH226181   1.480   6.050   1.117  0.2358 -0.2082  0.1253
 1541TIP3    H126182   1.504   5.980   1.178  0.0103 -1.0724 -0.7372
 1541TIP3    H226183   1.427   6.110   1.169  0.0254 -0.9350  0.7815
 1542TIP3   OH226184   0.776   2.436   2.820  0.5171  0.0277 -0.3673
 1542TIP3    H126185   0.768   2.525   2.856  1.4570  0.5291 -1.3328
 1542TIP3    H226186   0.871   2.422   2.815  0.3728 -0.7992 -0.8041
 1543TIP3   OH226187   6.721   6.620   8.844  0.3199  0.1628  0.2957
 1543TIP3    H126188   6.646   6.617   8.785  0.7729  1.4898 -0.3812
 1543TIP3    H226189   6.786   6.563   8.803 -0.0213 -0.3517  0.4651
 1544TIP3   OH226190   3.337   4.022   8.277 -0.3370  0.2903 -0.1406
 1544TIP3    H126191   3.414   3.974   8.247 -0.4558 -0.3896  0.6186
 1544TIP3    H226192   3.337   4.011   8.372 -0.5694  1.5052  0.0162
 1545TIP3   OH226193   1.499   4.101   1.726  0.3959  0.5499  0.5843
 1545TIP3    H126194   1.418   4.058   1.755  0.9042 -0.8475  0.0137
 1545TIP3    H226195   1.515   4.066   1.639  0.6755  2.1869 -0.0542
 1546TIP3   OH226196   5.170   1.955   0.633 -0.1173 -0.3869  0.4225
 1546TIP3    H126197   5.251   1.911   0.605  0.4481  1.1349 -0.4396
 1546TIP3    H226198   5.100   1.898   0.602  0.5795 -0.3427 -1.3299
 1547TIP3   OH226199   0.841   2.893   6.037  0.3243  0.1660  0.2900
 1547TIP3    H126200   0.911   2.929   6.092 -0.5326  1.1605  0.7550
 1547TIP3    H226201   0.766   2.884   6.095  0.4781 -2.4574  0.2078
 1548TIP3   OH226202   6.419   6.098   1.605  0.1240  0.4898 -0.4977
 1548TIP3    H126203   6.424   6.145   1.522  1.2362  1.7902  0.2593
 1548TIP3    H226204   6.510   6.080   1.628 -0.2292 -1.1055 -0.2187
 1549TIP3   OH226205   1.380   0.538   8.477  0.4145  0.0384 -0.4272
 1549TIP3    H126206   1.326   0.552   8.554  0.1327  0.3467 -0.6756
 1549TIP3    H226207   1.393   0.443   8.473  0.6730  0.0503  0.1590
 1550TIP3   OH226208   2.012   5.099   2.440 -0.4191  0.0945 -0.2190
 1550TIP3    H126209   2.063   5.125   2.516 -0.1578 -1.3324  0.1258
 1550TIP3    H226210   1.934   5.057   2.476 -0.1843 -0.8000 -0.7220
 1551TIP3   OH226211   3.515   6.283   8.838 -0.0592  0.1948 -0.1337
 1551TIP3    H126212   3.517   6.304   8.931  1.1038 -2.2751  0.4688
 1551TIP3    H226213   3.429   6.244   8.824 -0.0111  0.0222  0.0483
 1552TIP3   OH226214   5.073   0.191   0.156  0.2818  0.0219  0.9479
 1552TIP3    H126215   4.993   0.139   0.156  0.4283 -0.2630  2.6581
 1552TIP3    H226216   5.066   0.246   0.234  1.1052  1.0561  0.3343
 1553TIP3   OH226217   3.416   1.092   1.586  0.5534 -0.0169  0.4049
 1553TIP3    H126218   3.480   1.145   1.632 -1.4590  2.1533  0.9118
 1553TIP3    H226219   3.359   1.057   1.655 -0.7309  0.8424 -0.1631
 1554TIP3   OH226220   2.675   5.398   8.668  0.2297 -0.3033 -0.4633
 1554TIP3    H126221   2.749   5.455   8.646  0.1863 -0.3521 -0.7398
 1554TIP3    H226222   2.697   5.363   8.754  0.2470  0.1491 -0.2771
 1555TIP3   OH226223   0.411   0.971   2.182 -0.0521  0.0937 -0.0698
 1555TIP3    H126224   0.367   1.006   2.105  0.5483  0.6884 -0.1540
 1555TIP3    H226225   0.355   0.899   2.212 -0.7161  0.4019 -0.5643
 1556TIP3   OH226226   1.102   3.490   1.333 -0.0008 -0.2322 -0.0677
 1556TIP3    H126227   1.117   3.561   1.271  0.3067 -1.5036 -1.5355
 1556TIP3    H226228   1.103   3.411   1.278 -1.0122 -1.3052  1.4001
 1557TIP3   OH226229   3.479   5.695   2.332 -0.2072 -0.2394  0.5268
 1557TIP3    H126230   3.528   5.722   2.255  2.1457 -1.6737  1.3888
 1557TIP3    H226231   3.414   5.764   2.346 -0.3856  0.2880 -2.3956
 1558TIP3   OH226232   6.109   3.458   0.547  0.1569  0.4179  0.0784
 1558TIP3    H126233   6.037   3.401   0.519  0.2245 -0.3770  1.3930
 1558TIP3    H226234   6.066   3.538   0.578 -0.0994  0.2855  0.0707
 1559TIP3   OH226235   2.108   4.419   7.984  0.1632 -0.0827  0.9378
 1559TIP3    H126236   2.055   4.372   7.920 -0.5579  0.3215  1.2309
 1559TIP3    H226237   2.186   4.364   7.995  0.9309  0.4700 -1.2251
 1560TIP3   OH226238   6.479   3.691   2.770 -0.1725 -0.3868 -0.4952
 1560TIP3    H126239   6.391   3.718   2.796 -0.1789 -1.4304  0.6841
 1560TIP3    H226240   6.485   3.599   2.796  0.8668 -0.6734 -1.6348
 1561TIP3   OH226241   3.975   3.705   8.459  0.0219  0.4394  0.1413
 1561TIP3    H126242   4.055   3.684   8.508  0.4810  0.2702 -0.6658
 1561TIP3    H226243   3.904   3.679   8.517  0.5440  1.0200  1.0656
 1562TIP3   OH226244   1.842   3.323   8.286  0.4383 -0.1657  0.5280
 1562TIP3    H126245   1.789   3.366   8.220  2.0146  1.5054  0.2929
 1562TIP3    H226246   1.924   3.300   8.242  0.1493 -2.3539  0.9803
 1563TIP3   OH226247   6.012   3.404   1.637  0.1983 -0.2048 -0.1007
 1563TIP3    H126248   6.022   3.336   1.571 -1.3714 -0.0007 -0.6105
 1563TIP3    H226249   6.009   3.357   1.720 -0.1454 -0.6996 -0.3856
 1564TIP3   OH226250   6.483   3.885   0.515 -0.1467 -0.2598 -0.4306
 1564TIP3    H126251   6.426   3.939   0.460  0.2129 -0.8374 -1.3951
 1564TIP3    H226252   6.490   3.802   0.468 -0.8473 -1.2365  1.1202
 1565TIP3   OH226253   0.993   2.894   0.000 -0.3834  0.4634  0.7185
 1565TIP3    H126254   0.996   2.805  -0.036 -1.5656  0.4644  0.5576
 1565TIP3    H226255   1.074   2.903   0.050 -0.5098 -0.9281  1.2217
 1566TIP3   OH226256   5.540   1.286   1.195  0.5109  0.1657  0.4702
 1566TIP3    H126257   5.612   1.317   1.250  0.7308 -0.6653  0.6528
 1566TIP3    H226258   5.474   1.356   1.201  0.9381  0.5340  0.9885
 1567TIP3   OH226259   1.588   6.174   8.220 -0.0617  0.0670  0.2098
 1567TIP3    H126260   1.671   6.147   8.259  1.3375 -0.4250 -2.7654
 1567TIP3    H226261   1.522   6.149   8.283  1.8029 -2.8214  1.2083
 1568TIP3   OH226262   4.039   5.170   1.355  0.7068 -0.0840  0.2256
 1568TIP3    H126263   4.129   5.161   1.388  0.3006 -0.0370  1.3601
 1568TIP3    H226264   3.997   5.231   1.415 -0.5113 -1.2162  0.5587
 1569TIP3   OH226265   1.446   6.465   0.879  0.0027  0.8769  0.1376
 1569TIP3    H126266   1.406   6.523   0.814 -1.5114 -0.3012 -0.0477
 1569TIP3    H226267   1.524   6.431   0.836 -1.0511  0.0031 -1.1618
 1570TIP3   OH226268   1.034   0.505   1.241 -0.3395 -0.8625 -0.2129
 1570TIP3    H126269   0.990   0.424   1.212 -1.7016 -0.6535  1.1529
 1570TIP3    H226270   1.085   0.478   1.318 -1.9196 -0.2112  1.1245
 1571TIP3   OH226271   5.161   5.529   8.666 -0.1606 -0.7272  0.5683
 1571TIP3    H126272   5.086   5.581   8.639  1.1770 -0.3407 -2.8469
 1571TIP3    H226273   5.125   5.441   8.679 -1.3105 -0.4021 -0.2727
 1572TIP3   OH226274   4.523   0.140   1.757  0.2933  0.5735  0.5783
 1572TIP3    H126275   4.510   0.218   1.705  0.2215 -0.0709 -0.3939
 1572TIP3    H226276   4.616   0.118   1.746  0.0980 -0.0162  0.0627
 1573TIP3   OH226277   4.958   5.111   0.235 -0.2662  0.2554 -0.0330
 1573TIP3    H126278   5.011   5.156   0.301 -1.0875 -0.5634  1.2305
 1573TIP3    H226279   4.980   5.019   0.245 -1.4877 -0.0442  0.1406
 1574TIP3   OH226280   6.390   3.225   0.218 -0.6399 -0.4650 -0.7599
 1574TIP3    H126281   6.318   3.280   0.185 -0.6097  0.0976  0.0828
 1574TIP3    H226282   6.386   3.236   0.313  0.1532 -0.9508 -0.6671
 1575TIP3   OH226283   2.543   6.534   1.864 -0.1848 -0.0492 -0.1902
 1575TIP3    H126284   2.612   6.502   1.922  0.2966  0.5606 -0.4120
 1575TIP3    H226285   2.581   6.612   1.822 -0.8853  0.0983 -0.5692
 1576TIP3   OH226286   4.339   0.502   7.534  0.0389  0.0445  0.1469
 1576TIP3    H126287   4.256   0.516   7.580  0.1823 -1.0409  0.7796
 1576TIP3    H226288   4.370   0.417   7.566  1.7983  0.7739  0.5427
 1577TIP3   OH226289   0.061   5.133   1.259 -0.0023  0.0535  0.0554
 1577TIP3    H126290   0.014   5.109   1.339 -0.0934 -1.3139 -0.3908
 1577TIP3    H226291   0.145   5.167   1.290  1.2032 -3.1739  0.7251
 1578TIP3   OH226292   2.833   6.341   8.271 -0.3360 -0.3646  0.2057
 1578TIP3    H126293   2.901   6.286   8.311 -0.0647 -0.7286 -0.7339
 1578TIP3    H226294   2.769   6.279   8.237 -0.1274 -0.1045 -0.6907
 1579TIP3   OH226295   1.349   6.067   0.652  0.1878 -0.5298  0.1594
 1579TIP3    H126296   1.434   6.109   0.658 -0.0660 -0.0310  0.3500
 1579TIP3    H226297   1.358   6.004   0.580  0.7535 -0.5825  0.2750
 1580TIP3   OH226298   1.151   0.085   0.850  0.1623  0.0329  0.1175
 1580TIP3    H126299   1.161   0.150   0.919  0.6317 -0.1120  0.1947
 1580TIP3    H226300   1.059   0.062   0.851 -0.2790  1.5979 -0.7405
 1581TIP3   OH226301   3.209   1.001   7.522  0.0730  0.4482  0.7242
 1581TIP3    H126302   3.166   0.930   7.569  1.2866 -0.4360  0.5678
 1581TIP3    H226303   3.140   1.064   7.504 -1.1161 -0.8466  0.5784
 1582TIP3   OH226304   1.211   4.385   0.711 -0.1596 -0.1496  0.1947
 1582TIP3    H126305   1.204   4.332   0.791  1.8720 -1.0431 -0.1583
 1582TIP3    H226306   1.272   4.336   0.655  0.9706  2.0295 -0.5928
 1583TIP3   OH226307   3.370   6.543   1.628  0.0661  0.4454 -0.1497
 1583TIP3    H126308   3.380   6.514   1.538  1.3262  0.8230 -0.1432
 1583TIP3    H226309   3.456   6.577   1.653 -0.9075  2.7557  0.3413
 1584TIP3   OH226310   2.016   2.383   1.252  0.3868  0.2933  0.0161
 1584TIP3    H126311   1.960   2.329   1.196  1.1350 -0.8171  0.3219
 1584TIP3    H226312   1.967   2.466   1.261 -2.1155 -1.2155  1.7235
 1585TIP3   OH226313   6.311   1.538   8.738 -0.0052 -0.0092  0.0717
 1585TIP3    H126314   6.217   1.554   8.734  0.2163  1.4179  0.0745
 1585TIP3    H226315   6.322   1.478   8.812 -0.9654 -0.8199 -0.4115
 1586TIP3   OH226316   1.287   6.696   8.391  0.0255 -0.1279  0.3601
 1586TIP3    H126317   1.259   6.716   8.302 -1.2629 -0.1185  0.7337
 1586TIP3    H226318   1.205   6.691   8.441  0.7603  1.4926  1.8807
 1587TIP3   OH226319   3.469   1.527   7.163  0.3281 -0.2344  0.5950
 1587TIP3    H126320   3.447   1.471   7.088  1.1739  0.9116 -0.5528
 1587TIP3    H226321   3.386   1.543   7.206 -0.7203  1.5125 -1.8570
 1588TIP3   OH226322   5.391   6.656   7.634 -0.9674  0.5751  0.4294
 1588TIP3    H126323   5.368   6.748   7.621 -1.7952  0.0157 -2.8941
 1588TIP3    H226324   5.320   6.607   7.591 -0.2389 -1.6142  1.5842
 1589TIP3   OH226325   0.772   0.351   8.355 -0.5438  0.3541 -0.4119
 1589TIP3    H126326   0.828   0.277   8.378  0.6874  1.5037  0.4649
 1589TIP3    H226327   0.787   0.364   8.261  0.3929  0.4041 -0.2631
 1590TIP3   OH226328   4.021   3.899   7.743 -1.0899 -0.3988 -0.3680
 1590TIP3    H126329   4.075   3.872   7.818  2.5884  0.7725 -2.3541
 1590TIP3    H226330   4.004   3.819   7.694  0.5755 -0.5779 -0.6931
 1591TIP3   OH226331   2.997   6.426   1.528  0.0366  0.6349 -0.0279
 1591TIP3    H126332   3.075   6.380   1.495 -0.1558  1.4542 -1.7250
 1591TIP3    H226333   3.023   6.518   1.532  0.3192  0.5246  3.0522
 1592TIP3   OH226334   0.206   1.014   2.466 -0.9560 -0.5031 -0.0419
 1592TIP3    H126335   0.174   1.073   2.534  0.9303 -0.3813  0.8210
 1592TIP3    H226336   0.158   0.933   2.480  0.1665 -0.8619  2.2400
 1593TIP3   OH226337   6.355   2.122   8.536  0.5238  0.1271 -0.4613
 1593TIP3    H126338   6.388   2.032   8.537 -0.1617 -0.1303  0.1208
 1593TIP3    H226339   6.420   2.172   8.586 -0.1610 -0.4606  1.0787
 1594TIP3   OH226340   5.996   3.908   7.724 -0.2138  0.4314  0.2694
 1594TIP3    H126341   6.030   3.868   7.804 -0.8216 -1.5275 -0.3923
 1594TIP3    H226342   5.903   3.886   7.724 -0.3553  0.9739 -0.6556
 1595TIP3   OH226343   1.614   4.298   0.534  0.5460 -0.2175  0.1604
 1595TIP3    H126344   1.654   4.362   0.593  1.0332  0.4214 -0.8346
 1595TIP3    H226345   1.528   4.280   0.573  0.3915  1.0486  0.4468
 1596TIP3   OH226346   2.596   1.693   3.289  0.3086 -0.1541 -0.8747
 1596TIP3    H126347   2.572   1.609   3.250 -0.3105 -0.3043 -0.2034
 1596TIP3    H226348   2.535   1.756   3.250  0.5683 -0.0652 -1.1437
 1597TIP3   OH226349   5.357   1.820   8.249  0.1245  0.4571  0.2324
 1597TIP3    H126350   5.361   1.801   8.343  2.0599  1.4922  0.4246
 1597TIP3    H226351   5.400   1.905   8.240 -1.0134  0.8898 -1.4843
 1598TIP3   OH226352   3.922   1.600   1.199 -0.2058 -0.0050  0.2017
 1598TIP3    H126353   3.845   1.547   1.178 -0.2788 -0.1164  0.7316
 1598TIP3    H226354   3.996   1.550   1.165 -0.4306  0.6031 -1.2797
 1599TIP3   OH226355   0.786   5.741   8.863  0.3290 -0.4682  0.5348
 1599TIP3    H126356   0.879   5.752   8.845 -0.0522 -0.3555 -1.5394
 1599TIP3    H226357   0.778   5.652   8.897  0.9864 -1.0735 -0.8574
 1600TIP3   OH226358   0.895   3.474   6.363 -0.0318 -0.9846 -0.0758
 1600TIP3    H126359   0.946   3.511   6.435  0.6959 -1.1444 -0.4952
 1600TIP3    H226360   0.805   3.476   6.394  0.2844 -1.1919  0.9064
 1601TIP3   OH226361   1.436   3.234   1.624  0.3678 -0.1603  0.2594
 1601TIP3    H126362   1.492   3.311   1.616  0.0994  0.1006  0.8329
 1601TIP3    H226363   1.489   3.169   1.670  0.0908  0.2157  1.1389
 1602TIP3   OH226364   1.927   6.408   1.329  0.3019 -0.9160  0.1945
 1602TIP3    H126365   1.864   6.412   1.257  0.5569 -0.3788 -0.0063
 1602TIP3    H226366   1.878   6.439   1.406 -0.2848 -2.5054  0.4996
 1603TIP3   OH226367   4.153   1.568   2.941 -0.3560 -0.3470 -0.0711
 1603TIP3    H126368   4.239   1.526   2.954 -0.2257 -0.5468 -1.4283
 1603TIP3    H226369   4.163   1.655   2.979  0.1949 -0.6435  0.4904
 1604TIP3   OH226370   1.998   4.530   0.358  0.3780 -0.1738 -0.4493
 1604TIP3    H126371   2.054   4.480   0.417  1.2451  0.0642 -1.0341
 1604TIP3    H226372   1.949   4.589   0.415  0.1284 -0.9571  0.1483
 1605TIP3   OH226373   6.546   1.880   8.556  0.2707 -0.7133 -0.5248
 1605TIP3    H126374   6.626   1.933   8.550 -0.6630  0.6770 -1.1875
 1605TIP3    H226375   6.520   1.887   8.648 -0.3442  0.8086 -0.7797
 1606TIP3   OH226376   0.990   3.693   8.444 -0.0521 -0.1774 -0.0786
 1606TIP3    H126377   0.973   3.667   8.534  0.3534 -0.3771 -0.0535
 1606TIP3    H226378   0.971   3.786   8.441 -1.1943 -0.4032 -0.0819
 1607TIP3   OH226379   0.428   3.790   1.671  1.0284  0.2573 -0.5883
 1607TIP3    H126380   0.420   3.695   1.661  0.8410  0.3282 -1.1529
 1607TIP3    H226381   0.522   3.806   1.668  1.2713 -0.1763  2.2145
 1608TIP3   OH226382   4.339   6.545   8.737 -0.1964 -0.1475 -0.2015
 1608TIP3    H126383   4.300   6.469   8.694 -0.8821 -1.6954  2.9441
 1608TIP3    H226384   4.267   6.608   8.744  0.2510  0.7223 -2.3461
 1609TIP3   OH226385   5.250   5.209   8.365  0.3264 -0.0746  0.0526
 1609TIP3    H126386   5.280   5.241   8.450  2.2925 -0.8108 -0.3075
 1609TIP3    H226387   5.302   5.130   8.349 -1.4657 -1.1449 -0.9297
 1610TIP3   OH226388   3.736   1.605   7.686  0.2410 -0.6329  0.1632
 1610TIP3    H126389   3.679   1.654   7.627  1.3844  0.7914  0.1648
 1610TIP3    H226390   3.711   1.513   7.674 -1.2181 -0.1544 -0.6821
 1611TIP3   OH226391   5.668   0.535   2.596  0.2331 -0.2185  0.4389
 1611TIP3    H126392   5.685   0.443   2.579  1.2875 -0.1969  1.2511
 1611TIP3    H226393   5.726   0.557   2.668 -1.4432  0.5903  1.6028
 1612TIP3   OH226394   0.319   5.609   6.894 -0.0230  0.4321 -0.1726
 1612TIP3    H126395   0.352   5.691   6.931  0.9522 -0.5724  1.3412
 1612TIP3    H226396   0.362   5.541   6.947 -0.4315 -1.0607 -1.6922
 1613TIP3   OH226397   5.265   6.259   0.725 -0.2670  0.3941  0.5244
 1613TIP3    H126398   5.253   6.211   0.643 -0.8224  2.2561 -0.5300
 1613TIP3    H226399   5.355   6.290   0.722 -0.9424  2.3970 -0.5145
 1614TIP3   OH226400   6.310   1.572   7.839  0.3802  0.1176  0.2482
 1614TIP3    H126401   6.369   1.641   7.808  0.6203  0.4224  1.3532
 1614TIP3    H226402   6.349   1.541   7.921 -1.3685  0.8521  1.4243
 1615TIP3   OH226403   5.439   0.988   6.801  0.0551 -0.4973 -0.3176
 1615TIP3    H126404   5.414   0.918   6.860 -0.2889 -0.1564 -0.0547
 1615TIP3    H226405   5.359   1.011   6.754  0.4107 -1.0438 -1.2214
 1616TIP3   OH226406   5.192   3.226   0.221  0.3877  0.2048 -0.1945
 1616TIP3    H126407   5.160   3.277   0.296  0.9737  1.3502 -0.6882
 1616TIP3    H226408   5.198   3.290   0.150  1.0917 -0.5814 -0.8642
 1617TIP3   OH226409   1.856   2.157   7.692 -0.1452  0.0146 -0.1489
 1617TIP3    H126410   1.783   2.219   7.696  0.0012  0.1649  0.2249
 1617TIP3    H226411   1.895   2.160   7.779  1.4258  1.2640 -0.8625
 1618TIP3   OH226412   6.356   6.340   0.991  0.2063  0.4473 -1.2079
 1618TIP3    H126413   6.438   6.304   1.024 -0.6647 -0.4916  0.0227
 1618TIP3    H226414   6.383   6.407   0.927  1.9107  0.6188 -0.3597
 1619TIP3   OH226415   1.216   2.313   8.513  0.0263 -0.1579  0.2136
 1619TIP3    H126416   1.275   2.240   8.534 -0.9093 -0.8875  0.3892
 1619TIP3    H226417   1.161   2.279   8.443  0.7312  1.0162 -0.9661
 1620TIP3   OH226418   5.473   3.040   0.942 -0.5637  0.6740 -0.1761
 1620TIP3    H126419   5.504   3.064   1.029  0.5687 -0.7903 -0.1381
 1620TIP3    H226420   5.423   2.960   0.955 -0.0435  0.2178 -0.9154
 1621TIP3   OH226421   5.062   2.578   0.067 -0.8126 -0.8464  0.2839
 1621TIP3    H126422   5.026   2.573  -0.022 -2.1467  0.8149  0.6729
 1621TIP3    H226423   4.989   2.557   0.124 -0.1313 -1.2654  1.0166
 1622TIP3   OH226424   6.233   2.834   2.036 -0.5399 -0.4414  0.3062
 1622TIP3    H126425   6.267   2.792   1.956  1.3735 -1.7589  1.6999
 1622TIP3    H226426   6.219   2.761   2.097 -1.6405  0.5624  1.2937
 1623TIP3   OH226427   5.402   1.789   2.170  0.4485 -0.0950  0.0264
 1623TIP3    H126428   5.368   1.815   2.255  0.4244  0.6203 -0.2021
 1623TIP3    H226429   5.437   1.869   2.131 -0.8843 -0.0893 -1.2698
 1624TIP3   OH226430   2.365   4.057   1.750  0.2139  0.1463 -0.4135
 1624TIP3    H126431   2.341   4.132   1.804 -3.7109 -0.1607 -1.3726
 1624TIP3    H226432   2.422   4.094   1.682  1.9798  1.2880  1.5791
 1625TIP3   OH226433   0.013   0.007   8.132 -0.3095  0.4943  0.5967
 1625TIP3    H126434  -0.068   0.046   8.099  1.2219  2.8191 -0.6722
 1625TIP3    H226435   0.027   0.051   8.216 -0.6650 -0.4043  1.1445
 1626TIP3   OH226436   5.147   4.318   2.454 -0.1593  0.0662  0.3669
 1626TIP3    H126437   5.186   4.405   2.470  0.5620 -0.3830  1.1631
 1626TIP3    H226438   5.191   4.286   2.376  0.8821 -0.3120  1.0910
 1627TIP3   OH226439   5.873   4.826   0.311 -0.7050 -0.2468 -0.3945
 1627TIP3    H126440   5.839   4.755   0.257  1.0356 -1.2545 -0.2627
 1627TIP3    H226441   5.903   4.783   0.391  2.9678  0.0678 -1.4199
 1628TIP3   OH226442   0.017   4.399   0.117 -0.0899  0.2518  0.1878
 1628TIP3    H126443   0.059   4.332   0.062 -0.6724 -0.9485  1.1624
 1628TIP3    H226444   0.059   4.481   0.090  0.8000 -0.5185 -0.8917
 1629TIP3   OH226445   2.970   1.534   1.367 -0.6486 -0.4864  0.3474
 1629TIP3    H126446   2.954   1.594   1.440  0.7204 -1.9904  1.9753
 1629TIP3    H226447   3.007   1.456   1.408  2.2313 -0.6200 -2.1288
 1630TIP3   OH226448   5.485   6.265   1.788 -0.0173 -0.0586 -0.6138
 1630TIP3    H126449   5.519   6.190   1.738  0.5409  0.0224 -0.3551
 1630TIP3    H226450   5.484   6.337   1.724  0.0869 -0.1144 -0.6787
 1631TIP3   OH226451   3.155   2.831   1.618 -0.3149  0.2912  0.0101
 1631TIP3    H126452   3.249   2.851   1.619  0.0604 -1.2672  2.0287
 1631TIP3    H226453   3.150   2.737   1.636 -2.2855  0.7773  2.5709
 1632TIP3   OH226454   4.955   6.435   0.577  0.1036 -0.6275 -0.4021
 1632TIP3    H126455   4.977   6.393   0.494 -1.5137  2.1399 -2.4113
 1632TIP3    H226456   5.031   6.489   0.598  0.5122 -1.3252 -0.0845
 1633TIP3   OH226457   1.045   4.217   2.143  0.3546 -0.7741 -0.0435
 1633TIP3    H126458   1.115   4.186   2.201  0.8795  0.8252  0.2372
 1633TIP3    H226459   0.965   4.179   2.179  1.1288 -3.5730 -1.0192
 1634TIP3   OH226460   1.850   0.845   8.346  0.4145  0.3330 -0.6651
 1634TIP3    H126461   1.875   0.937   8.347  0.7232  0.2921 -2.2225
 1634TIP3    H226462   1.784   0.839   8.277  0.0514 -0.5403 -0.2599
 1635TIP3   OH226463   5.199   1.112   1.984  0.5847  0.5636  0.1885
 1635TIP3    H126464   5.147   1.118   1.904 -1.7598  2.2642  1.6942
 1635TIP3    H226465   5.226   1.202   2.001 -3.4713  1.4400  3.8816
 1636TIP3   OH226466   1.505   1.059   0.868  0.7929 -0.0501  0.2170
 1636TIP3    H126467   1.557   1.101   0.799  0.9406  0.3509  0.5662
 1636TIP3    H226468   1.570   1.014   0.923  0.5815 -1.2732 -0.5094
 1637TIP3   OH226469   3.815   6.398   8.169  0.2478 -0.0865  0.4472
 1637TIP3    H126470   3.798   6.453   8.245  1.0032 -1.2200  1.4603
 1637TIP3    H226471   3.908   6.408   8.151  0.3784 -0.9365  0.5888
 1638TIP3   OH226472   5.593   6.169   8.069 -0.1671 -0.1849 -0.4156
 1638TIP3    H126473   5.615   6.262   8.076  1.4536 -0.5090 -0.8242
 1638TIP3    H226474   5.665   6.124   8.114  0.0546 -1.3221 -1.8348
 1639TIP3   OH226475   2.153   3.875   1.736 -0.0496  0.5648  0.0947
 1639TIP3    H126476   2.206   3.955   1.733 -2.4221  2.1931 -1.8414
 1639TIP3    H226477   2.216   3.804   1.720  1.8306  2.1790 -0.0930
 1640TIP3   OH226478   0.458   2.492   0.230  0.5259 -0.4710 -0.0912
 1640TIP3    H126479   0.509   2.420   0.193  2.7134  0.9673 -0.0270
 1640TIP3    H226480   0.440   2.550   0.156 -2.8692 -1.8810 -0.5264
 1641TIP3   OH226481   2.164   1.526   8.301  0.1806 -0.4294  0.4438
 1641TIP3    H126482   2.211   1.549   8.220 -1.1961 -1.5755 -0.7531
 1641TIP3    H226483   2.153   1.608   8.347  2.0835  0.0839  0.0920
 1642TIP3   OH226484   2.128   5.164   7.078  0.1116 -0.3650  0.5144
 1642TIP3    H126485   2.189   5.235   7.095 -0.1877 -0.0511  0.2779
 1642TIP3    H226486   2.061   5.202   7.021 -0.3577 -0.6837  0.8466
 1643TIP3   OH226487   3.006   0.036   2.303 -0.3753 -0.5802  0.0628
 1643TIP3    H126488   2.929   0.091   2.316  0.2805 -0.0833  2.3380
 1643TIP3    H226489   2.978  -0.030   2.240 -1.8984  0.9788 -0.9801
 1644TIP3   OH226490   3.449   6.227   2.476 -0.2097  0.2196  0.3261
 1644TIP3    H126491   3.386   6.175   2.525  1.3378 -1.9459  0.1876
 1644TIP3    H226492   3.500   6.272   2.544  0.9432 -1.5895  0.7606
 1645TIP3   OH226493   3.195   0.106   8.630 -0.3846 -0.5552 -0.2778
 1645TIP3    H126494   3.116   0.144   8.591  0.0489  1.3970  0.6631
 1645TIP3    H226495   3.259   0.177   8.631  0.5798 -1.3781  1.3031
 1646TIP3   OH226496   5.345   3.163   1.979 -0.3335  0.2124  0.7374
 1646TIP3    H126497   5.333   3.091   2.040  0.3643  0.5057  1.2280
 1646TIP3    H226498   5.363   3.240   2.034  0.4182  0.4552  0.1724
 1647TIP3   OH226499   1.276   1.987   1.663  0.3120 -0.2111 -0.2497
 1647TIP3    H126500   1.246   1.944   1.583  0.9172 -1.2703  0.0744
 1647TIP3    H226501   1.210   1.965   1.729 -0.7490  1.5172 -0.6464
 1648TIP3   OH226502   2.873   1.396   7.359  0.3659  0.4382  0.2572
 1648TIP3    H126503   2.927   1.468   7.391  2.5773 -0.7730 -0.4940
 1648TIP3    H226504   2.851   1.346   7.437  1.9739 -0.0672  0.4274
 1649TIP3   OH226505   5.154   2.929   1.139  0.0831 -0.5763 -0.1375
 1649TIP3    H126506   5.165   2.882   1.222  2.5517  0.9174  0.4863
 1649TIP3    H226507   5.231   2.904   1.088 -1.2369 -1.2185 -1.9158
 1650TIP3   OH226508   3.213   5.476   2.171  1.1349 -0.8535 -0.3377
 1650TIP3    H126509   3.161   5.397   2.155  1.4059 -1.1927  0.3954
 1650TIP3    H226510   3.233   5.473   2.265 -0.1236  0.8694  0.0401
 1651TIP3   OH226511   0.879   4.948   0.782  0.0306 -0.2191 -0.0369
 1651TIP3    H126512   0.825   5.012   0.828  0.4853 -0.5888  1.0161
 1651TIP3    H226513   0.900   4.881   0.847  0.3647 -0.9554 -0.8688
 1652TIP3   OH226514   3.666   3.471   2.467  0.1694 -0.3222  0.3281
 1652TIP3    H126515   3.627   3.487   2.554 -0.8574  1.5297 -0.4148
 1652TIP3    H226516   3.760   3.476   2.482  0.0122 -0.2985  1.4003
 1653TIP3   OH226517   6.242   1.715   0.295 -0.1114  0.4266  0.2464
 1653TIP3    H126518   6.148   1.729   0.301 -0.0174  0.9560  0.5734
 1653TIP3    H226519   6.256   1.625   0.324 -0.7391 -0.4132 -1.8391
 1654TIP3   OH226520   5.121   4.075   0.583  0.6354 -0.0836 -0.3351
 1654TIP3    H126521   5.157   4.010   0.523  2.3797  0.6298 -0.1340
 1654TIP3    H226522   5.168   4.156   0.561  0.0716  0.5848  0.8414
 1655TIP3   OH226523   4.308   1.246   8.360 -0.0683 -0.2029 -0.0800
 1655TIP3    H126524   4.250   1.322   8.361  0.5181  0.3058 -1.5103
 1655TIP3    H226525   4.254   1.174   8.390 -0.4693  0.8680  1.9603
 1656TIP3   OH226526   6.143   3.120   7.526  0.0191  0.1034  0.2015
 1656TIP3    H126527   6.235   3.096   7.509  0.1753  1.0463 -0.3169
 1656TIP3    H226528   6.144   3.215   7.533 -0.8677  0.0886  0.5844
 1657TIP3   OH226529   4.450   1.581   7.719  0.2750 -0.0181 -0.2768
 1657TIP3    H126530   4.458   1.674   7.699  1.3338  0.2055  0.9938
 1657TIP3    H226531   4.538   1.555   7.746 -0.1032 -1.2883 -0.2118
 1658TIP3   OH226532   1.199   6.013   1.878  0.2617 -0.7080 -0.4476
 1658TIP3    H126533   1.106   5.994   1.888 -0.3888  0.8551 -2.7973
 1658TIP3    H226534   1.218   5.993   1.786  2.0701 -0.2354 -0.2191
 1659TIP3   OH226535   0.409   5.948   7.601  0.8727  0.6106 -0.1213
 1659TIP3    H126536   0.422   6.035   7.563 -2.3844  0.9154 -0.8950
 1659TIP3    H226537   0.315   5.932   7.592  1.0585 -2.2646  1.6535
 1660TIP3   OH226538   0.822   4.758   1.905  0.2303 -0.3666  0.6398
 1660TIP3    H126539   0.735   4.724   1.883  0.0321  1.1286 -1.0574
 1660TIP3    H226540   0.883   4.709   1.850  0.2902 -0.2502  0.6017
 1661TIP3   OH226541   3.764   4.066   0.834  0.1793 -0.1227  0.5413
 1661TIP3    H126542   3.720   4.131   0.889 -0.0775 -1.3530  1.8467
 1661TIP3    H226543   3.776   3.990   0.891  1.4889 -0.8316 -0.6084
 1662TIP3   OH226544   6.686   2.764   0.287 -0.0127  0.0874 -0.2002
 1662TIP3    H126545   6.601   2.807   0.278  0.3547  1.1006  0.8985
 1662TIP3    H226546   6.737   2.795   0.212  0.3607  1.9278  0.7558
 1663TIP3   OH226547   2.115   0.950   8.590 -0.3640 -0.1174  0.1991
 1663TIP3    H126548   2.109   1.044   8.577 -1.9372  0.1420  2.3331
 1663TIP3    H226549   2.200   0.936   8.632 -0.5866  0.5038  0.8685
 1664TIP3   OH226550   2.941   5.197   0.286 -0.5051  0.0837  0.3909
 1664TIP3    H126551   2.898   5.226   0.206  1.4738 -0.1441 -0.8361
 1664TIP3    H226552   2.990   5.274   0.316 -0.6656 -0.0411  0.9817
 1665TIP3   OH226553   0.486   4.570   2.186 -0.4948 -0.6047  0.2211
 1665TIP3    H126554   0.491   4.624   2.264  1.2176  1.5667 -1.2747
 1665TIP3    H226555   0.537   4.492   2.208  0.3610  0.1820  1.1189
 1666TIP3   OH226556   6.127   3.608   6.934  0.3684 -0.1493 -0.3325
 1666TIP3    H126557   6.048   3.580   6.887 -0.0982  1.3760 -0.5210
 1666TIP3    H226558   6.168   3.672   6.876  0.9772  0.1219  0.3835
 1667TIP3   OH226559   3.471   0.130   1.363 -0.0637  0.5898  0.0603
 1667TIP3    H126560   3.436   0.181   1.290 -1.8093  0.1515  0.5470
 1667TIP3    H226561   3.492   0.045   1.325 -0.2992  0.5968 -0.0893
 1668TIP3   OH226562   2.222   3.556   1.151  0.0285  0.1462 -0.7611
 1668TIP3    H126563   2.165   3.632   1.134  0.5986  0.6274 -0.5705
 1668TIP3    H226564   2.187   3.487   1.095  0.5715  1.0853 -2.3290
 1669TIP3   OH226565   0.125   5.457   0.320  0.6786 -0.6062 -0.0695
 1669TIP3    H126566   0.131   5.445   0.225 -1.6246  0.1303 -0.3634
 1669TIP3    H226567   0.078   5.380   0.351  1.4484 -0.8600  0.5111
 1670TIP3   OH226568   0.263   3.522   1.076  0.1810 -0.7253 -0.0503
 1670TIP3    H126569   0.290   3.492   1.162  2.2325  0.4145 -0.2156
 1670TIP3    H226570   0.344   3.556   1.036 -1.2098  1.3630 -1.3203
 1671TIP3   OH226571   4.045   5.465   3.059 -0.4068 -0.1542  0.1082
 1671TIP3    H126572   4.140   5.453   3.054 -0.4282 -0.6273  0.7369
 1671TIP3    H226573   4.032   5.524   3.133 -0.5768  0.2675 -0.2555
 1672TIP3   OH226574   4.644   2.177   7.522  0.0753 -0.5052 -0.6692
 1672TIP3    H126575   4.633   2.101   7.579 -0.5867 -0.1601 -0.3181
 1672TIP3    H226576   4.732   2.167   7.485  1.1446 -0.0199  1.5226
 1673TIP3   OH226577   5.751   2.754   3.009 -0.1439  0.1716  0.2415
 1673TIP3    H126578   5.843   2.773   3.026 -0.3023  0.4338  0.8452
 1673TIP3    H226579   5.705   2.835   3.032 -0.5770 -0.1298  0.4501
 1674TIP3   OH226580   1.047   1.088   8.241 -0.1426 -0.0151  0.3404
 1674TIP3    H126581   1.075   1.175   8.214  1.0225 -1.0400 -1.9791
 1674TIP3    H226582   0.984   1.061   8.174  0.4709 -1.4401  0.2979
 1675TIP3   OH226583   4.192   4.850   8.448 -0.4655 -0.5283  0.0405
 1675TIP3    H126584   4.168   4.864   8.540  3.0527 -1.0812  1.1891
 1675TIP3    H226585   4.210   4.938   8.414 -0.1360 -0.4673  0.3763
 1676TIP3   OH226586   1.793   1.886   2.430 -0.2307 -0.2368 -0.2599
 1676TIP3    H126587   1.838   1.806   2.459  2.6805  0.9918 -1.1069
 1676TIP3    H226588   1.779   1.936   2.511  1.3168 -0.0064 -0.1068
 1677TIP3   OH226589   3.763   0.792   0.239  0.8649  0.8306  0.4107
 1677TIP3    H126590   3.786   0.830   0.154 -0.7815 -0.1743 -0.5279
 1677TIP3    H226591   3.765   0.698   0.223 -0.6544  0.6594  1.1525
 1678TIP3   OH226592   4.031   2.705   0.848  0.3671 -0.4055 -0.3089
 1678TIP3    H126593   4.025   2.611   0.831  1.6833 -0.6340  0.3930
 1678TIP3    H226594   3.945   2.739   0.823 -0.1046 -1.7765 -0.6432
 1679TIP3   OH226595   3.422   0.143   2.054 -0.1869  0.3816  0.0517
 1679TIP3    H126596   3.417   0.053   2.022 -1.7376  0.7055 -0.6893
 1679TIP3    H226597   3.360   0.146   2.126  0.2704  0.7230  0.4325
 1680TIP3   OH226598   5.675   1.849   1.417  0.4158 -1.2034 -0.1092
 1680TIP3    H126599   5.754   1.902   1.430  0.2207 -0.2453 -2.4688
 1680TIP3    H226600   5.684   1.777   1.481  1.3512  0.8589  2.2517
 1681TIP3   OH226601   0.583   4.146   1.555 -0.9218 -0.0081  0.1501
 1681TIP3    H126602   0.606   4.079   1.619  0.3731  0.9998  0.8039
 1681TIP3    H226603   0.666   4.192   1.538 -1.1890 -0.2854 -2.3228
 1682TIP3   OH226604   6.412   1.409   1.630 -0.1938 -0.2878 -0.8205
 1682TIP3    H126605   6.466   1.447   1.560 -0.6299  0.5483 -0.7167
 1682TIP3    H226606   6.365   1.483   1.666  1.6846 -0.2761  1.8877
 1683TIP3   OH226607   3.714   4.210   7.816  0.1760  0.5964  0.4185
 1683TIP3    H126608   3.761   4.177   7.739 -1.2340  2.3864 -1.3212
 1683TIP3    H226609   3.778   4.265   7.861  1.3251 -1.2395  1.1834
 1684TIP3   OH226610   4.279   1.007   1.103 -0.0797  0.0565 -0.9314
 1684TIP3    H126611   4.304   0.948   1.031  0.2486 -0.1420 -0.6555
 1684TIP3    H226612   4.189   0.980   1.125  0.6168 -1.4412  0.2630
 1685TIP3   OH226613   0.291   2.467   2.377 -0.1878  0.7651  0.5855
 1685TIP3    H126614   0.250   2.411   2.442 -1.8144  2.1943  0.8688
 1685TIP3    H226615   0.265   2.430   2.293 -1.8254  1.4468  0.7654
 1686TIP3   OH226616   0.477   4.666   8.339 -0.4572  0.3710 -0.4686
 1686TIP3    H126617   0.477   4.761   8.326 -0.7869  0.6623  1.3724
 1686TIP3    H226618   0.429   4.653   8.421  0.3480 -1.3109 -0.2200
 1687TIP3   OH226619   2.464   3.012   6.863 -0.3186 -0.5129  0.4759
 1687TIP3    H126620   2.424   3.099   6.867 -4.7741 -2.2489  0.4641
 1687TIP3    H226621   2.473   2.986   6.955 -0.2207 -0.4840  0.4737
 1688TIP3   OH226622   6.519   6.779   2.664 -0.7511  0.1343  0.4299
 1688TIP3    H126623   6.582   6.843   2.696  1.0575 -0.4824 -1.6483
 1688TIP3    H226624   6.552   6.695   2.695 -0.2902 -0.2250 -0.9420
 1689TIP3   OH226625   0.484   1.594   2.082  0.5764  0.2466  0.2148
 1689TIP3    H126626   0.510   1.640   2.003  0.4528 -1.1128 -0.6509
 1689TIP3    H226627   0.528   1.509   2.076 -1.1179 -0.6962  0.5252
 1690TIP3   OH226628   3.628   6.452   2.031 -0.1323  0.4789  0.3847
 1690TIP3    H126629   3.615   6.426   1.939  0.2512 -0.2917  0.5371
 1690TIP3    H226630   3.594   6.378   2.081  0.5752  0.4583  0.8494
 1691TIP3   OH226631   6.600   0.737   7.649  0.3730 -0.2463  0.1335
 1691TIP3    H126632   6.665   0.688   7.600  0.6603  0.8160 -0.5911
 1691TIP3    H226633   6.522   0.738   7.593  0.3111 -0.0423  0.2198
 1692TIP3   OH226634   1.565   4.880   0.579 -0.1833  0.3971 -1.2737
 1692TIP3    H126635   1.588   4.945   0.513 -0.8354  0.6479 -1.2576
 1692TIP3    H226636   1.550   4.799   0.529 -1.6354  0.8156 -1.5618
 1693TIP3   OH226637   5.889   3.239   8.243  0.0663  0.8493 -0.2796
 1693TIP3    H126638   5.801   3.268   8.265  0.2447  0.9585  0.2954
 1693TIP3    H226639   5.936   3.238   8.326 -0.3238 -2.5763  0.0813
 1694TIP3   OH226640   6.624   3.583   8.593 -0.0523 -0.4977  0.3999
 1694TIP3    H126641   6.669   3.531   8.527  1.9642  2.7157 -1.0163
 1694TIP3    H226642   6.689   3.595   8.663  0.7889  2.5076 -0.7345
 1695TIP3   OH226643   4.191   5.953   2.386  0.0358  0.2022  1.2631
 1695TIP3    H126644   4.213   5.860   2.381 -2.0851 -0.3488  1.1743
 1695TIP3    H226645   4.102   5.958   2.349  0.4244  2.3831  0.5271
 1696TIP3   OH226646   5.987   2.893   2.276 -0.0299 -0.0250  0.6918
 1696TIP3    H126647   6.034   2.812   2.299  0.5759  0.4012  0.9982
 1696TIP3    H226648   5.950   2.876   2.190  0.2878 -0.5531  0.6544
 1697TIP3   OH226649   1.766   4.431   1.452  0.3129  0.4240 -0.2994
 1697TIP3    H126650   1.802   4.517   1.471 -0.8233  0.6051  1.1858
 1697TIP3    H226651   1.714   4.409   1.529 -0.4097 -1.0646 -1.1676
 1698TIP3   OH226652   2.878   0.775   2.775  0.4430  0.3777  0.3681
 1698TIP3    H126653   2.899   0.863   2.804  1.8400 -0.3989  1.8900
 1698TIP3    H226654   2.951   0.750   2.718 -0.9192  0.8738 -1.7091
 1699TIP3   OH226655   5.800   3.100   2.214  0.2871 -0.0703  0.2065
 1699TIP3    H126656   5.839   3.051   2.141  0.8897  1.2198 -0.3691
 1699TIP3    H226657   5.863   3.090   2.285  1.0933  0.9672 -0.3336
 1700TIP3   OH226658   1.942   0.885   1.277  0.3726 -0.2467  0.0441
 1700TIP3    H126659   1.923   0.819   1.343  1.7051  1.1086  1.8845
 1700TIP3    H226660   1.857   0.928   1.262 -0.0948 -1.0635  0.2859
 1701TIP3   OH226661   3.007   2.626   0.760 -0.8567  0.3179 -0.8179
 1701TIP3    H126662   3.038   2.691   0.697 -0.4305 -0.2000 -1.1507
 1701TIP3    H226663   3.031   2.662   0.845  0.9984 -0.2218 -1.0775
 1702TIP3   OH226664   2.841   1.776   3.297  0.2689 -0.7921 -0.2784
 1702TIP3    H126665   2.836   1.761   3.203  1.2033  0.7013 -0.5941
 1702TIP3    H226666   2.752   1.762   3.328 -0.3122 -0.1388 -1.5694
 1703TIP3   OH226667   3.579   5.031   1.330  0.1620 -0.1741  0.3493
 1703TIP3    H126668   3.589   5.067   1.418  3.4336 -2.3047  1.0404
 1703TIP3    H226669   3.539   4.945   1.344 -0.6670  0.0721 -0.4298
 1704TIP3   OH226670   1.415   1.211   8.574  0.2719 -0.0265  0.1981
 1704TIP3    H126671   1.435   1.198   8.481 -1.6550 -0.1537 -0.2427
 1704TIP3    H226672   1.474   1.282   8.601  1.3894 -0.4852 -0.8980
 1705TIP3   OH226673   1.258   3.878   8.493 -0.2719 -0.3403 -0.0169
 1705TIP3    H126674   1.293   3.816   8.557 -0.0020 -1.0562 -0.8370
 1705TIP3    H226675   1.163   3.869   8.501 -0.2406 -1.2668 -0.4900
 1706TIP3   OH226676   2.370   3.708   8.415  0.2163  0.3369 -0.1938
 1706TIP3    H126677   2.309   3.635   8.424 -0.6681  0.9765 -0.9083
 1706TIP3    H226678   2.385   3.738   8.505  2.2612 -2.0272  0.3796
 1707TIP3   OH226679   4.341   0.487   1.202 -0.3810  0.0390  0.2083
 1707TIP3    H126680   4.340   0.415   1.265  1.4779 -1.4103 -1.3055
 1707TIP3    H226681   4.254   0.483   1.161 -0.3211 -1.3323  0.1755
 1708TIP3   OH226682   2.733   3.723   0.628  0.2733  0.0219  0.0710
 1708TIP3    H126683   2.778   3.764   0.702  0.7202  0.4389 -0.4219
 1708TIP3    H226684   2.640   3.731   0.649  0.3552  1.0318  0.1324
 1709TIP3   OH226685   3.561   0.545   1.542 -0.7635  0.2489  0.2540
 1709TIP3    H126686   3.538   0.589   1.624 -0.1045  0.7959  0.1517
 1709TIP3    H226687   3.484   0.558   1.486 -0.2379  2.1634 -0.1249
 1710TIP3   OH226688   3.122   6.401   8.054 -0.2919  0.1106 -0.3218
 1710TIP3    H126689   3.172   6.356   7.986 -0.5176  0.9508 -1.0641
 1710TIP3    H226690   3.120   6.340   8.127  0.3590 -0.6208 -0.9018
 1711TIP3   OH226691   3.385   2.113   0.411 -0.4629  0.3238 -0.0772
 1711TIP3    H126692   3.464   2.064   0.435 -0.1771  1.3882  1.3508
 1711TIP3    H226693   3.381   2.108   0.316  0.8424 -0.5001 -0.1170
 1712TIP3   OH226694   0.486   2.566   1.634  0.5096 -0.2658  0.3601
 1712TIP3    H126695   0.477   2.660   1.619 -0.9675 -0.5393 -0.6966
 1712TIP3    H226696   0.461   2.553   1.726 -0.6477  0.2123  0.1218
 1713TIP3   OH226697   1.745   5.339   8.625  0.7642 -0.1998 -0.1130
 1713TIP3    H126698   1.805   5.403   8.663  0.2711 -0.4080  1.0428
 1713TIP3    H226699   1.722   5.376   8.540  0.0689  1.4511  0.7463
 1714TIP3   OH226700   4.917   1.700   1.664 -0.3599  0.5290 -0.5722
 1714TIP3    H126701   4.997   1.743   1.634  0.4991  0.2957  1.2855
 1714TIP3    H226702   4.855   1.713   1.592  0.6154  2.7350 -1.0793
 1715TIP3   OH226703   5.355   6.031   7.994 -0.1086  0.0933  0.1311
 1715TIP3    H126704   5.269   6.029   8.035  0.1086 -2.3705  0.6143
 1715TIP3    H226705   5.414   6.061   8.064 -0.2856 -0.2911  0.4505
 1716TIP3   OH226706   2.920   2.657   8.464 -0.3302 -0.0973 -0.4093
 1716TIP3    H126707   2.975   2.650   8.542  0.3858 -2.0312 -1.0322
 1716TIP3    H226708   2.859   2.729   8.484  1.1793  0.8355  1.0485
 1717TIP3   OH226709   6.640   0.530   2.611 -0.2472 -0.6898  0.4905
 1717TIP3    H126710   6.578   0.500   2.677 -0.4679 -1.3784 -0.0263
 1717TIP3    H226711   6.718   0.476   2.625 -0.9807 -2.2337 -1.0619
 1718TIP3   OH226712   0.199   4.297   1.025 -0.4803 -0.5016 -0.7458
 1718TIP3    H126713   0.291   4.318   1.044 -0.4871 -1.0424 -0.0484
 1718TIP3    H226714   0.150   4.351   1.087 -0.5667 -1.2478 -0.1478
 1719TIP3   OH226715   3.820   4.690   2.498  0.5909  0.1878 -0.3421
 1719TIP3    H126716   3.883   4.618   2.508  0.7184  0.4832  1.1925
 1719TIP3    H226717   3.870   4.760   2.456  0.8644 -0.1052 -0.5100
 1720TIP3   OH226718   2.697   0.858   7.488  0.4962 -0.7314 -0.0089
 1720TIP3    H126719   2.611   0.824   7.464 -0.5230  0.7127  1.4038
 1720TIP3    H226720   2.690   0.952   7.475  1.6391 -0.5203  0.7830
 1721TIP3   OH226721   1.479   2.949   8.861 -0.0073 -0.1460 -0.2992
 1721TIP3    H126722   1.460   2.865   8.818 -2.2312  0.1521  0.0350
 1721TIP3    H226723   1.570   2.967   8.836 -0.4437 -1.1344 -2.9713
 1722TIP3   OH226724   1.487   5.678   7.264  0.5399  0.4456 -0.1971
 1722TIP3    H126725   1.575   5.677   7.302 -0.5000  0.6213  2.4033
 1722TIP3    H226726   1.488   5.752   7.203  1.3232  2.5314  2.1567
 1723TIP3   OH226727   0.748   6.336   1.349  0.6189  0.2839  0.3207
 1723TIP3    H126728   0.679   6.389   1.309 -0.6609 -0.1611  1.8322
 1723TIP3    H226729   0.737   6.249   1.309  0.7568  0.3792  0.0702
 1724TIP3   OH226730   4.921   3.400   8.616 -0.8315 -0.2549 -0.0208
 1724TIP3    H126731   4.840   3.441   8.585 -0.9883 -0.3584  0.2396
 1724TIP3    H226732   4.930   3.431   8.707 -0.2290  0.2718 -0.2518
 1725TIP3   OH226733   3.966   3.781   1.396 -0.3907 -0.1680 -0.4539
 1725TIP3    H126734   3.970   3.874   1.419 -0.3091 -0.1599 -0.5031
 1725TIP3    H226735   4.034   3.741   1.449 -1.8095 -0.5327  1.1972
 1726TIP3   OH226736   0.430   6.420   8.078 -0.0442  0.0490  0.2017
 1726TIP3    H126737   0.336   6.408   8.070 -0.1201  0.9792 -0.3388
 1726TIP3    H226738   0.445   6.512   8.058  1.2695 -0.6296 -2.3151
 1727TIP3   OH226739   5.813   5.922   1.834  0.2444  0.0894  0.4830
 1727TIP3    H126740   5.826   5.995   1.896  0.0678  1.4034 -0.9617
 1727TIP3    H226741   5.881   5.935   1.768  0.5053 -1.3571  0.4467
 1728TIP3   OH226742   5.852   1.776   8.235 -0.0541  0.7047 -0.1292
 1728TIP3    H126743   5.777   1.747   8.183  0.2960  0.0487 -0.2832
 1728TIP3    H226744   5.889   1.695   8.272 -0.1120  1.1272  0.8961
 1729TIP3   OH226745   1.084   2.149   1.304 -0.0947 -0.2454 -0.2524
 1729TIP3    H126746   1.002   2.189   1.333 -0.4376 -0.3265 -1.0914
 1729TIP3    H226747   1.142   2.222   1.286 -0.2224 -0.1673 -0.3457
 1730TIP3   OH226748   1.951   4.205   8.130  0.7900 -0.0067  0.2058
 1730TIP3    H126749   2.025   4.266   8.141 -0.2380  1.1911  0.8241
 1730TIP3    H226750   1.939   4.198   8.035  1.0235  0.6472  0.1225
 1731TIP3   OH226751   3.325   0.816   2.729  0.1346 -0.6107 -0.4259
 1731TIP3    H126752   3.266   0.768   2.671  0.8560 -2.2323  0.1233
 1731TIP3    H226753   3.381   0.867   2.670  0.2986 -1.5719 -1.1271
 1732TIP3   OH226754   5.008   5.531   1.241  0.0183 -0.3058  0.5060
 1732TIP3    H126755   5.027   5.503   1.331  1.3468 -0.8512  0.0881
 1732TIP3    H226756   5.094   5.543   1.201 -0.5503 -0.0503 -0.6897
 1733TIP3   OH226757   1.367   6.058   2.099  0.3580  0.0141  0.7286
 1733TIP3    H126758   1.308   6.042   2.026  0.5597  1.7959  0.1244
 1733TIP3    H226759   1.329   6.010   2.172 -1.1369  0.0833  0.0272
 1734TIP3   OH226760   6.768   1.679   0.283 -0.5528  0.2355 -0.2413
 1734TIP3    H126761   6.809   1.593   0.285  0.1476  0.5064 -1.6614
 1734TIP3    H226762   6.737   1.694   0.373  1.1886 -0.5762  0.5271
 1735TIP3   OH226763   2.502   0.116   2.216 -0.1129  0.2415  0.4284
 1735TIP3    H126764   2.449   0.167   2.154  0.7161 -0.2782 -0.7409
 1735TIP3    H226765   2.481   0.025   2.195 -1.3140  0.0493  2.2597
 1736TIP3   OH226766   2.539   4.500   1.981  0.6215 -0.2972 -0.6882
 1736TIP3    H126767   2.520   4.445   1.904  2.2428  0.4623 -1.6805
 1736TIP3    H226768   2.618   4.462   2.018  1.2049  0.7627 -0.8132
 1737TIP3   OH226769   5.630   2.991   8.274 -0.1426 -0.3548  0.0793
 1737TIP3    H126770   5.711   3.026   8.237 -0.6986  1.8323  0.8332
 1737TIP3    H226771   5.560   3.029   8.221 -0.7537 -3.2090 -1.3959
 1738TIP3   OH226772   6.589   1.270   8.548 -0.0033 -1.1466 -0.2500
 1738TIP3    H126773   6.641   1.307   8.477  1.2939 -1.0889  0.7077
 1738TIP3    H226774   6.627   1.184   8.563  0.5322 -0.6826  1.1749
 1739TIP3   OH226775   3.848   0.950   0.033  0.0821 -0.1595  0.0626
 1739TIP3    H126776   3.825   0.941  -0.060 -0.4484  1.2204  0.0418
 1739TIP3    H226777   3.919   1.015   0.033 -0.9428  0.9918  0.7351
 1740TIP3   OH226778   6.724   4.056   8.848  0.2476  0.2635  0.0387
 1740TIP3    H126779   6.673   4.134   8.870  1.0692 -0.0096  3.6764
 1740TIP3    H226780   6.684   3.986   8.900  1.8174 -0.8405 -0.1499
 1741TIP3   OH226781   4.356   4.285   1.296  0.3727 -0.0640 -0.5131
 1741TIP3    H126782   4.399   4.350   1.240 -1.1583 -0.4223 -2.2111
 1741TIP3    H226783   4.265   4.314   1.300  0.1578 -0.8109  0.7329
 1742TIP3   OH226784   4.245   2.486   1.255  0.0320 -0.0933  0.2270
 1742TIP3    H126785   4.281   2.397   1.257  1.4868  0.4426 -0.5355
 1742TIP3    H226786   4.280   2.524   1.175 -1.7874  0.6979 -0.2485
 1743TIP3   OH226787   5.980   2.999   8.108 -0.3012  0.1846 -0.2640
 1743TIP3    H126788   5.935   2.999   8.023  0.4210  0.0950 -0.6540
 1743TIP3    H226789   5.940   3.071   8.157 -0.0034  0.9091 -1.0714
 1744TIP3   OH226790   3.969   2.917   1.263  0.0927  0.4485  0.3562
 1744TIP3    H126791   3.940   2.994   1.313  0.3673  0.7964 -0.0158
 1744TIP3    H226792   3.919   2.921   1.182  1.5654  1.3899 -0.5560
 1745TIP3   OH226793   2.082   1.913   2.518 -0.1685  0.4526 -0.3403
 1745TIP3    H126794   2.093   1.823   2.549 -1.7410  0.8124  1.4178
 1745TIP3    H226795   2.167   1.954   2.531  0.2388 -0.4695 -0.0664
 1746TIP3   OH226796   4.345   5.639   8.498 -0.1859 -0.5591  0.2293
 1746TIP3    H126797   4.407   5.707   8.525 -2.3425  0.6681  2.4812
 1746TIP3    H226798   4.280   5.686   8.445  0.0969 -1.5888 -1.0879
 1747TIP3   OH226799   5.982   1.682   7.872  0.7198 -0.1943 -0.5294
 1747TIP3    H126800   6.012   1.591   7.862  0.5633 -0.2364 -0.6343
 1747TIP3    H226801   5.896   1.683   7.829  0.2881 -0.2280  0.3046
 1748TIP3   OH226802   0.938   5.927   1.883 -0.4681  0.4309  0.6685
 1748TIP3    H126803   0.880   5.937   1.959 -0.2265 -1.6294  1.1798
 1748TIP3    H226804   0.972   5.838   1.890  1.4683  1.0039 -0.5516
 1749TIP3   OH226805   5.304   2.869   8.145 -0.0187 -0.4928  0.4800
 1749TIP3    H126806   5.359   2.825   8.080 -0.3842  1.5069 -1.2682
 1749TIP3    H226807   5.217   2.831   8.132  0.2942 -1.5763  1.2937
 1750TIP3   OH226808   1.011   3.579   7.750  0.2100 -0.1421 -0.3453
 1750TIP3    H126809   1.090   3.607   7.796 -0.9343  0.8624  1.1066
 1750TIP3    H226810   0.961   3.531   7.816 -2.2164  2.6826  0.0546
 1751TIP3   OH226811   4.430   0.408   2.084  0.3756 -0.0628 -0.2791
 1751TIP3    H126812   4.443   0.477   2.149  2.5838 -0.4061 -0.2798
 1751TIP3    H226813   4.362   0.352   2.122 -2.1173  2.4831 -0.6777
 1752TIP3   OH226814   5.005   4.333   1.420  0.1690  0.3231 -0.1231
 1752TIP3    H126815   4.922   4.317   1.466  0.4317  0.0087  0.2541
 1752TIP3    H226816   5.029   4.248   1.383  1.1420  0.0041  1.1650
 1753TIP3   OH226817   2.580   0.374   0.831 -0.5095 -0.0555  0.0208
 1753TIP3    H126818   2.647   0.391   0.766 -1.6522  2.5833 -0.5966
 1753TIP3    H226819   2.621   0.397   0.915  0.7426 -2.8290  0.2750
 1754TIP3   OH226820   0.486   0.165   0.536 -0.1705 -0.0332 -0.0029
 1754TIP3    H126821   0.581   0.158   0.535 -0.1625  0.0951 -0.2675
 1754TIP3    H226822   0.465   0.228   0.467 -0.5225 -1.1295 -0.9462
 1755TIP3   OH226823   1.111   4.211   7.521 -0.4828 -0.0572  0.4949
 1755TIP3    H126824   1.153   4.295   7.540 -0.4696 -0.0237  0.3162
 1755TIP3    H226825   1.085   4.218   7.429 -0.3766 -0.2930  0.4475
 1756TIP3   OH226826   1.070   6.436   0.029  0.0894  0.3569  0.0821
 1756TIP3    H126827   1.109   6.523   0.020 -0.0794  0.2409 -2.4408
 1756TIP3    H226828   1.036   6.416  -0.058 -1.3909 -1.5457  1.0242
 1757TIP3   OH226829   1.762   2.027   0.258 -0.6440 -0.3625  0.3053
 1757TIP3    H126830   1.701   1.954   0.264 -0.7372 -0.4329 -1.0689
 1757TIP3    H226831   1.849   1.987   0.257 -0.7203 -0.6060 -1.5957
 1758TIP3   OH226832   2.059   0.523   0.599 -0.2954 -0.0946  0.4597
 1758TIP3    H126833   2.045   0.482   0.685  3.1461 -0.7918  0.8326
 1758TIP3    H226834   2.137   0.479   0.564 -1.1442  0.6890 -2.7300
 1759TIP3   OH226835   2.844   4.443   0.445  0.5072 -0.1773 -1.1183
 1759TIP3    H126836   2.768   4.398   0.484 -0.7709  1.3586 -1.7249
 1759TIP3    H226837   2.918   4.415   0.498 -1.1441  1.9394  2.6980
 1760TIP3   OH226838   3.247   0.516   8.873 -0.4936 -0.1532  0.1154
 1760TIP3    H126839   3.305   0.566   8.816 -0.6542  0.7377  0.7117
 1760TIP3    H226840   3.171   0.495   8.818  0.0420 -0.6773 -0.4452
 1761TIP3   OH226841   0.461   2.960   1.225  0.2631 -0.4592  0.7873
 1761TIP3    H126842   0.432   2.889   1.168  1.2509 -1.0339  0.9830
 1761TIP3    H226843   0.492   2.917   1.304  0.6756  0.2069  0.9985
 1762TIP3   OH226844   1.195   6.726   0.473 -0.8457  0.1502 -0.0518
 1762TIP3    H126845   1.234   6.746   0.388 -0.5912 -0.1052  0.0022
 1762TIP3    H226846   1.147   6.805   0.497 -1.2428  0.0851 -0.6142
 1763TIP3   OH226847   6.447   6.191   8.126 -0.9291 -0.5026 -0.4764
 1763TIP3    H126848   6.475   6.280   8.107 -0.8910 -0.5067 -0.4366
 1763TIP3    H226849   6.509   6.159   8.191 -2.0870  0.0964  0.9551
 1764TIP3   OH226850   0.178   4.607   0.058 -0.0276 -0.0461  0.0466
 1764TIP3    H126851   0.179   4.697   0.090 -1.0492 -0.1442  0.4007
 1764TIP3    H226852   0.259   4.598   0.008  0.0135  1.1117 -0.1163
 1765TIP3   OH226853   5.428   5.594   0.828 -0.0795 -0.4470  0.3869
 1765TIP3    H126854   5.499   5.537   0.801  1.3709  0.6951  1.6062
 1765TIP3    H226855   5.376   5.541   0.888  0.5680 -0.8678  0.5807
 1766TIP3   OH226856   4.593   2.422   7.852 -0.5992  0.2623  0.0276
 1766TIP3    H126857   4.663   2.398   7.792 -0.6553  1.3615 -0.5132
 1766TIP3    H226858   4.636   2.433   7.937 -0.5533 -1.4853  0.2509
 1767TIP3   OH226859   1.932   3.644   8.103 -0.0658 -0.1993 -0.1007
 1767TIP3    H126860   1.874   3.716   8.078 -0.1693 -0.6360 -1.1724
 1767TIP3    H226861   1.897   3.568   8.056  1.1604 -0.5446 -0.4756
 1768TIP3   OH226862   2.833   2.327   2.053  0.4387 -0.4420 -0.2958
 1768TIP3    H126863   2.915   2.359   2.092  1.6143 -0.6595 -2.4203
 1768TIP3    H226864   2.800   2.262   2.116  0.7316  1.1397  1.6123
 1769TIP3   OH226865   1.320   4.635   1.291 -0.2412 -0.5301  0.1907
 1769TIP3    H126866   1.256   4.656   1.359  1.6624 -1.3397  2.3653
 1769TIP3    H226867   1.341   4.543   1.306  3.1604  0.2634  1.2187
 1770TIP3   OH226868   2.512   1.350   7.611 -0.3622  0.2038 -0.2164
 1770TIP3    H126869   2.446   1.382   7.550 -1.3021  0.1632  0.7563
 1770TIP3    H226870   2.552   1.276   7.565  0.9823  1.8955 -1.9731
 1771TIP3   OH226871   6.302   6.295   1.774 -0.4788 -0.4370  0.2700
 1771TIP3    H126872   6.354   6.254   1.705  0.7891  0.4215  0.6766
 1771TIP3    H226873   6.298   6.387   1.750 -1.0306 -0.3323  0.7420
 1772TIP3   OH226874   1.901   1.409   8.375 -0.1653  0.4251  0.6198
 1772TIP3    H126875   1.846   1.368   8.308  2.0182 -0.1254 -0.9469
 1772TIP3    H226876   1.944   1.481   8.329  0.7864  0.5342  1.6501
 1773TIP3   OH226877   0.804   3.902   0.631 -0.0148  0.0079 -0.2588
 1773TIP3    H126878   0.759   3.824   0.663  1.6279 -0.5986  0.6921
 1773TIP3    H226879   0.845   3.873   0.549  2.0828 -0.7497  0.9651
 1774TIP3   OH226880   4.906   0.344   1.569 -0.0426 -0.9443 -0.3257
 1774TIP3    H126881   4.906   0.395   1.649 -1.1968 -1.8506  0.2692
 1774TIP3    H226882   4.926   0.408   1.500  3.9867 -0.5787  0.8770
 1775TIP3   OH226883   2.675   3.930   1.481 -0.4770 -0.3447 -0.1229
 1775TIP3    H126884   2.651   3.906   1.391 -1.3181 -0.6448  0.1766
 1775TIP3    H226885   2.662   3.850   1.532  0.6011 -0.3550  0.1744
 1776TIP3   OH226886   0.493   2.444   8.511  0.4531 -0.1575  0.1640
 1776TIP3    H126887   0.405   2.410   8.494  0.3954 -0.0312  0.2130
 1776TIP3    H226888   0.548   2.399   8.447  0.8709 -2.5422  2.0269
 1777TIP3   OH226889   6.642   5.563   1.650 -0.4828 -0.2546  0.2235
 1777TIP3    H126890   6.735   5.546   1.635 -0.7958 -2.0212 -0.0378
 1777TIP3    H226891   6.638   5.654   1.679  1.3455 -0.2305  0.5279
 1778TIP3   OH226892   3.375   3.212   8.456 -0.2315 -0.0703  0.1889
 1778TIP3    H126893   3.461   3.174   8.476 -0.4638 -0.8779 -0.3207
 1778TIP3    H226894   3.387   3.306   8.471  0.5824 -0.2368  0.6680
 1779TIP3   OH226895   4.752   0.130   1.584  0.0098 -0.0211  0.4401
 1779TIP3    H126896   4.822   0.191   1.565 -0.2868  0.1751 -0.0475
 1779TIP3    H226897   4.789   0.044   1.567 -0.1146  0.1251 -0.6464
 1780TIP3   OH226898   0.793   2.942   5.773 -0.6996  0.5346  0.1484
 1780TIP3    H126899   0.812   2.959   5.865  0.2185  1.0728 -0.1261
 1780TIP3    H226900   0.737   2.865   5.773  0.3527 -0.2524  1.0840
 1781TIP3   OH226901   2.679   0.014   1.786 -0.1852 -0.0021 -0.2441
 1781TIP3    H126902   2.603   0.052   1.741 -1.7149  0.1832  2.3383
 1781TIP3    H226903   2.722   0.089   1.827  0.5373 -0.3163 -0.4018
 1782TIP3   OH226904   0.740   3.576   1.003  0.5011  0.0641  0.5200
 1782TIP3    H126905   0.764   3.490   1.039  1.4964  0.8539  1.8456
 1782TIP3    H226906   0.650   3.565   0.972  0.8556 -1.6422  0.0191
 1783TIP3   OH226907   2.042   0.222   2.323  0.1692  0.3403  0.1477
 1783TIP3    H126908   2.062   0.158   2.255 -1.7211 -1.2041  0.9576
 1783TIP3    H226909   2.065   0.179   2.405 -1.2662  0.6001  0.7192
 1784TIP3   OH226910   0.408   1.424   1.555 -0.5944 -0.6949 -0.3575
 1784TIP3    H126911   0.336   1.369   1.584 -1.3251  0.3671 -0.0887
 1784TIP3    H226912   0.471   1.364   1.516 -0.3177 -2.0121  1.9340
 1785TIP3   OH226913   6.544   0.446   0.099 -0.4398  0.7839 -0.2108
 1785TIP3    H126914   6.472   0.492   0.058  0.5482  1.0704 -1.7145
 1785TIP3    H226915   6.569   0.500   0.174 -0.9833  1.3173 -0.4159
 1786TIP3   OH226916   0.045   3.749   8.339 -0.4137  0.5674 -0.6188
 1786TIP3    H126917  -0.041   3.790   8.334 -0.4205  0.4938 -1.1322
 1786TIP3    H226918   0.027   3.663   8.378 -0.3040  1.3000  1.1197
 1787TIP3   OH226919   6.246   1.610   0.651  0.3171  0.1144 -0.0181
 1787TIP3    H126920   6.305   1.640   0.582 -0.0395  0.1411 -0.3145
 1787TIP3    H226921   6.167   1.581   0.604 -0.6822  1.8723  0.4829
 1788TIP3   OH226922   3.961   3.101   2.857  0.2023  0.3777 -0.2380
 1788TIP3    H126923   4.009   3.184   2.854  0.1643  0.3921 -0.5169
 1788TIP3    H226924   4.027   3.034   2.840  0.5775  0.1953  1.7754
 1789TIP3   OH226925   2.787   1.370   2.060  1.0279  0.3968  0.5080
 1789TIP3    H126926   2.778   1.465   2.054  0.0562  0.7134  4.3420
 1789TIP3    H226927   2.717   1.336   2.004  1.1410  1.9334 -0.6171
 1790TIP3   OH226928   1.526   5.207   0.591  0.2919 -0.2754 -0.3939
 1790TIP3    H126929   1.607   5.177   0.549 -0.4883  0.7536 -2.8059
 1790TIP3    H226930   1.543   5.298   0.615  0.1793 -0.3558 -0.0081
 1791TIP3   OH226931   5.879   3.563   2.296  0.1510  0.1957  0.0042
 1791TIP3    H126932   5.918   3.527   2.376  3.0014  1.2483 -0.7942
 1791TIP3    H226933   5.869   3.656   2.314  0.7380  0.4221 -0.8126
 1792TIP3   OH226934   3.583   1.967   1.172 -0.1511 -0.2735  0.8225
 1792TIP3    H126935   3.498   1.990   1.135  0.9984 -0.0840 -1.9943
 1792TIP3    H226936   3.615   2.047   1.213 -0.7434  0.0498  0.6571
 1793TIP3   OH226937   6.207   1.941   0.146 -0.5217  0.4107  0.0590
 1793TIP3    H126938   6.114   1.957   0.163 -0.3148  1.4993  0.2154
 1793TIP3    H226939   6.225   1.857   0.189 -1.9636 -1.0561 -2.0164
 1794TIP3   OH226940   1.268   4.423   7.572  0.4435  0.4495  0.4794
 1794TIP3    H126941   1.267   4.492   7.505  1.9080  1.4060  1.3853
 1794TIP3    H226942   1.360   4.398   7.578  0.0322 -1.0784  0.7004
 1795TIP3   OH226943   4.564   3.559   2.770 -0.1754 -0.1210  0.0008
 1795TIP3    H126944   4.632   3.496   2.744 -0.9440 -0.1648 -2.0859
 1795TIP3    H226945   4.610   3.642   2.780  0.1005  0.0970 -2.4743
 1796TIP3   OH226946   3.134   6.039   0.178 -0.0338 -0.0099  0.2934
 1796TIP3    H126947   3.086   6.105   0.228  0.7373  0.9672 -0.2490
 1796TIP3    H226948   3.077   5.961   0.182 -1.9504  1.2409 -0.7414
 1797TIP3   OH226949   4.145   6.489   2.381  0.3919  0.3489 -0.0859
 1797TIP3    H126950   4.182   6.446   2.458  0.0738  0.0493 -0.0984
 1797TIP3    H226951   4.220   6.506   2.325  0.4328 -0.9653 -0.4618
 1798TIP3   OH226952   1.013   1.219   0.979  0.0546  0.1835 -0.4668
 1798TIP3    H126953   1.049   1.186   1.061 -1.0892  0.8388  0.3287
 1798TIP3    H226954   1.084   1.269   0.940 -0.3135  2.7000  1.7754
 1799TIP3   OH226955   6.697   2.017   0.795  0.3860 -0.0597  0.0933
 1799TIP3    H126956   6.714   1.935   0.841  2.3275 -1.1461 -2.3360
 1799TIP3    H226957   6.773   2.072   0.815 -0.2090  0.6118  0.5489
 1800TIP3   OH226958   0.443   4.159   0.140  0.3187  0.0681 -0.6925
 1800TIP3    H126959   0.486   4.141   0.057  3.2449  1.3562  0.3901
 1800TIP3    H226960   0.364   4.207   0.117  0.3198 -0.8349 -2.7470
 1801TIP3   OH226961   2.742   1.927   2.602  0.0177 -0.1974 -0.4572
 1801TIP3    H126962   2.682   2.000   2.617 -0.3926 -0.6205  0.0651
 1801TIP3    H226963   2.689   1.849   2.623  1.2498 -0.5055  1.8879
 1802TIP3   OH226964   4.911   0.464   1.826  0.4314 -0.1181  0.1669
 1802TIP3    H126965   4.954   0.408   1.891 -0.7028 -1.0906  0.1013
 1802TIP3    H226966   4.818   0.460   1.848 -0.0008 -0.6186 -1.6119
 1803TIP3   OH226967   0.700   6.545   0.406 -0.0008 -0.5645 -0.6653
 1803TIP3    H126968   0.626   6.601   0.386  0.8542  1.3091  1.0088
 1803TIP3    H226969   0.746   6.535   0.322 -1.5183 -0.8719 -1.4938
 1804TIP3   OH226970   1.140   1.911   1.404  0.4990 -0.0541  0.1575
 1804TIP3    H126971   1.213   1.877   1.353  0.8892  0.7820  0.1501
 1804TIP3    H226972   1.128   2.001   1.374 -0.0977  0.0391  0.6334
 1805TIP3   OH226973   4.237   5.944   0.946 -0.0231  0.2944  0.6470
 1805TIP3    H126974   4.280   5.966   0.863  1.0011 -2.2444  0.4235
 1805TIP3    H226975   4.307   5.944   1.011 -0.0753 -1.5276  0.7463
 1806TIP3   OH226976   5.077   2.320   0.975 -0.2823 -0.2964  0.6455
 1806TIP3    H126977   5.120   2.266   0.909  2.3522 -1.2234  2.9277
 1806TIP3    H226978   5.029   2.257   1.029 -0.4017  0.1171  1.0218
 1807TIP3   OH226979   1.579   5.761   2.266  0.0344  0.1762  0.3085
 1807TIP3    H126980   1.587   5.824   2.337 -0.0248  0.4028  0.1156
 1807TIP3    H226981   1.515   5.697   2.298 -0.3049  0.5034  0.2982
 1808TIP3   OH226982   1.932   5.669   1.927  0.1498 -0.6003 -0.3828
 1808TIP3    H126983   1.868   5.624   1.981 -0.0199 -0.9302 -0.8491
 1808TIP3    H226984   1.944   5.754   1.969  0.8518 -1.2542  0.7859
 1809TIP3   OH226985   4.559   2.661   1.500  0.2266  0.3307 -0.2931
 1809TIP3    H126986   4.466   2.683   1.495 -0.1017 -0.7993  0.4241
 1809TIP3    H226987   4.603   2.731   1.452 -0.8299  1.8859  0.8909
 1810TIP3   OH226988   2.280   3.052   2.043 -0.2255  0.4892 -0.0280
 1810TIP3    H126989   2.337   3.047   1.966 -0.5789  1.1580 -0.3426
 1810TIP3    H226990   2.341   3.053   2.117  0.1255  0.0067 -0.3002
 1811TIP3   OH226991   2.291   5.556   2.392 -0.5802  0.0124  0.1806
 1811TIP3    H126992   2.352   5.630   2.385  2.2571 -1.9614  2.0825
 1811TIP3    H226993   2.321   5.493   2.327 -1.0476 -0.7472  0.6885
 1812TIP3   OH226994   2.098   2.267   8.222 -0.4310 -0.4204 -1.0981
 1812TIP3    H126995   2.012   2.277   8.264 -0.8633  0.9833 -2.2305
 1812TIP3    H226996   2.144   2.348   8.245  0.4734 -1.0133 -0.7849
 1813TIP3   OH226997   2.531   2.332   1.782 -0.3081  0.1982 -0.2519
 1813TIP3    H126998   2.571   2.248   1.800  0.8496  0.9176  0.6567
 1813TIP3    H226999   2.604   2.390   1.761 -0.9746  1.2219  0.1464
 1814TIP3   OH227000   5.838   5.185   0.199  0.0802 -0.3770 -0.2549
 1814TIP3    H127001   5.779   5.111   0.213 -1.4621  0.9705  0.7417
 1814TIP3    H227002   5.856   5.219   0.287  1.1093  0.1686 -0.6562
 1815TIP3   OH227003   1.321   6.531   7.173 -0.4408  0.3778 -0.3911
 1815TIP3    H127004   1.250   6.467   7.171  0.6977 -1.0226  0.9865
 1815TIP3    H227005   1.395   6.487   7.131  0.3720  0.7495  0.5977
 1816TIP3   OH227006   6.755   3.151   3.048  0.2017 -0.3045 -0.3588
 1816TIP3    H127007   6.728   3.180   2.961  0.1288 -0.2777 -0.3276
 1816TIP3    H227008   6.688   3.089   3.075  1.1686 -1.6937 -1.0637
 1817TIP3   OH227009   5.912   1.084   7.991  0.5484  0.4642  0.2647
 1817TIP3    H127010   5.909   1.067   7.897 -2.0285  0.4725  0.2588
 1817TIP3    H227011   5.943   1.174   7.998  1.7689  0.1312 -0.4749
 1818TIP3   OH227012   5.077   2.626   0.497 -0.4058  0.7431  0.6336
 1818TIP3    H127013   5.094   2.627   0.591 -0.2181  0.2775  0.6079
 1818TIP3    H227014   5.040   2.713   0.478 -0.0103  1.0064  1.0517
 1819TIP3   OH227015   6.789   3.637   7.998  0.0185  0.1281  0.3558
 1819TIP3    H127016   6.740   3.710   8.036 -0.9884 -0.0513 -0.5639
 1819TIP3    H227017   6.724   3.568   7.987  0.6881 -0.4511  0.0184
 1820TIP3   OH227018   6.455   2.882   8.696  0.1814 -0.1769 -0.1296
 1820TIP3    H127019   6.406   2.801   8.708  0.3869 -0.2835 -0.0096
 1820TIP3    H227020   6.525   2.859   8.635  0.6318 -0.2518  0.4146
 1821TIP3   OH227021   3.016   4.285   8.426 -0.2383 -0.2512  0.3013
 1821TIP3    H127022   3.015   4.299   8.521 -2.5499 -1.1242  0.4726
 1821TIP3    H227023   3.059   4.201   8.414 -0.2406 -0.2935  0.5996
 1822TIP3   OH227024   0.658   2.265   8.369 -0.2824  0.1763 -0.3429
 1822TIP3    H127025   0.675   2.175   8.396 -1.7397  0.0920  0.3479
 1822TIP3    H227026   0.577   2.261   8.319 -0.2382  1.0751 -0.5188
 1823TIP3   OH227027   5.252   6.074   1.701  0.2953  0.2907  0.1223
 1823TIP3    H127028   5.174   6.022   1.720 -0.2615  0.5820 -1.2207
 1823TIP3    H227029   5.235   6.159   1.741 -0.7426  0.8194 -1.3611
 1824TIP3   OH227030   5.280   5.634   2.411 -0.5686  0.2282  0.4839
 1824TIP3    H127031   5.370   5.657   2.388 -0.8494  0.0990 -0.8723
 1824TIP3    H227032   5.252   5.702   2.472 -0.3153  1.6566 -0.9321
 1825TIP3   OH227033   1.272   4.628   1.005 -0.1748  0.0608 -0.0162
 1825TIP3    H127034   1.195   4.577   1.032 -0.2851 -0.0759 -0.5707
 1825TIP3    H227035   1.309   4.661   1.087  0.0920 -1.1937  0.3927
 1826TIP3   OH227036   3.927   2.192   7.470  0.0393  0.5813 -0.2090
 1826TIP3    H127037   3.900   2.197   7.562  0.6583  0.2406 -0.0064
 1826TIP3    H227038   3.866   2.251   7.425 -1.5658 -0.7382  0.1152
 1827TIP3   OH227039   0.469   5.692   2.226 -0.5034 -0.1711  0.2127
 1827TIP3    H127040   0.486   5.777   2.266 -2.2001 -0.5070  1.8174
 1827TIP3    H227041   0.550   5.643   2.239 -0.0053  0.7176  0.5885
 1828TIP3   OH227042   1.902   0.554   0.171 -0.0626 -0.3221  0.3623
 1828TIP3    H127043   1.895   0.517   0.083  0.1454 -1.1688  0.6902
 1828TIP3    H227044   1.965   0.626   0.161  0.0923 -0.5205 -0.1499
 1829TIP3   OH227045   5.255   5.847   8.545 -0.1030  0.1470  0.1150
 1829TIP3    H127046   5.213   5.785   8.486 -1.7848 -0.6812  2.0483
 1829TIP3    H227047   5.347   5.821   8.545  0.0914  0.5449 -2.4897
 1830TIP3   OH227048   0.449   2.632   7.494  0.2620 -0.1040 -0.0495
 1830TIP3    H127049   0.373   2.588   7.457  0.6804 -0.3386 -0.6471
 1830TIP3    H227050   0.478   2.692   7.425  0.3285  0.3450  0.3596
 1831TIP3   OH227051   1.735   4.754   1.243 -0.5446 -0.0169 -1.3283
 1831TIP3    H127052   1.789   4.676   1.233 -2.5181 -1.9360  1.5924
 1831TIP3    H227053   1.798   4.827   1.239  2.1166 -2.0173  0.4700
 1832TIP3   OH227054   5.179   2.223   0.718  0.0824  0.4930 -0.8236
 1832TIP3    H127055   5.204   2.284   0.648  2.4136 -0.4238 -0.8876
 1832TIP3    H227056   5.199   2.136   0.682  0.0767 -0.0696  0.4896
 1833TIP3   OH227057   5.905   4.793   7.711 -0.0292  0.6146 -0.0679
 1833TIP3    H127058   5.954   4.737   7.651 -0.9483 -0.8925  0.5062
 1833TIP3    H227059   5.829   4.822   7.661  0.6214  1.6412 -0.4699
 1834TIP3   OH227060   5.254   0.681   2.173 -0.6921 -0.4687 -0.0509
 1834TIP3    H127061   5.304   0.748   2.219  0.3126 -1.0402 -0.2776
 1834TIP3    H227062   5.169   0.722   2.155 -1.5830 -0.5606  3.2138
 1835TIP3   OH227063   2.127   4.779   2.305 -0.3553  0.2480 -0.1550
 1835TIP3    H127064   2.126   4.746   2.395  0.7746 -0.8865 -0.5342
 1835TIP3    H227065   2.204   4.835   2.300  0.7152 -1.2242 -0.9014
 1836TIP3   OH227066   3.433   4.049   0.462  0.3943  0.0428  0.3816
 1836TIP3    H127067   3.495   4.085   0.399  0.2327 -0.0433  0.1699
 1836TIP3    H227068   3.482   4.042   0.544 -0.4003  3.7087  1.3232
 1837TIP3   OH227069   4.834   3.084   0.091  0.2234 -0.5037  0.1475
 1837TIP3    H127070   4.917   3.132   0.084 -0.3369  0.4302 -0.2301
 1837TIP3    H227071   4.804   3.075   0.000 -0.3775 -0.3182  0.3270
 1838TIP3   OH227072   2.632   3.513   0.385 -0.2736  0.6997 -0.4122
 1838TIP3    H127073   2.665   3.571   0.317  0.8556 -0.2243 -0.6877
 1838TIP3    H227074   2.681   3.537   0.464  1.6833 -1.1200 -0.9736
 1839TIP3   OH227075   5.048   6.679   2.187 -0.1731  0.4957 -0.8905
 1839TIP3    H127076   5.046   6.586   2.209 -2.0071  0.7398  0.1134
 1839TIP3    H227077   4.973   6.692   2.130 -0.1678  1.4300 -0.6936
 1840TIP3   OH227078   6.248   4.694   7.732  0.3825 -0.7274 -0.1268
 1840TIP3    H127079   6.179   4.647   7.684  1.5576 -1.3697 -1.2440
 1840TIP3    H227080   6.297   4.625   7.777  0.5382 -0.3058  0.3547
 1841TIP3   OH227081   4.760   0.264   2.222 -0.4895  0.3447  0.6058
 1841TIP3    H127082   4.827   0.211   2.264 -1.4577  0.6544  2.6362
 1841TIP3    H227083   4.727   0.208   2.151  0.2068 -0.7608  1.1227
 1842TIP3   OH227084   1.069   4.552   7.958  0.0677 -0.0810 -0.3064
 1842TIP3    H127085   1.065   4.638   7.917  0.5329 -0.8327 -2.0324
 1842TIP3    H227086   1.159   4.523   7.943  0.7680  0.2224  2.6903
 1843TIP3   OH227087   2.377   3.366   8.076  0.0096 -0.4910  0.7177
 1843TIP3    H127088   2.400   3.413   8.157 -4.2346  2.3469  0.6014
 1843TIP3    H227089   2.406   3.424   8.006 -0.4186 -0.7100  0.3577
 1844TIP3   OH227090   5.534   6.187   8.833  0.5983 -0.0463 -0.4176
 1844TIP3    H127091   5.622   6.154   8.817  0.7328  0.3548 -0.5242
 1844TIP3    H227092   5.547   6.276   8.867  0.3777 -1.0655  2.6267
 1845TIP3   OH227093   6.116   3.819   1.936 -0.0111  0.0005  0.3199
 1845TIP3    H127094   6.155   3.892   1.889  1.2576 -0.4011  0.7101
 1845TIP3    H227095   6.138   3.742   1.883 -0.9439 -0.1624  0.1471
 1846TIP3   OH227096   1.698   2.739   6.622 -0.4993  0.6815  0.3354
 1846TIP3    H127097   1.643   2.812   6.651 -0.4920  0.5246  0.7482
 1846TIP3    H227098   1.641   2.662   6.629 -0.6624  0.7105 -0.5662
 1847TIP3   OH227099   1.587   5.120   8.470 -0.0113 -0.5551 -0.4641
 1847TIP3    H127100   1.585   5.184   8.542  1.0109 -0.8461 -0.1612
 1847TIP3    H227101   1.502   5.077   8.474 -0.0584 -0.4036  0.4353
 1848TIP3   OH227102   6.237   4.812   7.988 -0.3392  0.0711  0.2502
 1848TIP3    H127103   6.242   4.904   8.013  0.3872  0.1852 -0.2830
 1848TIP3    H227104   6.271   4.809   7.899  1.2036 -0.9371  0.8203
 1849TIP3   OH227105   6.516   6.695   0.562 -0.1280 -0.4003 -0.0558
 1849TIP3    H127106   6.469   6.752   0.501 -0.5618 -2.7656 -2.0855
 1849TIP3    H227107   6.608   6.717   0.548 -0.2771 -0.3087 -0.9499
 1850TIP3   OH227108   4.700   1.603   8.196  0.1851 -0.0931  0.5384
 1850TIP3    H127109   4.760   1.641   8.131 -1.3392  0.7449 -0.4538
 1850TIP3    H227110   4.756   1.550   8.252  1.3849 -2.5966 -2.6948
 1851TIP3   OH227111   6.343   0.593   7.684  0.7589 -0.2581  0.1213
 1851TIP3    H127112   6.380   0.564   7.768 -0.3724 -0.4712  0.5693
 1851TIP3    H227113   6.296   0.516   7.651 -0.8785  0.5204  0.5152
 1852TIP3   OH227114   5.594   3.516   8.052  0.5575 -0.1845 -0.2603
 1852TIP3    H127115   5.528   3.582   8.031  0.4045 -0.2056  0.1351
 1852TIP3    H227116   5.585   3.449   7.984 -0.2345 -0.4823  0.1266
 1853TIP3   OH227117   3.797   5.610   1.100 -0.0958  0.6576 -0.2616
 1853TIP3    H127118   3.867   5.650   1.048  0.5534 -1.4147 -1.1074
 1853TIP3    H227119   3.729   5.588   1.036  0.2767 -1.0186 -0.1104
 1854TIP3   OH227120   5.182   5.709   7.252  0.0376  0.3212 -0.2806
 1854TIP3    H127121   5.150   5.672   7.170  1.9865 -0.5526 -0.6929
 1854TIP3    H227122   5.214   5.633   7.302  0.4892  1.0317  0.5385
 1855TIP3   OH227123   1.156   2.082   1.012 -0.0489 -0.1275  0.3656
 1855TIP3    H127124   1.165   2.135   0.933 -0.4880  0.3064  0.5978
 1855TIP3    H227125   1.074   2.111   1.051 -0.6291 -1.4300  0.1739
 1856TIP3   OH227126   6.618   2.231   0.669  0.1392 -0.0033 -0.0734
 1856TIP3    H127127   6.652   2.155   0.716  0.5098  0.9259  1.2242
 1856TIP3    H227128   6.530   2.244   0.705  0.1796  0.3313 -0.0933
 1857TIP3   OH227129   2.512   0.981   8.130 -0.4042 -0.2746  0.2276
 1857TIP3    H127130   2.584   0.986   8.192 -0.5445 -3.0719  0.7433
 1857TIP3    H227131   2.439   1.024   8.175  0.6130  1.6692  0.1134
 1858TIP3   OH227132   3.314   0.683   7.458 -0.9186  0.9968 -0.2780
 1858TIP3    H127133   3.259   0.619   7.502 -0.0974  1.1680  1.0528
 1858TIP3    H227134   3.390   0.633   7.429 -0.8003  1.1477 -0.2295
 1859TIP3   OH227135   0.648   2.894   1.426 -0.0743  0.7783 -0.6906
 1859TIP3    H127136   0.734   2.871   1.461 -0.6939 -0.3364  0.1910
 1859TIP3    H227137   0.624   2.975   1.471 -1.0044 -0.7932  1.9256
 1860TIP3   OH227138   1.351   3.936   2.502  0.0482  0.1317  0.4409
 1860TIP3    H127139   1.400   3.951   2.421  0.2148  0.0739  0.5305
 1860TIP3    H227140   1.289   4.009   2.507  0.7531  0.7158  0.7997
 1861TIP3   OH227141   6.674   2.974   2.049 -0.3655  0.6403  0.1264
 1861TIP3    H127142   6.743   2.936   2.104 -0.7670  0.2165  0.3344
 1861TIP3    H227143   6.711   3.058   2.021  0.4798  0.1715 -0.2385
 1862TIP3   OH227144   0.711   3.700   1.925 -0.3759 -0.0879  0.1134
 1862TIP3    H127145   0.761   3.619   1.938 -1.5767 -0.7325  1.0993
 1862TIP3    H227146   0.760   3.767   1.973  0.2643 -0.3915 -0.1106
 1863TIP3   OH227147   6.544   2.567   8.544 -0.5860  0.6311 -0.7560
 1863TIP3    H127148   6.617   2.620   8.575 -0.7706  0.3086  0.2974
 1863TIP3    H227149   6.574   2.530   8.461  0.5127  0.3520 -0.2518
 1864TIP3   OH227150   4.284   6.470   1.120 -0.1475 -0.6517 -0.1619
 1864TIP3    H127151   4.376   6.454   1.139 -0.0275  1.0464  0.8786
 1864TIP3    H227152   4.281   6.560   1.089 -1.4258 -0.8048 -0.5505
 1865TIP3   OH227153   2.356   3.139   7.397 -0.3168 -0.1641  0.0799
 1865TIP3    H127154   2.261   3.138   7.380 -0.5138  2.2336  0.5918
 1865TIP3    H227155   2.389   3.207   7.337  0.9420 -0.3592  0.5372
 1866TIP3   OH227156   5.538   2.556   7.403  0.3171  0.1245 -0.1597
 1866TIP3    H127157   5.606   2.491   7.420  1.6319  1.8280  1.4969
 1866TIP3    H227158   5.513   2.541   7.312  3.0467 -0.4562 -0.9137
 1867TIP3   OH227159   3.183   3.375   8.235  0.6281  0.1365  0.5495
 1867TIP3    H127160   3.246   3.329   8.180  0.9270  0.1443  0.8831
 1867TIP3    H227161   3.127   3.422   8.173  0.0869 -0.9529  0.1839
 1868TIP3   OH227162   6.173   6.089   0.120 -0.0415 -0.2956 -0.1065
 1868TIP3    H127163   6.175   6.038   0.039  0.0966  0.5227 -0.6214
 1868TIP3    H227164   6.265   6.102   0.142 -0.0501 -1.8856  1.0743
 1869TIP3   OH227165   4.951   5.368   7.065  0.0007  0.0201  0.2648
 1869TIP3    H127166   4.870   5.387   7.020  0.6731  0.9873 -0.5768
 1869TIP3    H227167   5.007   5.444   7.047  0.5899  0.0531  2.0198
 1870TIP3   OH227168   6.642   0.730   8.602  0.0870 -0.0213  0.7285
 1870TIP3    H127169   6.575   0.787   8.565 -1.0839 -1.3253  0.7690
 1870TIP3    H227170   6.691   0.699   8.526  0.4633  0.7021  0.6710
 1871TIP3   OH227171   0.360   6.632   0.070  0.2079  0.6967 -0.0477
 1871TIP3    H127172   0.416   6.619   0.146 -0.2833  0.1314  0.2202
 1871TIP3    H227173   0.407   6.589  -0.002 -0.2578 -0.4983  0.3425
 1872TIP3   OH227174   6.669   0.424   1.231 -0.1281 -0.0931 -0.1985
 1872TIP3    H127175   6.721   0.430   1.150  0.4035 -2.8853 -0.1598
 1872TIP3    H227176   6.733   0.433   1.301 -0.0627 -0.8870 -0.1423
 1873TIP3   OH227177   1.409   4.918   8.583  0.3026 -0.3751  0.6850
 1873TIP3    H127178   1.468   4.845   8.562 -0.0407 -0.2431 -0.8582
 1873TIP3    H227179   1.322   4.877   8.587  0.4506 -0.6329  3.2904
 1874TIP3   OH227180   1.202   6.276   7.747  0.1463  0.0467 -0.0577
 1874TIP3    H127181   1.121   6.236   7.779  0.4497 -1.3718 -0.9721
 1874TIP3    H227182   1.174   6.355   7.703 -0.5939  0.2876  0.8181
 1875TIP3   OH227183   0.012   1.085   1.613 -0.2468  0.1218 -0.4302
 1875TIP3    H127184  -0.000   1.160   1.671  0.2004  0.5740 -0.9126
 1875TIP3    H227185  -0.037   1.014   1.655 -1.4714  0.9276 -0.4752
 1876TIP3   OH227186   3.488   3.635   7.360  0.1639  0.1106 -0.3390
 1876TIP3    H127187   3.433   3.585   7.300 -2.2930 -0.7648  2.4011
 1876TIP3    H227188   3.531   3.700   7.305 -1.0567 -1.2915 -3.1514
 1877TIP3   OH227189   0.517   5.487   0.681  0.8866 -0.3103 -0.1388
 1877TIP3    H127190   0.582   5.527   0.739 -0.0708 -1.5801  1.9282
 1877TIP3    H227191   0.542   5.395   0.677  0.2256 -0.4664 -0.7654
 1878TIP3   OH227192   2.465   5.047   8.755 -0.3679 -0.0870  0.1327
 1878TIP3    H127193   2.436   5.128   8.797  0.6514  0.1179  0.4641
 1878TIP3    H227194   2.453   5.062   8.662  0.4739  0.7166  0.1458
 1879TIP3   OH227195   3.747   1.482   1.866  0.2600 -0.2158  0.1744
 1879TIP3    H127196   3.728   1.441   1.951 -0.0550 -0.8883 -0.2133
 1879TIP3    H227197   3.824   1.435   1.834 -0.5785 -1.0883 -0.6386
 1880TIP3   OH227198   2.016   1.524   8.010 -0.0317  0.3599 -0.4554
 1880TIP3    H127199   2.046   1.594   8.069 -1.3910  1.0560 -0.5431
 1880TIP3    H227200   1.925   1.546   7.992 -0.9076 -2.1322  0.5344
 1881TIP3   OH227201   6.338   3.311   0.468  0.2912 -0.1180  0.1573
 1881TIP3    H127202   6.260   3.259   0.448  1.0835 -2.4467  2.4435
 1881TIP3    H227203   6.306   3.384   0.520 -0.4673 -0.6415  0.4455
 1882TIP3   OH227204   5.831   5.630   0.314  0.0234  0.0511 -0.0918
 1882TIP3    H127205   5.878   5.713   0.312 -0.9156  0.5886 -0.5652
 1882TIP3    H227206   5.798   5.623   0.404 -1.8973  1.3778 -0.6268
 1883TIP3   OH227207   5.334   4.447   8.641 -0.4125  0.3398 -0.0122
 1883TIP3    H127208   5.368   4.526   8.683  3.5854 -1.3214  0.3153
 1883TIP3    H227209   5.338   4.466   8.547  0.1317  0.6884  0.0769
 1884TIP3   OH227210   4.157   5.439   1.549 -0.1246  0.2099  0.3368
 1884TIP3    H127211   4.181   5.526   1.580 -1.1733  0.2415  1.1053
 1884TIP3    H227212   4.223   5.418   1.483  0.4805  1.3369  0.5616
 1885TIP3   OH227213   5.410   3.954   8.273  0.2134  0.5792  0.2117
 1885TIP3    H127214   5.441   3.903   8.347 -2.4752 -0.1393  0.9393
 1885TIP3    H227215   5.372   3.889   8.213 -0.8467  1.4645 -0.1032
 1886TIP3   OH227216   6.043   1.782   6.776 -0.3544  0.5782  0.1890
 1886TIP3    H127217   6.013   1.861   6.822  1.0814  0.7353  0.8956
 1886TIP3    H227218   6.020   1.710   6.836 -0.6402  0.5596  0.0588
 1887TIP3   OH227219   2.458   2.742   7.316 -0.5307  0.3408 -0.0519
 1887TIP3    H127220   2.426   2.661   7.277 -1.0153 -0.1310  1.2910
 1887TIP3    H227221   2.545   2.754   7.278 -0.7736 -0.3714 -0.8635
 1888TIP3   OH227222   5.625   5.619   1.116  0.2534  0.6717  0.4498
 1888TIP3    H127223   5.711   5.657   1.099  0.0023  1.3510  0.6820
 1888TIP3    H227224   5.584   5.678   1.178 -0.2914  0.2176  0.5322
 1889TIP3   OH227225   5.115   5.324   7.814  0.4036 -0.1184 -0.1505
 1889TIP3    H127226   5.037   5.338   7.868  1.5438 -2.8070  2.5152
 1889TIP3    H227227   5.081   5.308   7.726 -2.0441 -1.0257  0.8754
 1890TIP3   OH227228   2.475   6.465   7.120 -0.0079 -0.5947 -0.1974
 1890TIP3    H127229   2.545   6.524   7.147 -0.0089 -0.5532 -0.2842
 1890TIP3    H227230   2.448   6.421   7.200  0.6782 -1.2126 -0.2884
 1891TIP3   OH227231   4.619   2.332   1.501  0.1996 -0.0244  0.1058
 1891TIP3    H127232   4.524   2.319   1.510  0.2526 -2.2984 -1.7560
 1891TIP3    H227233   4.636   2.415   1.547 -2.8282  1.0252 -0.4261
 1892TIP3   OH227234   0.112   3.687   7.403  0.6512  0.4744  0.3133
 1892TIP3    H127235   0.018   3.701   7.393  0.0215 -3.0876 -0.1184
 1892TIP3    H227236   0.153   3.749   7.342 -1.7223 -0.9776 -3.0781
 1893TIP3   OH227237   0.819   1.938   2.033 -0.2050 -0.1945 -0.0195
 1893TIP3    H127238   0.770   2.004   1.984 -0.5491 -0.3435  0.1169
 1893TIP3    H227239   0.857   1.881   1.966  1.4734  1.0826 -0.2090
 1894TIP3   OH227240   4.892   0.208   8.126  0.2580 -0.0182 -0.2890
 1894TIP3    H127241   4.865   0.168   8.209  1.4064 -0.1135  0.0450
 1894TIP3    H227242   4.827   0.176   8.063  0.3455 -1.3081  0.2383
 1895TIP3   OH227243   4.531   0.155   1.441  0.0779  0.4065  0.1393
 1895TIP3    H127244   4.471   0.214   1.486  0.2577 -0.6041  1.7956
 1895TIP3    H227245   4.598   0.134   1.506 -1.2610 -3.5175  0.5426
 1896TIP3   OH227246   4.205   2.161   7.553 -0.2130  0.4459 -0.2778
 1896TIP3    H127247   4.124   2.212   7.543 -1.0045 -0.5679  0.7222
 1896TIP3    H227248   4.221   2.160   7.648 -0.1755 -1.0646 -0.2777
 1897TIP3   OH227249   1.079   2.509   0.177 -0.3938  0.1863 -0.0120
 1897TIP3    H127250   1.001   2.556   0.148 -0.6645 -1.1787 -1.6372
 1897TIP3    H227251   1.050   2.462   0.255 -1.1082 -0.0018 -0.3781
 1898TIP3   OH227252   1.584   2.357   8.547  0.5954  0.0211  0.4320
 1898TIP3    H127253   1.658   2.301   8.569  0.2355 -0.5161  0.3155
 1898TIP3    H227254   1.561   2.332   8.458  0.9004  0.8929  0.1061
 1899TIP3   OH227255   1.647   0.965   1.748  0.1046  0.0720  0.4989
 1899TIP3    H127256   1.570   0.929   1.792  0.5759  0.5694  1.7657
 1899TIP3    H227257   1.719   0.908   1.774  0.4317  0.5190  0.5947
 1900TIP3   OH227258   3.458   0.879   1.985  0.2371 -0.7475  0.2509
 1900TIP3    H127259   3.423   0.958   1.944  0.4253 -1.1965 -0.8238
 1900TIP3    H227260   3.553   0.884   1.972  0.4021 -0.4390  1.4961
 1901TIP3   OH227261   4.263   0.362   2.763 -0.1655 -0.6731 -0.3052
 1901TIP3    H127262   4.174   0.381   2.733 -1.0711  0.7001  2.8126
 1901TIP3    H227263   4.260   0.271   2.793 -0.8903 -0.3353  0.7283
 1902TIP3   OH227264   0.498   1.096   0.705  0.0125  0.5684  0.0763
 1902TIP3    H127265   0.510   1.063   0.794 -0.2247 -1.9938 -0.7572
 1902TIP3    H227266   0.581   1.078   0.662  0.3317  2.3235 -0.1402
 1903TIP3   OH227267   3.121   3.107   8.503  0.1202  0.1075  0.1028
 1903TIP3    H127268   3.051   3.168   8.483  1.0080  1.7858  1.8041
 1903TIP3    H227269   3.201   3.150   8.471  0.6549 -0.5835  0.4625
 1904TIP3   OH227270   2.581   0.656   1.717  0.0363 -0.2317 -0.2347
 1904TIP3    H127271   2.597   0.689   1.628 -1.5551  1.5415  0.0817
 1904TIP3    H227272   2.487   0.666   1.729 -0.1353 -2.5572  0.8818
 1905TIP3   OH227273   6.481   0.847   2.419  0.1152 -0.6813 -0.5450
 1905TIP3    H127274   6.576   0.855   2.414  0.3425 -3.2165 -4.2959
 1905TIP3    H227275   6.467   0.767   2.470  0.0372 -0.8109 -0.7704
 1906TIP3   OH227276   6.032   0.542   8.643  0.2738  0.0675 -0.3412
 1906TIP3    H127277   5.981   0.504   8.571 -0.0347  0.5577 -0.3862
 1906TIP3    H227278   5.970   0.548   8.716  0.0012  1.5168 -0.6720
 1907TIP3   OH227279   5.792   4.618   0.161  0.0260 -0.1436 -0.3230
 1907TIP3    H127280   5.723   4.565   0.200 -0.5379 -0.3905 -1.6047
 1907TIP3    H227281   5.856   4.554   0.129  0.9885  0.0894  1.0600
 1908TIP3   OH227282   0.943   4.807   7.925 -0.0086  0.5354  0.2961
 1908TIP3    H127283   0.865   4.860   7.940  1.3213  2.6343  0.1508
 1908TIP3    H227284   0.973   4.832   7.837  0.2355 -1.0743 -0.1172
 1909TIP3   OH227285   5.264   0.036   8.705  0.2307 -0.4935 -0.0202
 1909TIP3    H127286   5.184  -0.013   8.690  1.3328 -2.3573 -0.1152
 1909TIP3    H227287   5.306   0.041   8.619  0.7072 -0.4487  0.2125
 1910TIP3   OH227288   4.128   3.353   1.061 -0.4511 -0.1193  0.4235
 1910TIP3    H127289   4.085   3.426   1.105  0.8259 -0.1971  1.9069
 1910TIP3    H227290   4.141   3.288   1.130  0.1402 -0.9677 -0.4565
 1911TIP3   OH227291   1.799   2.291   6.874  0.0604 -0.0809 -0.0901
 1911TIP3    H127292   1.852   2.325   6.802  1.9163  0.8781  1.6088
 1911TIP3    H227293   1.848   2.215   6.906  2.0611  2.2329  3.0863
 1912TIP3   OH227294   3.627   2.135   0.947 -0.1985  0.6604 -0.4194
 1912TIP3    H127295   3.612   2.051   0.991  0.6979 -0.4121 -2.0647
 1912TIP3    H227296   3.541   2.178   0.947 -0.5157  0.0743  1.0626
 1913TIP3   OH227297   4.536   0.746   1.235 -0.7913  0.3098 -0.1237
 1913TIP3    H127298   4.491   0.669   1.202  0.7361 -1.0105  0.6841
 1913TIP3    H227299   4.470   0.795   1.284 -1.5879 -0.9821  0.1185
 1914TIP3   OH227300   1.126   5.894   0.919 -0.1463 -0.9119 -0.3300
 1914TIP3    H127301   1.127   5.803   0.889 -0.7209 -1.9226  2.4397
 1914TIP3    H227302   1.216   5.910   0.949 -0.2603 -0.8439 -0.0276
 1915TIP3   OH227303   4.578   4.263   2.197 -0.2020  0.3509 -0.2176
 1915TIP3    H127304   4.521   4.302   2.131 -1.4619 -0.8425  0.1252
 1915TIP3    H227305   4.648   4.220   2.146 -0.1708  0.9534 -0.6870
 1916TIP3   OH227306   3.606   5.471   8.527  0.0880  0.1191  1.1556
 1916TIP3    H127307   3.621   5.548   8.582 -0.1324  0.2163  1.0821
 1916TIP3    H227308   3.628   5.397   8.583  1.4169  0.2762  0.8555
 1917TIP3   OH227309   4.325   4.557   0.586 -0.4920  0.0120 -0.5639
 1917TIP3    H127310   4.273   4.499   0.641 -1.0827 -0.0585 -1.1749
 1917TIP3    H227311   4.267   4.632   0.568 -0.4778 -0.1725 -1.4383
 1918TIP3   OH227312   2.818   0.172   0.756  0.1397  0.5203 -0.0248
 1918TIP3    H127313   2.888   0.161   0.820 -0.1456 -1.6656 -0.0344
 1918TIP3    H227314   2.863   0.179   0.672  0.4645  2.4319  0.2684
 1919TIP3   OH227315   6.345   2.204   0.760  0.1062 -0.3381  0.5286
 1919TIP3    H127316   6.334   2.112   0.738 -0.0639  0.1044 -1.3677
 1919TIP3    H227317   6.256   2.238   0.770  0.0207  0.2419 -1.6956
 1920TIP3   OH227318   4.918   2.069   7.789  0.2713 -0.4036  0.2316
 1920TIP3    H127319   4.840   2.115   7.820  0.4669 -0.8321  1.4081
 1920TIP3    H227320   4.980   2.139   7.768 -0.4524 -0.0545 -0.8602
 1921TIP3   OH227321   0.371   4.426   2.476 -0.0318 -0.0729  0.0346
 1921TIP3    H127322   0.381   4.358   2.543 -0.4175  1.1096  1.3458
 1921TIP3    H227323   0.458   4.433   2.436 -0.1481 -1.7724 -0.5988
 1922TIP3   OH227324   5.110   4.988   7.012 -0.4096 -0.0191  0.1539
 1922TIP3    H127325   5.180   5.044   7.047 -0.4453  0.1047  0.0241
 1922TIP3    H227326   5.154   4.905   6.993 -0.3300  0.0071  0.2214
 1923TIP3   OH227327   0.722   1.028   0.557  0.2804 -0.0027  0.0860
 1923TIP3    H127328   0.786   0.962   0.529  0.7981  0.2162  0.7289
 1923TIP3    H227329   0.762   1.112   0.536  0.0892  0.1292  0.2413
 1924TIP3   OH227330   2.291   1.245   1.913  0.2544  0.1270 -0.4703
 1924TIP3    H127331   2.244   1.244   1.996 -0.4444  0.2303 -0.8563
 1924TIP3    H227332   2.230   1.207   1.850  1.4742 -1.7483 -0.5880
 1925TIP3   OH227333   5.462   6.053   8.297  0.3722 -0.1296  0.4182
 1925TIP3    H127334   5.519   6.106   8.241  0.0688  0.8879  1.0549
 1925TIP3    H227335   5.481   6.083   8.386  0.1079 -1.0131  0.7840
 1926TIP3   OH227336   2.619   4.789   1.076 -0.7766 -0.3325  0.2589
 1926TIP3    H127337   2.543   4.740   1.046 -0.6920  0.7580 -1.9144
 1926TIP3    H227338   2.685   4.722   1.095 -0.6319 -1.1828 -2.7003
 1927TIP3   OH227339   4.644   0.770   1.789  0.1339 -0.4807 -0.1687
 1927TIP3    H127340   4.573   0.749   1.850 -0.4339  0.8262 -0.3437
 1927TIP3    H227341   4.615   0.736   1.705  0.6678 -1.7886  0.1517
 1928TIP3   OH227342   3.955   3.814   2.689  0.3480  0.1151  0.6403
 1928TIP3    H127343   3.860   3.799   2.690  0.4543 -0.6230  0.0371
 1928TIP3    H227344   3.964   3.906   2.662 -0.1443 -0.3999 -1.4063
 1929TIP3   OH227345   1.017   4.222   8.442  0.1091  0.5681  0.4162
 1929TIP3    H127346   1.023   4.308   8.401 -1.0535  1.1153  1.3317
 1929TIP3    H227347   1.085   4.223   8.509 -0.8508  1.3694  1.4159
 1930TIP3   OH227348   1.470   2.324   0.519  0.9869 -0.3847 -0.3584
 1930TIP3    H127349   1.554   2.348   0.479  0.7452  0.8144 -0.1767
 1930TIP3    H227350   1.416   2.296   0.444  0.9539  0.6167 -0.7185
 1931TIP3   OH227351   2.740   2.332   7.713 -0.4877 -0.2137 -0.1399
 1931TIP3    H127352   2.685   2.271   7.663 -2.1934  0.6914  0.5618
 1931TIP3    H227353   2.721   2.418   7.676  0.5951  0.1208  0.0378
 1932TIP3   OH227354   3.534   3.776   8.238  0.3008 -0.0062 -0.2934
 1932TIP3    H127355   3.545   3.806   8.148 -1.5047  2.4323  0.1848
 1932TIP3    H227356   3.480   3.697   8.231 -1.8841  1.4815 -1.3350
 1933TIP3   OH227357   0.901   3.106   1.768  0.0844  0.5889 -0.2526
 1933TIP3    H127358   0.931   3.162   1.696  0.0560  1.1703  0.1832
 1933TIP3    H227359   0.818   3.070   1.737  0.0691  0.8437 -0.5074
 1934TIP3   OH227360   6.399   6.232   2.210 -0.0918 -0.0529  0.0984
 1934TIP3    H127361   6.491   6.222   2.185  0.2719  0.6586  1.0588
 1934TIP3    H227362   6.379   6.324   2.193 -0.3774 -0.0061  0.6567
 1935TIP3   OH227363   0.607   5.227   0.665  0.9085  0.1559  0.0945
 1935TIP3    H127364   0.642   5.177   0.592 -0.3258  1.4361 -1.4599
 1935TIP3    H227365   0.514   5.206   0.666  1.1756 -1.4280  2.6899
 1936TIP3   OH227366   5.760   6.725   7.952  0.7703 -0.1076 -0.3163
 1936TIP3    H127367   5.691   6.681   7.903 -0.5572  0.7346  0.7365
 1936TIP3    H227368   5.783   6.801   7.899 -0.1192  0.3780 -0.0271
 1937TIP3   OH227369   5.119   6.702   2.546  0.4476 -0.2392  0.7210
 1937TIP3    H127370   5.066   6.627   2.518  0.7203 -0.1234 -0.1098
 1937TIP3    H227371   5.057   6.774   2.552  0.6454  0.1410 -1.2236
 1938TIP3   OH227372   0.495   6.099   0.171 -0.3389  0.4442  0.0198
 1938TIP3    H127373   0.549   6.143   0.236 -1.4096 -1.0512  2.0010
 1938TIP3    H227374   0.507   6.006   0.188 -2.4292  0.0415 -0.3947
 1939TIP3   OH227375   5.028   1.813   7.821  0.5673  0.1492  0.7511
 1939TIP3    H127376   5.006   1.906   7.810  3.1327  0.7375 -0.3173
 1939TIP3    H227377   4.990   1.770   7.745 -0.5026  0.3326  1.1698
 1940TIP3   OH227378   4.550   0.464   8.763 -0.2077  0.3409  0.3862
 1940TIP3    H127379   4.480   0.478   8.826 -1.2922 -0.2290 -0.6639
 1940TIP3    H227380   4.551   0.544   8.710  0.1755  0.4868  0.6040
 1941TIP3   OH227381   3.826   2.594   8.408 -0.2355  0.1040  0.6021
 1941TIP3    H127382   3.818   2.658   8.479 -0.8717  0.5316  0.1610
 1941TIP3    H227383   3.737   2.560   8.397 -0.4049  0.9115 -0.7641
 1942TIP3   OH227384   3.049   5.864   8.432  0.1115  0.2903 -0.1233
 1942TIP3    H127385   3.128   5.828   8.473  0.1050 -0.3789 -0.6790
 1942TIP3    H227386   3.070   5.867   8.339 -0.0720  1.2868 -0.1335
 1943TIP3   OH227387   0.251   5.540   0.787  0.6003 -0.3576  0.5195
 1943TIP3    H127388   0.268   5.499   0.872  1.2830 -0.2319  0.4459
 1943TIP3    H227389   0.332   5.527   0.738  0.6403  0.6377  0.3145
 1944TIP3   OH227390   3.893   5.731   7.933 -0.5606  0.2432 -0.3164
 1944TIP3    H127391   3.798   5.746   7.931 -0.6051  0.0094  0.1038
 1944TIP3    H227392   3.903   5.640   7.905 -0.4316  0.3934 -0.7626
 1945TIP3   OH227393   2.904   0.780   7.973  0.0743 -0.2126  0.3923
 1945TIP3    H127394   2.825   0.834   7.967  1.1096  1.3796  0.6529
 1945TIP3    H227395   2.954   0.818   8.045 -0.2384 -3.0103  2.2672
 1946TIP3   OH227396   5.459   6.588   6.959  0.3991 -0.0785 -0.0821
 1946TIP3    H127397   5.399   6.540   7.016  1.7877 -0.1173  1.4040
 1946TIP3    H227398   5.531   6.526   6.942  1.7953  1.1378  1.1580
 1947TIP3   OH227399   0.746   0.041   1.171  0.1665 -0.4543 -0.7726
 1947TIP3    H127400   0.791   0.119   1.138 -0.6264 -0.1615 -1.1970
 1947TIP3    H227401   0.801   0.011   1.244  0.5736  0.4057 -0.7049
 1948TIP3   OH227402   5.246   3.422   1.829  0.5582 -0.3503  0.3843
 1948TIP3    H127403   5.158   3.388   1.843 -0.1777  0.3639 -1.9957
 1948TIP3    H227404   5.296   3.390   1.904 -2.4141  2.0773  3.7308
 1949TIP3   OH227405   1.746   1.869   8.064 -0.2009  0.3349 -0.4544
 1949TIP3    H127406   1.831   1.861   8.022 -1.0430  0.6805 -2.2963
 1949TIP3    H227407   1.746   1.956   8.104  0.5609  0.0418  0.2225
 1950TIP3   OH227408   2.928   0.461   1.537 -0.5681  0.3870 -0.4076
 1950TIP3    H127409   2.930   0.553   1.510  0.4808  0.3527 -0.5095
 1950TIP3    H227410   2.901   0.463   1.629  3.8393  1.2587  1.1060
 1951TIP3   OH227411   6.250   1.029   8.499  0.6674 -0.3027 -0.0171
 1951TIP3    H127412   6.156   1.022   8.484  0.6563  1.0867 -0.7895
 1951TIP3    H227413   6.260   1.108   8.553  1.5093  0.8486 -1.7497
 1952TIP3   OH227414   5.014   5.143   7.243  0.0324 -0.3884  0.3240
 1952TIP3    H127415   4.997   5.221   7.190 -1.5180 -1.2134 -0.4762
 1952TIP3    H227416   5.109   5.138   7.250  0.1631  1.6319  0.5151
 1953TIP3   OH227417   5.795   5.454   0.111 -0.1694 -0.1743  0.3507
 1953TIP3    H127418   5.810   5.521   0.178  1.8893 -2.9184  2.8960
 1953TIP3    H227419   5.792   5.372   0.160 -0.9370 -2.1727 -2.7634
 1954TIP3   OH227420   0.791   1.849   0.987  0.5780  0.0708 -0.2835
 1954TIP3    H127421   0.827   1.824   1.073 -0.9334  0.8737  0.6330
 1954TIP3    H227422   0.697   1.852   1.001  0.4426  3.4139 -1.0304
 1955TIP3   OH227423   4.542   1.183   8.202 -0.0631  0.0244 -0.0146
 1955TIP3    H127424   4.468   1.216   8.252 -1.0784 -1.9483 -0.1109
 1955TIP3    H227425   4.574   1.259   8.154 -0.5144  1.4421  1.8343
 1956TIP3   OH227426   2.922   6.650   7.517  0.1146 -0.1582 -0.3478
 1956TIP3    H127427   2.842   6.598   7.516 -0.3590  0.5735 -1.1338
 1956TIP3    H227428   2.984   6.600   7.463 -0.0600 -0.3295 -0.3882
 1957TIP3   OH227429   5.469   1.592   1.695  0.2925  0.2320 -0.2716
 1957TIP3    H127430   5.486   1.631   1.781 -1.8674  0.9719 -0.1063
 1957TIP3    H227431   5.549   1.607   1.645  0.5245  2.4713  0.6770
 1958TIP3   OH227432   5.117   4.924   7.594 -0.3157  0.6897  0.0858
 1958TIP3    H127433   5.203   4.886   7.613 -0.2277  1.1541  0.6384
 1958TIP3    H227434   5.058   4.849   7.592  0.0641  0.3896 -0.0766
 1959TIP3   OH227435   0.107   2.173   7.687  0.6941  0.0959  0.0149
 1959TIP3    H127436   0.187   2.126   7.667  0.1298  0.0563 -2.4063
 1959TIP3    H227437   0.122   2.261   7.653  0.0217  0.3351  0.3189
 1960TIP3   OH227438   3.716   6.521   2.321 -0.3469 -0.1313  0.0150
 1960TIP3    H127439   3.682   6.474   2.245  2.8399 -0.3390 -1.4451
 1960TIP3    H227440   3.638   6.553   2.366 -2.4246  0.1026 -3.3660
 1961TIP3   OH227441   0.448   0.270   0.281 -0.0520  0.0605 -0.4485
 1961TIP3    H127442   0.409   0.250   0.196 -0.2670 -2.3776  0.1637
 1961TIP3    H227443   0.540   0.243   0.272 -0.1291 -0.4127  0.1433
 1962TIP3   OH227444   4.828   5.012   8.521  0.0534  0.0835 -0.1505
 1962TIP3    H127445   4.884   4.967   8.585  0.6263 -0.2828 -0.8989
 1962TIP3    H227446   4.796   4.942   8.464  0.8859  0.6065 -1.2818
 1963TIP3   OH227447   5.421   2.191   1.840  0.0376 -0.0521 -0.1932
 1963TIP3    H127448   5.329   2.178   1.818  0.3708 -1.0279 -1.1019
 1963TIP3    H227449   5.426   2.282   1.867 -1.4398 -0.3241  1.1699
 1964TIP3   OH227450   1.851   3.754   0.529  0.4187 -0.2013  0.3337
 1964TIP3    H127451   1.798   3.698   0.472 -0.0305  0.3404  0.2096
 1964TIP3    H227452   1.876   3.828   0.474  0.3516  0.1076  0.7136
 1965TIP3   OH227453   6.160   1.533   1.414  0.4449  0.0479  0.0478
 1965TIP3    H127454   6.239   1.538   1.468  1.8339 -0.0212 -1.8694
 1965TIP3    H227455   6.190   1.496   1.330 -1.5695  0.3146 -0.8666
 1966TIP3   OH227456   5.442   5.032   2.632  0.7381  0.1111  0.3243
 1966TIP3    H127457   5.525   4.990   2.608  0.8483  0.4221  0.1546
 1966TIP3    H227458   5.427   5.097   2.564  0.7974  0.6509  0.8133
 1967TIP3   OH227459   1.497   6.260   7.073  0.9607 -0.0219  0.7273
 1967TIP3    H127460   1.531   6.282   7.161  0.2116  1.7965  0.6039
 1967TIP3    H227461   1.565   6.292   7.013  0.6061  0.4946  0.5943
 1968TIP3   OH227462   4.519   1.842   8.151 -0.2036 -0.9742  0.1564
 1968TIP3    H127463   4.511   1.747   8.158 -0.1045 -0.9275  1.0466
 1968TIP3    H227464   4.584   1.865   8.218 -0.5093 -0.2471  0.2067
 1969TIP3   OH227465   2.812   1.759   3.030 -0.4272 -0.0388  0.0010
 1969TIP3    H127466   2.726   1.742   2.992 -0.2524  1.7314 -1.3465
 1969TIP3    H227467   2.838   1.844   2.993  0.8165  0.6823  2.2985
 1970TIP3   OH227468   0.279   4.334   8.384  0.2776  0.5016  0.1100
 1970TIP3    H127469   0.261   4.366   8.295  1.4009  1.1030  0.0783
 1970TIP3    H227470   0.331   4.255   8.371 -1.8104 -0.9604  0.2094
 1971TIP3   OH227471   6.726   0.259   2.319 -0.4427 -0.0632 -0.2997
 1971TIP3    H127472   6.761   0.341   2.285 -1.1172  0.2859 -0.1743
 1971TIP3    H227473   6.651   0.285   2.372  0.7815 -0.5461  1.7945
 1972TIP3   OH227474   2.381   6.208   0.025 -0.1967 -0.4487  0.2568
 1972TIP3    H127475   2.444   6.234   0.093  0.6578  1.2946 -1.1011
 1972TIP3    H227476   2.311   6.273   0.031 -1.2422 -1.5928  0.8777
 1973TIP3   OH227477   1.720   1.151   2.315  0.0235 -0.1163  0.2264
 1973TIP3    H127478   1.674   1.191   2.388 -1.7744 -0.9552 -0.3854
 1973TIP3    H227479   1.770   1.080   2.354 -1.2071 -0.7886  0.6461
 1974TIP3   OH227480   6.369   1.891   8.322 -0.3550 -0.0517 -0.4882
 1974TIP3    H127481   6.440   1.910   8.384 -1.5272  0.2149  0.8183
 1974TIP3    H227482   6.313   1.829   8.368 -0.1976 -1.4514 -2.0941
 1975TIP3   OH227483   5.358   1.019   8.703  0.7497  1.3922  0.1335
 1975TIP3    H127484   5.381   0.931   8.732  1.0171  1.4278  0.0345
 1975TIP3    H227485   5.263   1.019   8.698  0.6864  1.4147  1.1178
 1976TIP3   OH227486   3.062   3.471   7.587  0.3312 -0.2905 -0.9493
 1976TIP3    H127487   3.074   3.511   7.673 -0.7685 -1.9239  0.0248
 1976TIP3    H227488   2.998   3.526   7.542 -2.8353 -1.9189  1.1776
 1977TIP3   OH227489   2.665   5.338   2.315 -0.3473 -0.7556  0.7388
 1977TIP3    H127490   2.667   5.421   2.364  0.6647  0.2342 -0.8889
 1977TIP3    H227491   2.738   5.288   2.351  1.8987  0.9052 -1.1784
 1978TIP3   OH227492   5.344   6.292   7.779 -1.0064 -0.4479  0.0451
 1978TIP3    H127493   5.324   6.361   7.843  0.5642 -0.3535  0.4684
 1978TIP3    H227494   5.269   6.293   7.720 -1.8947  0.3429  1.1370
 1979TIP3   OH227495   5.995   3.782   2.162  0.3006 -0.2447 -0.1559
 1979TIP3    H127496   6.056   3.806   2.231  0.4888 -1.5816  0.1829
 1979TIP3    H227497   6.042   3.800   2.080  0.4309  0.4790  0.0798
 1980TIP3   OH227498   4.786   6.536   8.206 -0.2225  0.2812 -0.6954
 1980TIP3    H127499   4.862   6.539   8.264 -0.0897  1.7642 -0.9015
 1980TIP3    H227500   4.788   6.447   8.169  0.8057 -0.0444  0.0831
 1981TIP3   OH227501   6.655   1.729   8.073  0.8565  0.0476 -0.4440
 1981TIP3    H127502   6.714   1.792   8.032  0.5714  0.1741 -0.6649
 1981TIP3    H227503   6.698   1.705   8.156  0.0256  2.0593  0.6292
 1982TIP3   OH227504   2.487   3.044   1.822  0.2747  0.5212  0.6120
 1982TIP3    H127505   2.572   3.006   1.844  0.7458 -0.1594 -1.9852
 1982TIP3    H227506   2.428   2.969   1.820  0.4569  0.3877 -1.1602
 1983TIP3   OH227507   2.931   4.897   0.342 -0.4693 -0.0612  0.0324
 1983TIP3    H127508   2.844   4.934   0.359 -0.2385 -0.2693  1.8537
 1983TIP3    H227509   2.987   4.974   0.326 -0.5282  0.2170  1.1348
 1984TIP3   OH227510   2.541   0.855   2.059  0.5686  0.1568 -0.0888
 1984TIP3    H127511   2.583   0.771   2.038 -1.1170 -0.8621  0.4559
 1984TIP3    H227512   2.613   0.911   2.089  1.4341 -1.8626  1.9018
 1985TIP3   OH227513   1.181   0.109   1.262 -0.2546  0.1151 -0.4031
 1985TIP3    H127514   1.222   0.103   1.348  0.1099  0.3902 -0.5503
 1985TIP3    H227515   1.154   0.019   1.242 -1.4519  0.2607  0.5139
 1986TIP3   OH227516   3.223   0.422   1.846 -0.2544 -0.3087  0.0401
 1986TIP3    H127517   3.236   0.356   1.777  0.0831  1.1776 -1.3977
 1986TIP3    H227518   3.141   0.466   1.821 -0.6326 -0.3678  1.1444
 1987TIP3   OH227519   6.695   4.108   8.497  0.2620  0.5577  0.1883
 1987TIP3    H127520   6.686   4.153   8.413  0.8445  1.0111  0.3586
 1987TIP3    H227521   6.609   4.070   8.513  0.2691  0.0627 -0.8370
 1988TIP3   OH227522   2.606   3.943   0.414  0.3352 -0.1610  0.3518
 1988TIP3    H127523   2.678   3.990   0.372  0.9722 -2.0962 -0.8972
 1988TIP3    H227524   2.645   3.859   0.440 -0.9010 -0.3172  1.8337
 1989TIP3   OH227525   1.315   1.378   2.292  0.8001 -0.2238  0.2636
 1989TIP3    H127526   1.274   1.434   2.359 -0.8384 -1.1509  0.1032
 1989TIP3    H227527   1.401   1.417   2.277  0.9863  0.3648  2.4676
 1990TIP3   OH227528   6.773   3.353   2.828 -0.2039  0.0964  0.1930
 1990TIP3    H127529   6.693   3.364   2.879 -1.1522 -1.0555 -0.9669
 1990TIP3    H227530   6.744   3.309   2.748  1.5449 -0.0156 -0.4180
 1991TIP3   OH227531   1.772   2.895   1.057  0.0362  0.1167  0.1085
 1991TIP3    H127532   1.761   2.853   1.142  3.2712  3.0862  2.2651
 1991TIP3    H227533   1.860   2.871   1.029 -0.5105  0.2028 -1.8994
 1992TIP3   OH227534   6.566   1.433   8.257  0.3302  0.0116  0.0539
 1992TIP3    H127535   6.499   1.491   8.292 -0.7268 -1.0421 -0.1424
 1992TIP3    H227536   6.551   1.433   8.162  0.8045  0.0015 -0.0228
 1993TIP3   OH227537   6.490   1.879   0.246 -0.2304 -0.0672 -0.5992
 1993TIP3    H127538   6.569   1.825   0.241 -0.6658 -0.6295 -1.9835
 1993TIP3    H227539   6.417   1.817   0.245 -0.7204  0.4906 -1.4122
 1994TIP3   OH227540   1.024   3.707   8.173  0.2211  0.3879  0.2890
 1994TIP3    H127541   1.061   3.697   8.261  0.2675  0.3970  0.2708
 1994TIP3    H227542   0.985   3.795   8.174 -1.0151 -0.1309  0.7648
 1995TIP3   OH227543   3.815   6.342   0.432  0.3767  0.2221 -0.2348
 1995TIP3    H127544   3.796   6.413   0.494 -0.9335 -1.8722  1.9441
 1995TIP3    H227545   3.739   6.340   0.374 -0.9569 -1.0536  1.4487
 1996TIP3   OH227546   3.128   2.961   8.742 -0.0414 -0.8959  0.3577
 1996TIP3    H127547   3.113   3.020   8.668  2.6479 -1.4449 -0.7754
 1996TIP3    H227548   3.053   2.973   8.799  0.3321  3.6188  0.2185
 1997TIP3   OH227549   5.179   1.005   1.091 -0.0367 -0.0628 -0.1834
 1997TIP3    H127550   5.246   0.998   1.022  0.9181 -1.0626  0.8034
 1997TIP3    H227551   5.177   1.098   1.113  1.7517 -0.1452  0.4410
 1998TIP3   OH227552   5.837   5.183   7.952 -0.2464 -0.6916  0.1808
 1998TIP3    H127553   5.877   5.105   7.989  1.2257 -0.6006 -1.0996
 1998TIP3    H227554   5.779   5.150   7.883 -0.1427 -0.6983  0.0957
 1999TIP3   OH227555   6.074   0.286   0.119 -0.0633  0.5149  0.3701
 1999TIP3    H127556   6.094   0.324   0.205  1.9627  0.4020 -0.0076
 1999TIP3    H227557   6.143   0.319   0.061 -1.3336  0.5135 -1.2088
 2000TIP3   OH227558   5.847   3.725   8.616 -0.5014  0.1610 -0.2304
 2000TIP3    H127559   5.795   3.805   8.610 -1.0333 -0.2831 -4.2667
 2000TIP3    H227560   5.918   3.737   8.552  0.3304 -1.9572  0.1922
 2001TIP3   OH227561   5.335   1.065   1.635  0.4750 -0.1113  0.2304
 2001TIP3    H127562   5.279   1.140   1.657 -1.0169 -1.5454  1.5968
 2001TIP3    H227563   5.337   1.065   1.539  1.0185  1.9910  0.1927
 2002TIP3   OH227564   4.323   4.713   1.233  0.1679 -0.0501  0.0935
 2002TIP3    H127565   4.269   4.768   1.175  2.1648  1.1517 -0.7340
 2002TIP3    H227566   4.278   4.717   1.317 -1.1261  0.7494 -0.5927
 2003TIP3   OH227567   3.402   2.919   1.556  0.0533 -0.0952 -0.4059
 2003TIP3    H127568   3.405   2.984   1.485  0.5646  1.2013  0.7587
 2003TIP3    H227569   3.488   2.924   1.597 -0.8768  0.6908  1.5990
 2004TIP3   OH227570   4.593   5.674   8.046  0.6200  0.4900 -0.9011
 2004TIP3    H127571   4.501   5.660   8.026  0.8120 -1.5513 -0.5236
 2004TIP3    H227572   4.615   5.757   8.002 -0.8335 -0.0479 -2.7622
 2005TIP3   OH227573   4.910   3.801   1.869  0.9936 -0.7761 -0.1287
 2005TIP3    H127574   4.837   3.741   1.884  0.2688 -0.3765 -1.7766
 2005TIP3    H227575   4.914   3.810   1.774  1.4079  1.3790  0.0414
 2006TIP3   OH227576   6.611   0.591   8.314 -0.2894 -1.2701 -0.4722
 2006TIP3    H127577   6.533   0.537   8.314 -0.0342 -1.6496  0.1050
 2006TIP3    H227578   6.678   0.538   8.358  0.2538 -0.8981 -0.8249
 2007TIP3   OH227579   1.299   2.630   8.309  0.1622 -0.0623 -0.2312
 2007TIP3    H127580   1.252   2.695   8.256 -1.2985 -0.2761  0.7589
 2007TIP3    H227581   1.248   2.622   8.389  2.0732 -0.0944  1.0614
 2008TIP3   OH227582   3.915   0.558   7.511  0.0502  0.1491  0.3486
 2008TIP3    H127583   3.886   0.477   7.553 -0.7789  0.3752  0.2117
 2008TIP3    H227584   3.931   0.533   7.420  0.4072  0.0034  0.4468
 2009TIP3   OH227585   2.797   1.507   1.137  0.6408  0.6435 -0.1133
 2009TIP3    H127586   2.819   1.522   1.229  1.7964  0.4678 -0.3464
 2009TIP3    H227587   2.881   1.502   1.093  0.1096  0.2288 -1.1124
 2010TIP3   OH227588   2.299   4.616   7.507  0.3575  0.2068  0.2671
 2010TIP3    H127589   2.351   4.538   7.525  0.0260 -0.0898 -0.0304
 2010TIP3    H227590   2.344   4.686   7.553  1.0210 -0.0411  0.0131
 2011TIP3   OH227591   1.658   5.830   0.248  0.0412 -0.1017  0.5559
 2011TIP3    H127592   1.577   5.805   0.204  0.1183 -0.9668  0.8824
 2011TIP3    H227593   1.707   5.748   0.256  1.5822  0.6157 -0.9015
 2012TIP3   OH227594   4.412   6.696   0.620 -0.1576 -0.1582  0.2879
 2012TIP3    H127595   4.388   6.773   0.671  0.2575 -0.5740  1.1219
 2012TIP3    H227596   4.424   6.627   0.684 -1.2824 -1.1352 -0.5087
 2013TIP3   OH227597   3.515   4.055   2.728  0.0603 -0.2791 -0.2625
 2013TIP3    H127598   3.487   3.964   2.713  0.6262 -0.6891  1.0492
 2013TIP3    H227599   3.488   4.073   2.818 -1.5675  1.4538 -1.0371
 2014TIP3   OH227600   1.615   5.456   8.157  0.0515 -0.3487 -0.3763
 2014TIP3    H127601   1.528   5.482   8.188  0.1656 -0.1992 -0.1814
 2014TIP3    H227602   1.652   5.406   8.230  0.2766 -0.0925 -0.3153
 2015TIP3   OH227603   6.473   3.459   2.906  0.2140 -0.7119  0.1071
 2015TIP3    H127604   6.460   3.364   2.902 -0.7126 -0.5568 -1.0551
 2015TIP3    H227605   6.413   3.489   2.974 -3.1505 -0.4653 -2.6520
 2016TIP3   OH227606   5.127   6.151   7.081  0.1664  0.4715 -0.3880
 2016TIP3    H127607   5.088   6.107   7.156  0.7466 -0.2224 -0.4844
 2016TIP3    H227608   5.198   6.204   7.118  1.9911 -1.6467 -0.6309
 2017TIP3   OH227609   0.985   4.588   8.533  0.3482 -0.0469 -0.3716
 2017TIP3    H127610   0.979   4.515   8.595  0.8748 -0.1644 -0.4566
 2017TIP3    H227611   1.032   4.552   8.458 -1.1100 -0.1902 -1.2772
 2018TIP3   OH227612   0.352   4.246   0.506 -0.5565  0.0273 -0.4115
 2018TIP3    H127613   0.315   4.322   0.461  0.6634  0.4598 -0.7229
 2018TIP3    H227614   0.320   4.255   0.596  0.5382  1.6367 -0.1235
 2019TIP3   OH227615   6.648   5.568   8.618 -0.2801  0.3786  0.1608
 2019TIP3    H127616   6.573   5.626   8.603 -0.8903 -0.4357 -0.0323
 2019TIP3    H227617   6.709   5.620   8.671 -0.7953  1.1971 -0.0364
 2020TIP3   OH227618   0.167   2.272   1.723  0.4251 -0.2938 -0.0339
 2020TIP3    H127619   0.236   2.259   1.788 -0.3264 -1.0293  0.6346
 2020TIP3    H227620   0.165   2.367   1.709 -0.5357  0.0851  2.2912
 2021TIP3   OH227621   4.311   0.247   8.400  0.0614 -0.2391 -0.4174
 2021TIP3    H127622   4.397   0.263   8.361 -0.5779 -0.0262 -1.7958
 2021TIP3    H227623   4.289   0.329   8.444  0.3369 -0.1122 -0.5143
 2022TIP3   OH227624   6.170   3.799   8.553 -0.6894  0.3904 -0.1425
 2022TIP3    H127625   6.115   3.795   8.475 -1.5840 -0.3837  0.4936
 2022TIP3    H227626   6.254   3.763   8.526 -1.3950 -1.1198 -0.4578
 2023TIP3   OH227627   3.836   1.859   1.087  0.3599 -0.4313  0.2634
 2023TIP3    H127628   3.843   1.776   1.133 -1.6552 -1.9118 -1.8621
 2023TIP3    H227629   3.746   1.888   1.101 -0.1358 -0.6278 -2.1056
 2024TIP3   OH227630   0.529   1.857   1.087  0.1609 -0.0232 -0.3495
 2024TIP3    H127631   0.537   1.888   1.177  0.2480 -1.1385  0.0383
 2024TIP3    H227632   0.464   1.787   1.091  0.6684 -0.5505 -1.0256
 2025TIP3   OH227633   1.994   1.598   2.328 -0.1351 -0.3051 -0.0993
 2025TIP3    H127634   1.936   1.628   2.398  1.8288  3.1110  0.2861
 2025TIP3    H227635   2.012   1.506   2.349 -1.8493 -0.1966  2.2196
 2026TIP3   OH227636   1.192   0.122   0.272  0.5995 -0.4775  0.3898
 2026TIP3    H127637   1.240   0.202   0.289 -0.3529  0.1645  0.1384
 2026TIP3    H227638   1.259   0.056   0.255  1.4938 -0.2942  2.8178
 2027TIP3   OH227639   3.396   3.276   8.089  0.1252  0.4159 -0.4538
 2027TIP3    H127640   3.446   3.203   8.054 -1.1900  0.0538 -1.6728
 2027TIP3    H227641   3.317   3.280   8.034 -2.7779 -0.9873  3.1754
 2028TIP3   OH227642   3.600   2.052   7.580 -0.4829  0.0829  0.1101
 2028TIP3    H127643   3.588   2.143   7.606  0.1694  0.2298 -0.0923
 2028TIP3    H227644   3.646   2.011   7.653 -0.7110 -0.0704  0.1701
 2029TIP3   OH227645   0.118   4.008   0.951  0.1331  0.6677  0.4684
 2029TIP3    H127646   0.102   3.927   1.000 -2.1855  1.2931  0.8735
 2029TIP3    H227647   0.122   4.076   1.018 -0.8107  1.2442 -0.0432
 2030TIP3   OH227648   5.590   1.177   7.973  0.6133  0.0550  0.4472
 2030TIP3    H127649   5.604   1.269   7.993 -0.8567  0.6798 -1.1130
 2030TIP3    H227650   5.529   1.146   8.040  1.7070 -0.0373  1.4350
 2031TIP3   OH227651   6.706   1.609   0.611  0.1578 -0.0844  0.0980
 2031TIP3    H127652   6.783   1.615   0.667  0.1833 -1.6509  0.2931
 2031TIP3    H227653   6.690   1.515   0.602 -0.3083  0.1299 -1.8958
 2032TIP3   OH227654   5.018   3.723   8.593 -0.2955 -0.3079  0.0195
 2032TIP3    H127655   5.041   3.647   8.540 -0.4000  0.7104 -1.5694
 2032TIP3    H227656   4.952   3.691   8.655 -0.1404 -1.5512 -0.4299
 2033TIP3   OH227657   0.113   4.629   7.199  0.0576  0.1040  0.2855
 2033TIP3    H127658   0.139   4.721   7.192  2.0477 -0.3495  0.9671
 2033TIP3    H227659   0.134   4.605   7.289  1.4134 -1.4938 -0.4065
 2034TIP3   OH227660   5.547   3.752   8.423 -0.0946 -0.6004 -0.2525
 2034TIP3    H127661   5.628   3.720   8.384  0.0691  0.6749 -1.0220
 2034TIP3    H227662   5.522   3.684   8.486  1.6127 -0.9871  0.0668
 2035TIP3   OH227663   1.930   2.491   8.869 -0.6913 -0.3519  0.1074
 2035TIP3    H127664   2.000   2.508   8.933  0.0153  0.0041 -0.7476
 2035TIP3    H227665   1.920   2.396   8.871  0.1638 -0.4628 -0.0940
 2036TIP3   OH227666   2.140   0.925   1.936 -0.2346 -0.0129  0.0356
 2036TIP3    H127667   2.093   0.977   2.001  0.9898 -0.3907  1.2777
 2036TIP3    H227668   2.165   0.989   1.869  0.1724  0.7787  0.9130
 2037TIP3   OH227669   5.737   2.129   0.457 -0.9407 -0.2823  0.1865
 2037TIP3    H127670   5.706   2.217   0.435  1.1918  0.4879 -0.0148
 2037TIP3    H227671   5.758   2.089   0.372 -1.0790 -0.6666  0.3310
 2038TIP3   OH227672   3.381   5.693   1.130  0.6910 -0.0569  0.0327
 2038TIP3    H127673   3.438   5.712   1.056 -0.7007  0.8446 -0.8660
 2038TIP3    H227674   3.386   5.772   1.185  1.0017 -0.3401  0.4114
 2039TIP3   OH227675   4.751   2.570   1.691 -0.4851 -0.0737 -0.3949
 2039TIP3    H127676   4.835   2.615   1.684 -0.4831 -0.2130 -1.4736
 2039TIP3    H227677   4.696   2.611   1.624 -0.5960 -1.4200 -1.1608
 2040TIP3   OH227678   6.414   0.750   0.141 -0.7939 -0.3932 -0.4499
 2040TIP3    H127679   6.485   0.757   0.078 -1.5855  1.8459 -1.2064
 2040TIP3    H227680   6.353   0.688   0.102 -1.2031  0.8574 -1.8956
 2041TIP3   OH227681   0.646   6.259   0.395  0.3040  0.1794 -0.2259
 2041TIP3    H127682   0.676   6.348   0.374  2.0408 -0.1526  0.6458
 2041TIP3    H227683   0.571   6.272   0.453  0.3664  1.0798 -0.3214
 2042TIP3   OH227684   2.060   0.567   1.266 -0.5821  0.4984  0.0970
 2042TIP3    H127685   2.075   0.656   1.236  0.3164  0.1319 -0.5766
 2042TIP3    H227686   2.055   0.515   1.186 -2.0641  0.0754  0.4382
 2043TIP3   OH227687   1.630   4.452   7.965 -0.1212 -0.1021  0.2814
 2043TIP3    H127688   1.535   4.451   7.953 -0.1004  2.1657 -0.5927
 2043TIP3    H227689   1.660   4.372   7.922 -1.7467 -2.0495  2.4672
 2044TIP3   OH227690   5.349   6.702   3.056 -0.1030  0.5506 -0.5318
 2044TIP3    H127691   5.439   6.704   3.089 -0.5026  1.1668  0.5590
 2044TIP3    H227692   5.339   6.784   3.009 -0.3121  0.8155 -0.0333
 2045TIP3   OH227693   0.378   0.307   7.318 -0.1636  0.6321 -0.3939
 2045TIP3    H127694   0.286   0.310   7.290 -0.8697 -1.2101  1.4796
 2045TIP3    H227695   0.375   0.272   7.407  2.2786  1.9245  0.2797
 2046TIP3   OH227696   6.716   5.705   1.335 -0.0253 -0.0477  0.1827
 2046TIP3    H127697   6.649   5.767   1.308  1.0319  1.3377  0.6574
 2046TIP3    H227698   6.689   5.677   1.423  1.4785  2.8444  1.7237
 2047TIP3   OH227699   0.085   3.511   8.459  0.2840 -0.1000  0.0743
 2047TIP3    H127700   0.118   3.481   8.544  1.1707 -1.6890 -0.7650
 2047TIP3    H227701   0.099   3.436   8.401 -0.4489  0.8882 -1.4368
 2048TIP3   OH227702   6.551   2.944   7.923 -0.7701 -0.2920 -0.2450
 2048TIP3    H127703   6.476   2.964   7.978  1.1853  1.3596  2.0278
 2048TIP3    H227704   6.589   2.865   7.961 -0.8794 -0.6473 -0.8651
 2049TIP3   OH227705   2.144   6.091   8.277 -0.0390 -0.6430 -0.1036
 2049TIP3    H127706   2.152   6.157   8.346  1.4854  0.1910 -1.0239
 2049TIP3    H227707   2.070   6.120   8.224 -2.0092 -1.9302  1.7707
 2050TIP3   OH227708   3.415   0.261   8.634 -0.7630 -0.0915 -0.0290
 2050TIP3    H127709   3.450   0.299   8.554 -0.5434  0.9414  0.5433
 2050TIP3    H227710   3.448   0.318   8.704 -1.2837 -0.7400  0.7595
 2051TIP3   OH227711   1.954   1.066   0.785 -0.6677  0.0394 -0.3538
 2051TIP3    H127712   1.951   0.984   0.736 -0.5701  0.8297 -1.7300
 2051TIP3    H227713   2.048   1.086   0.793 -0.7122  0.4584 -0.8109
 2052TIP3   OH227714   5.890   5.578   1.037 -0.0511 -0.1961  0.5563
 2052TIP3    H127715   5.938   5.603   0.958 -1.6399 -0.2275 -0.4823
 2052TIP3    H227716   5.915   5.643   1.103  2.1792 -0.8240  0.4151
 2053TIP3   OH227717   5.859   1.489   2.263  0.0309  0.1750  0.0407
 2053TIP3    H127718   5.883   1.425   2.330 -0.7851 -0.7209 -0.4925
 2053TIP3    H227719   5.786   1.538   2.301 -0.8831 -0.7869 -0.4249
 2054TIP3   OH227720   5.154   3.909   1.779 -0.3917  0.0498  0.3500
 2054TIP3    H127721   5.131   3.966   1.853  1.4939  1.5313 -0.1091
 2054TIP3    H227722   5.101   3.942   1.707  2.5203  3.1921 -0.6111
 2055TIP3   OH227723   0.483   5.479   7.969 -0.0060 -0.0690 -0.2304
 2055TIP3    H127724   0.457   5.399   8.014  0.7990  0.2792  0.9077
 2055TIP3    H227725   0.471   5.460   7.876 -0.7168 -1.1747  0.0722
 2056TIP3   OH227726   1.184   1.145   2.196 -0.1831 -0.5875 -0.1877
 2056TIP3    H127727   1.247   1.210   2.226 -0.1398  0.6746 -2.7319
 2056TIP3    H227728   1.100   1.193   2.193 -0.3366 -0.8875 -1.1773
 2057TIP3   OH227729   6.717   2.581   2.676  0.1437 -0.4922 -0.3324
 2057TIP3    H127730   6.682   2.649   2.618 -0.8986 -1.7466 -1.2388
 2057TIP3    H227731   6.653   2.510   2.671  1.0357 -1.4182  0.8451
 2058TIP3   OH227732   2.421   0.039   8.758  0.3795 -0.0510 -0.1971
 2058TIP3    H127733   2.494   0.082   8.803  1.0176  1.2502 -2.2852
 2058TIP3    H227734   2.450  -0.051   8.746  1.5808  0.3763 -0.7478
 2059TIP3   OH227735   4.049   3.502   0.335 -0.3602 -0.2466  0.4834
 2059TIP3    H127736   4.044   3.434   0.269 -1.4701 -0.7815  1.0950
 2059TIP3    H227737   3.960   3.510   0.369  0.0149  0.5961  1.3339
 2060TIP3   OH227738   2.258   2.791   8.522  0.4515  0.0654 -0.4454
 2060TIP3    H127739   2.308   2.710   8.522  1.3731  0.6113 -1.3356
 2060TIP3    H227740   2.316   2.855   8.480 -0.7284  0.8818 -0.8798
 2061TIP3   OH227741   5.091   5.364   1.791 -0.3792 -0.6569  0.0425
 2061TIP3    H127742   5.069   5.430   1.856 -0.6179 -0.9411  0.2511
 2061TIP3    H227743   5.070   5.281   1.833 -0.4796 -0.8441 -0.3746
 2062TIP3   OH227744   1.602   3.335   8.424 -0.4344  0.2125  0.5744
 2062TIP3    H127745   1.617   3.274   8.497 -0.4192 -1.1028 -0.4890
 2062TIP3    H227746   1.690   3.355   8.392 -0.4976 -0.3964 -0.0036
 2063TIP3   OH227747   3.355   1.061   0.650 -0.0493 -0.4403  0.1772
 2063TIP3    H127748   3.331   0.968   0.657 -2.8355  0.2205  0.7149
 2063TIP3    H227749   3.298   1.105   0.713 -0.5894  1.8926 -1.8161
 2064TIP3   OH227750   4.281   2.608   7.253  0.1690  0.0045 -0.4674
 2064TIP3    H127751   4.253   2.563   7.333  1.3481  0.3880  0.1945
 2064TIP3    H227752   4.363   2.565   7.229  2.0902  2.5427  0.9612
 2065TIP3   OH227753   0.792   0.339   1.806  0.1049 -0.5074 -0.0903
 2065TIP3    H127754   0.843   0.405   1.759 -0.1715 -1.1699 -1.3611
 2065TIP3    H227755   0.835   0.331   1.891  0.0939  1.3654  0.1228
 2066TIP3   OH227756   6.273   2.315   1.312  0.2827  0.0934 -0.0588
 2066TIP3    H127757   6.349   2.370   1.332 -0.2512  0.8995 -0.2037
 2066TIP3    H227758   6.287   2.235   1.363  0.7972  0.5902  0.5879
 2067TIP3   OH227759   0.207   6.639   1.425  0.4791 -0.1869  0.2742
 2067TIP3    H127760   0.269   6.593   1.368  2.5232  1.3846  1.0972
 2067TIP3    H227761   0.231   6.611   1.513 -0.1488  0.2808  0.5949
 2068TIP3   OH227762   4.728   5.411   6.924  1.2250 -0.3072 -0.5837
 2068TIP3    H127763   4.687   5.367   6.849  1.3502 -1.2255 -0.1234
 2068TIP3    H227764   4.714   5.505   6.907 -0.3241 -0.5633 -0.8608
 2069TIP3   OH227765   3.978   1.523   2.744 -0.0323  0.6275 -0.0548
 2069TIP3    H127766   3.968   1.430   2.721 -0.6735  0.8250 -0.6239
 2069TIP3    H227767   4.041   1.524   2.816  1.2114 -0.1137 -1.1109
 2070TIP3   OH227768   4.603   3.449   1.202  0.1960 -0.2749  0.7178
 2070TIP3    H127769   4.682   3.458   1.149  2.0821 -0.3797  3.2984
 2070TIP3    H227770   4.568   3.363   1.180  0.4403  0.0204 -0.9001
 2071TIP3   OH227771   4.536   0.157   2.034 -0.1963  0.0790  0.4143
 2071TIP3    H127772   4.510   0.117   1.951  0.9284  1.2426 -0.5273
 2071TIP3    H227773   4.552   0.249   2.013  1.8531  0.0320  1.5231
 2072TIP3   OH227774   1.550   2.984   7.179  0.1283  0.0548 -0.0681
 2072TIP3    H127775   1.497   3.016   7.253 -1.6942  0.0769 -1.3193
 2072TIP3    H227776   1.561   3.061   7.123 -2.5523 -0.8952 -2.0909
 2073TIP3   OH227777   0.744   1.138   0.998  0.2026 -0.5150  0.2076
 2073TIP3    H127778   0.824   1.175   0.961  1.1274 -1.5397  1.0864
 2073TIP3    H227779   0.682   1.210   1.000  1.7838  0.9012  1.4662
 2074TIP3   OH227780   6.389   4.130   2.232  0.1655 -0.4319 -0.4282
 2074TIP3    H127781   6.479   4.151   2.256  0.1361  1.0249 -1.4585
 2074TIP3    H227782   6.396   4.093   2.144 -0.1691 -1.2379 -0.1285
 2075TIP3   OH227783   3.955   1.338   1.754 -0.2873  0.1879  0.3372
 2075TIP3    H127784   3.904   1.266   1.714 -1.4348  0.5400  1.1038
 2075TIP3    H227785   4.024   1.356   1.690 -0.9078 -0.5606 -0.5924
 2076TIP3   OH227786   5.778   4.394   7.771 -0.1409 -0.0478 -0.2196
 2076TIP3    H127787   5.781   4.349   7.687 -0.3212 -1.3810  0.4607
 2076TIP3    H227788   5.869   4.408   7.794  0.0056 -1.7197  0.3814
 2077TIP3   OH227789   0.146   4.671   2.601 -0.2150  0.0492 -0.2834
 2077TIP3    H127790   0.058   4.705   2.614 -0.6382 -1.5447  1.3835
 2077TIP3    H227791   0.141   4.580   2.629  1.6941 -0.4088 -1.2777
 2078TIP3   OH227792   4.416   2.806   7.918 -0.0090 -0.7004  0.3103
 2078TIP3    H127793   4.373   2.864   7.856  2.2971 -0.3990 -1.1429
 2078TIP3    H227794   4.424   2.723   7.872  0.9466 -0.7332  0.5094
 2079TIP3   OH227795   4.717   0.757   1.032  0.1636 -0.0329  0.0438
 2079TIP3    H127796   4.717   0.833   0.973  0.7526  0.8081  1.0865
 2079TIP3    H227797   4.636   0.766   1.083  1.3934  1.3569  1.9086
 2080TIP3   OH227798   5.224   5.958   2.249  0.1467 -0.1617 -0.0534
 2080TIP3    H127799   5.268   5.952   2.165 -0.1976  2.5405 -0.5165
 2080TIP3    H227800   5.295   5.967   2.313  0.3681  1.1614 -0.4627
 2081TIP3   OH227801   4.270   1.279   1.050 -0.0746  0.0094  0.3118
 2081TIP3    H127802   4.293   1.195   1.089  0.9322  0.9378  1.8564
 2081TIP3    H227803   4.213   1.257   0.977 -0.5329 -1.9529  1.1852
 2082TIP3   OH227804   1.142   6.334   7.158  0.1960  0.3229 -0.1623
 2082TIP3    H127805   1.104   6.292   7.081  0.7160 -0.8738  0.2067
 2082TIP3    H227806   1.211   6.274   7.187 -0.1455  0.6252  1.3810
 2083TIP3   OH227807   6.121   4.913   7.363 -0.1163 -0.8615 -0.2435
 2083TIP3    H127808   6.155   4.938   7.278 -0.4194 -0.6121 -0.2946
 2083TIP3    H227809   6.028   4.897   7.348 -0.1382 -0.9770  0.0080
 2084TIP3   OH227810   1.186   5.556   0.344 -0.1545 -0.3556  0.5567
 2084TIP3    H127811   1.120   5.488   0.360 -0.4287  0.4813  3.4999
 2084TIP3    H227812   1.135   5.632   0.313 -0.3967 -0.1983  1.3255
 2085TIP3   OH227813   6.553   5.034   8.158 -0.2023 -0.3509 -0.0113
 2085TIP3    H127814   6.575   4.973   8.228 -0.6867 -1.2610 -0.6260
 2085TIP3    H227815   6.519   5.112   8.203 -0.7736 -1.0272  0.7563
 2086TIP3   OH227816   6.435   4.665   1.094 -0.4169 -0.4793  0.3652
 2086TIP3    H127817   6.380   4.702   1.163  1.8833 -0.2637  2.2284
 2086TIP3    H227818   6.510   4.628   1.141  1.0599 -0.7041 -2.0199
 2087TIP3   OH227819   2.531   1.900   2.382 -0.0965 -0.1827 -0.1940
 2087TIP3    H127820   2.562   1.818   2.421  3.1749  0.3486 -1.3251
 2087TIP3    H227821   2.573   1.968   2.434  1.1342  0.5967 -2.0756
 2088TIP3   OH227822   0.793   1.645   2.397  0.5157 -0.2253 -0.5030
 2088TIP3    H127823   0.785   1.567   2.341  0.7045 -1.0053  0.5109
 2088TIP3    H227824   0.724   1.704   2.367 -0.0262 -1.0435 -0.9035
 2089TIP3   OH227825   3.306   5.276   8.034 -0.7057 -0.4566 -0.5535
 2089TIP3    H127826   3.342   5.303   8.118 -0.4988  2.5513 -1.4793
 2089TIP3    H227827   3.214   5.254   8.053 -0.6144 -0.0023  0.4675
 2090TIP3   OH227828   1.385   5.374   0.855  0.4316 -0.3908 -0.1768
 2090TIP3    H127829   1.330   5.396   0.779  0.7369  3.3281  0.4823
 2090TIP3    H227830   1.473   5.363   0.818  0.6329  1.6911 -0.4181
 2091TIP3   OH227831   1.873   4.341   0.832  0.3840 -0.1483  0.4383
 2091TIP3    H127832   1.876   4.254   0.874 -0.8587 -0.2985  0.2428
 2091TIP3    H227833   1.962   4.375   0.842  0.5649 -0.9138  1.6612
 2092TIP3   OH227834   1.075   0.607   0.515  0.0166 -0.8671 -0.4954
 2092TIP3    H127835   1.111   0.554   0.445  2.0426  0.0156 -0.1996
 2092TIP3    H227836   1.138   0.600   0.586 -1.1582 -0.4280  0.6422
 2093TIP3   OH227837   4.164   5.806   8.348  0.6645 -0.4067 -0.2502
 2093TIP3    H127838   4.083   5.779   8.304  0.2462 -1.4020  1.0895
 2093TIP3    H227839   4.210   5.856   8.281 -0.4813 -0.8741 -1.4597
 2094TIP3   OH227840   5.717   4.316   0.494 -0.4167 -0.4714 -0.0523
 2094TIP3    H127841   5.716   4.221   0.484  0.4672 -0.6447  1.2772
 2094TIP3    H227842   5.808   4.340   0.478  0.4332 -0.4238  3.8699
 2095TIP3   OH227843   5.190   0.104   8.225  0.4598  0.1534  0.1159
 2095TIP3    H127844   5.142   0.049   8.163  0.2966 -1.1479  1.3337
 2095TIP3    H227845   5.274   0.059   8.237  1.1264  1.2334 -0.3212
 2096TIP3   OH227846   2.364   3.471   0.297 -0.6356  0.3407 -0.0163
 2096TIP3    H127847   2.363   3.376   0.308 -0.7917  0.3746  0.2723
 2096TIP3    H227848   2.426   3.503   0.362  1.4313  0.2390 -1.8258
 2097TIP3   OH227849   4.896   3.595   0.924  0.3205  0.5085 -0.0524
 2097TIP3    H127850   4.981   3.636   0.939  0.2202  0.5202  0.5132
 2097TIP3    H227851   4.903   3.509   0.966  0.8514 -0.4761 -2.0288
 2098TIP3   OH227852   2.802   3.684   1.134  0.1695  0.1087  0.2218
 2098TIP3    H127853   2.758   3.769   1.133  0.6867  0.3845  0.4946
 2098TIP3    H227854   2.792   3.653   1.225 -0.9675 -0.6337 -0.1317
 2099TIP3   OH227855   1.106   4.579   1.837 -0.2899  0.4739  0.7190
 2099TIP3    H127856   1.095   4.493   1.877  1.4902 -0.9199 -1.5299
 2099TIP3    H227857   1.191   4.609   1.869  0.3628  0.1029 -0.5958
 2100TIP3   OH227858   0.511   1.379   1.823 -0.0279 -0.7065  0.2821
 2100TIP3    H127859   0.540   1.315   1.758 -1.0215 -0.2463 -0.6431
 2100TIP3    H227860   0.501   1.460   1.774  0.3693 -0.0421  1.2694
 2101TIP3   OH227861   4.237   1.503   8.189 -0.6051  0.1134  0.0718
 2101TIP3    H127862   4.283   1.561   8.249 -0.3729 -0.1150  0.1165
 2101TIP3    H227863   4.156   1.481   8.234 -2.4543  3.2367 -1.3581
 2102TIP3   OH227864   2.346   1.262   1.544  1.3926  0.1973  0.2750
 2102TIP3    H127865   2.282   1.326   1.513 -0.2567 -0.5691  1.9173
 2102TIP3    H227866   2.430   1.308   1.541  0.7981  1.2699 -1.8330
 2103TIP3   OH227867   4.827   5.656   8.843 -0.2465  0.0069 -0.3205
 2103TIP3    H127868   4.775   5.607   8.907  0.7329  0.0715  0.5418
 2103TIP3    H227869   4.813   5.748   8.868 -0.5777  0.0815 -0.7693
 2104TIP3   OH227870   3.651   2.888   3.041 -0.3160  0.5819 -0.5078
 2104TIP3    H127871   3.708   2.831   2.990 -0.4992 -0.3468  0.2733
 2104TIP3    H227872   3.579   2.830   3.069 -0.2414  1.0563  0.7421
 2105TIP3   OH227873   5.095   0.844   2.486 -0.4435  0.1278  0.2033
 2105TIP3    H127874   5.016   0.898   2.491 -0.7506 -0.2709 -0.3822
 2105TIP3    H227875   5.164   0.906   2.460 -0.5458  0.4770  0.7289
 2106TIP3   OH227876   3.330   3.184   0.065 -0.2014 -0.6736 -0.1951
 2106TIP3    H127877   3.244   3.145   0.083 -0.4051 -0.0576  0.2173
 2106TIP3    H227878   3.310   3.261   0.011  0.1215 -0.6909 -0.3395
 2107TIP3   OH227879   6.159   1.213   7.590  0.3126 -0.1298  0.6948
 2107TIP3    H127880   6.125   1.303   7.593  1.8802  0.5111  0.2399
 2107TIP3    H227881   6.112   1.173   7.516 -0.5484  0.2301  1.0261
 2108TIP3   OH227882   4.877   3.492   8.119  0.1417  0.4772  0.8294
 2108TIP3    H127883   4.836   3.412   8.087  1.0695  1.1473 -2.4257
 2108TIP3    H227884   4.926   3.464   8.197 -1.2400 -1.6193  1.0321
 2109TIP3   OH227885   6.378   6.054   1.175  0.2915  0.3353  0.1064
 2109TIP3    H127886   6.446   5.990   1.195  0.3057  0.5599  0.7781
 2109TIP3    H227887   6.363   6.101   1.257  1.2341  2.1208 -0.6696
 2110TIP3   OH227888   1.750   1.113   7.312  0.1969 -0.0635 -0.2249
 2110TIP3    H127889   1.816   1.091   7.246 -0.9653 -1.5541 -0.9569
 2110TIP3    H227890   1.687   1.167   7.265  1.6435  2.8152  0.8882
 2111TIP3   OH227891   5.371   3.098   8.519 -0.0691 -0.4513 -0.2316
 2111TIP3    H127892   5.392   3.128   8.608 -1.5067 -0.5230  0.1654
 2111TIP3    H227893   5.423   3.018   8.508 -0.5875 -0.9807  0.9293
 2112TIP3   OH227894   5.194   2.427   2.635 -0.7899 -0.0616 -0.6412
 2112TIP3    H127895   5.240   2.511   2.633  0.1939 -0.5329  0.6342
 2112TIP3    H227896   5.141   2.432   2.715 -0.3621 -0.8283 -0.3002
 2113TIP3   OH227897   3.862   3.698   0.740 -0.1909  0.4096  0.5863
 2113TIP3    H127898   3.923   3.742   0.800  0.3805  1.9202 -1.0335
 2113TIP3    H227899   3.902   3.709   0.654 -1.5094 -0.8215 -0.1988
 2114TIP3   OH227900   4.144   0.215   1.764  0.6090 -0.5221  0.0424
 2114TIP3    H127901   4.195   0.256   1.694  0.3543  0.5455  0.4590
 2114TIP3    H227902   4.071   0.275   1.778  1.0297 -0.3455  1.6931
 2115TIP3   OH227903   2.662   6.640   7.232  0.0046  0.1913  0.1112
 2115TIP3    H127904   2.643   6.734   7.231  0.1729  0.2614  1.7642
 2115TIP3    H227905   2.758   6.635   7.239 -0.0742 -0.0849  1.0973
 2116TIP3   OH227906   1.970   3.730   0.797 -0.4303 -0.4994 -0.1599
 2116TIP3    H127907   1.943   3.766   0.882  0.2911 -1.1742  0.3629
 2116TIP3    H227908   1.902   3.761   0.736 -0.9775 -0.0359  0.6591
 2117TIP3   OH227909   0.750   4.797   8.190 -0.2706  0.0058  0.1425
 2117TIP3    H127910   0.773   4.711   8.153  0.0888  0.3303 -0.3891
 2117TIP3    H227911   0.693   4.836   8.124  0.6545  0.7328 -0.2402
 2118TIP3   OH227912   3.096   6.701   2.672 -0.5639 -0.8112 -0.7190
 2118TIP3    H127913   3.091   6.641   2.746  0.8351 -1.9174 -1.4618
 2118TIP3    H227914   3.012   6.691   2.627 -1.6526  0.2757  0.9533
 2119TIP3   OH227915   3.446   6.022   3.192 -0.6948  0.3288 -0.0979
 2119TIP3    H127916   3.354   6.035   3.171 -0.8232 -0.9522 -0.4292
 2119TIP3    H227917   3.493   6.054   3.115 -1.0344 -1.7680 -1.2452
 2120TIP3   OH227918   2.967   5.583   2.320  0.4114 -0.1984  0.0241
 2120TIP3    H127919   2.950   5.630   2.238  2.7682  0.7799  0.0311
 2120TIP3    H227920   3.003   5.499   2.292 -0.5097 -0.6171  0.0614
 2121TIP3   OH227921   4.457   3.386   8.003  0.8903 -0.2613  0.1318
 2121TIP3    H127922   4.544   3.397   8.040  0.8354 -0.8233  0.4376
 2121TIP3    H227923   4.471   3.385   7.908  1.4573 -2.2151  0.2022
 2122TIP3   OH227924   4.108   5.464   8.179  0.5352  0.2814 -0.4919
 2122TIP3    H127925   4.064   5.403   8.119 -0.5009 -0.6518  1.1122
 2122TIP3    H227926   4.186   5.418   8.207  1.1837  0.8463 -1.3265
 2123TIP3   OH227927   3.041   3.944   8.702  0.0428 -0.0259  0.0751
 2123TIP3    H127928   3.045   3.990   8.618  0.2857 -0.5647 -0.2149
 2123TIP3    H227929   3.131   3.942   8.733 -0.0419  0.1403  0.3298
 2124TIP3   OH227930   0.204   3.115   0.180  0.2231 -0.5980 -0.0459
 2124TIP3    H127931   0.115   3.093   0.210  0.0324 -1.5959 -1.2532
 2124TIP3    H227932   0.255   3.036   0.197  0.8291 -0.1056  0.4325
 2125TIP3   OH227933   5.352   2.313   1.557 -0.4208  0.2457 -0.4153
 2125TIP3    H127934   5.433   2.341   1.599 -0.3421  1.3837 -1.2661
 2125TIP3    H227935   5.362   2.219   1.544  1.3346  0.5548 -1.6721
 2126TIP3   OH227936   1.214   3.452   2.581 -0.2053 -0.3989  0.3290
 2126TIP3    H127937   1.283   3.500   2.628 -2.2045  0.3653  2.6591
 2126TIP3    H227938   1.193   3.507   2.506 -1.0368  1.4527  1.8493
 2127TIP3   OH227939   3.484   6.109   1.925 -0.1740  0.2304 -0.1189
 2127TIP3    H127940   3.545   6.174   1.891 -0.1188  0.2679  0.0543
 2127TIP3    H227941   3.397   6.147   1.910 -0.0935  1.2042  1.7371
 2128TIP3   OH227942   0.648   4.890   7.968  0.2034  0.1501  0.5805
 2128TIP3    H127943   0.620   4.963   7.914  1.4370 -0.4755 -0.9958
 2128TIP3    H227944   0.629   4.812   7.915  2.0401 -0.4534  0.7323
 2129TIP3   OH227945   5.807   3.731   1.262  0.1180 -0.1587 -0.0129
 2129TIP3    H127946   5.902   3.734   1.275  0.1388 -1.1897  0.1247
 2129TIP3    H227947   5.782   3.642   1.285 -0.8783  0.0781 -0.1316
 2130TIP3   OH227948   3.147   0.337   2.374 -0.7022  0.1657  0.2721
 2130TIP3    H127949   3.199   0.260   2.350 -0.5280 -0.1169  1.4592
 2130TIP3    H227950   3.126   0.379   2.291 -1.7381 -1.7717 -0.5051
 2131TIP3   OH227951   3.681   5.865   1.258 -0.2713  0.3307  0.6709
 2131TIP3    H127952   3.746   5.936   1.257  0.7278 -0.5274  1.8610
 2131TIP3    H227953   3.689   5.824   1.172  0.0997  0.8189  0.4649
 2132TIP3   OH227954   3.750   2.070   2.074  0.4372  0.3220  0.1810
 2132TIP3    H127955   3.701   2.021   2.007  1.0465  0.0589 -0.0786
 2132TIP3    H227956   3.740   2.017   2.153 -0.7823  0.9322  0.4664
 2133TIP3   OH227957   4.091   6.190   8.030  0.0984 -0.4374 -0.1488
 2133TIP3    H127958   4.036   6.133   7.977  1.1806 -0.3194 -1.4294
 2133TIP3    H227959   4.164   6.214   7.974  0.3987  1.1048  0.8113
 2134TIP3   OH227960   4.029   2.738   1.965  0.0540 -0.0829  0.3811
 2134TIP3    H127961   3.998   2.823   1.932 -0.5195 -0.1549  0.7402
 2134TIP3    H227962   4.054   2.756   2.056  0.8610 -0.0785  0.1700
 2135TIP3   OH227963   0.957   5.091   2.144  0.1307 -0.3581  0.4925
 2135TIP3    H127964   0.980   5.125   2.231  1.6873 -0.4059  0.1232
 2135TIP3    H227965   1.013   5.014   2.133  1.9348  1.1345 -1.5846
 2136TIP3   OH227966   5.123   1.151   1.455 -0.5296  0.2465  0.3809
 2136TIP3    H127967   5.108   1.214   1.525  4.1932 -0.6129  2.5185
 2136TIP3    H227968   5.172   1.199   1.389 -1.0032 -0.0892 -0.2307
 2137TIP3   OH227969   3.376   4.268   0.841  0.4715 -0.1505 -0.3448
 2137TIP3    H127970   3.334   4.352   0.822  0.1269 -0.3900 -0.6734
 2137TIP3    H227971   3.427   4.249   0.762  0.8069 -0.0941 -0.1399
 2138TIP3   OH227972   0.809   2.823   2.020 -0.6794 -0.0169 -0.0920
 2138TIP3    H127973   0.879   2.757   2.021 -1.7431 -1.2222 -1.2387
 2138TIP3    H227974   0.855   2.907   2.030  0.5768 -0.9578  3.1197
 2139TIP3   OH227975   1.501   5.908   0.458 -0.0887  0.2350  0.2753
 2139TIP3    H127976   1.551   5.902   0.377 -0.9311 -0.5726 -0.2135
 2139TIP3    H227977   1.422   5.856   0.441 -0.3109  0.1044  1.5938
 2140TIP3   OH227978   1.395   0.013   7.153  0.2446 -0.1495  0.0529
 2140TIP3    H127979   1.486   0.001   7.180  0.7673 -0.8300 -1.8826
 2140TIP3    H227980   1.358  -0.075   7.156  1.0578 -0.7854 -3.7460
 2141TIP3   OH227981   6.484   3.264   8.087 -0.4974  0.2673 -0.7727
 2141TIP3    H127982   6.403   3.234   8.046  0.1213  0.7473 -2.4499
 2141TIP3    H227983   6.465   3.264   8.180 -2.1659 -0.3863 -1.0707
 2142TIP3   OH227984   1.772   6.756   8.395 -0.1857  0.3840 -0.3809
 2142TIP3    H127985   1.829   6.780   8.322 -0.3990  2.5234  0.0892
 2142TIP3    H227986   1.807   6.805   8.469 -2.1833  1.1809  0.0856
 2143TIP3   OH227987   1.150   6.191   0.092 -0.0966  0.1707 -0.4963
 2143TIP3    H127988   1.155   6.287   0.094  1.4397  0.1163 -0.4045
 2143TIP3    H227989   1.095   6.171   0.017  1.4822  1.1218 -1.9867
 2144TIP3   OH227990   1.373   5.027   0.732  0.1156 -0.4774 -0.0237
 2144TIP3    H127991   1.399   4.936   0.717  1.0745 -0.1995 -0.1193
 2144TIP3    H227992   1.421   5.077   0.667  0.9673  0.2812  1.1446
 2145TIP3   OH227993   4.518   2.805   1.159 -0.3968 -0.5323 -0.0374
 2145TIP3    H127994   4.528   2.861   1.083 -1.2413 -0.1808  0.1031
 2145TIP3    H227995   4.428   2.820   1.189 -0.6450 -1.9454  0.0144
 2146TIP3   OH227996   3.400   5.650   1.825  0.7662  0.7230 -1.0358
 2146TIP3    H127997   3.378   5.573   1.772  0.7726  1.1021 -1.5904
 2146TIP3    H227998   3.478   5.686   1.783  1.1489  0.6664 -0.3929
 2147TIP3   OH227999   1.391   5.773   0.156  0.6465 -0.7055 -0.1705
 2147TIP3    H128000   1.372   5.711   0.086  0.0167 -1.4859  0.6695
 2147TIP3    H228001   1.306   5.792   0.195  0.7767  1.0058 -0.6464
 2148TIP3   OH228002   6.764   3.470   7.722  0.1046 -0.4701  0.3014
 2148TIP3    H128003   6.762   3.470   7.818 -0.9508 -0.2141  0.2874
 2148TIP3    H228004   6.710   3.396   7.697 -0.5227  0.1084 -0.0961
 2149TIP3   OH228005   2.890   0.262   1.364  0.5500 -0.1569 -0.3343
 2149TIP3    H128006   2.904   0.350   1.398  1.9235 -0.2400 -0.6010
 2149TIP3    H228007   2.961   0.210   1.403 -2.5059 -2.1741  3.1722
 2150TIP3   OH228008   4.447   3.853   2.482  0.5895 -0.1125 -0.3887
 2150TIP3    H128009   4.391   3.809   2.418 -1.5490  0.3052  1.0911
 2150TIP3    H228010   4.432   3.806   2.564  1.5387  0.7494  0.3084
 2151TIP3   OH228011   3.519   0.737   0.690 -0.1776  0.4511  0.4538
 2151TIP3    H128012   3.549   0.735   0.599  0.9794 -1.1992  0.8323
 2151TIP3    H228013   3.459   0.664   0.696 -0.9102  1.0750  0.8272
 2152TIP3   OH228014   5.559   3.151   2.297  0.1487 -0.9995  0.2361
 2152TIP3    H128015   5.624   3.148   2.227  0.8618  0.2086  0.8093
 2152TIP3    H228016   5.483   3.106   2.261  0.3472 -0.0568 -1.4740
 2153TIP3   OH228017   0.367   0.920   1.306 -0.0955  0.2887  0.3444
 2153TIP3    H128018   0.392   0.833   1.275 -0.9791 -0.8050  2.4627
 2153TIP3    H228019   0.449   0.960   1.334  0.2907  0.0840 -0.4474
 2154TIP3   OH228020   2.436   3.275   0.031 -0.1714  0.6686  0.4623
 2154TIP3    H128021   2.529   3.251   0.021 -0.1215  1.0247  0.0629
 2154TIP3    H228022   2.395   3.196   0.067 -0.2332 -0.4638 -1.9434
 2155TIP3   OH228023   2.696   6.705   1.514  0.1094  0.0296  0.2070
 2155TIP3    H128024   2.759   6.742   1.577  0.2555 -0.4738  0.3662
 2155TIP3    H228025   2.642   6.779   1.488 -0.8997 -0.0056  2.0315
 2156TIP3   OH228026   2.686   5.467   2.070 -0.0659 -0.2991  0.2737
 2156TIP3    H128027   2.673   5.417   2.150 -1.6576 -0.3460  0.0317
 2156TIP3    H228028   2.598   5.475   2.033  0.4947  0.6145 -0.9292
 2157TIP3   OH228029   5.502   5.856   1.246 -0.2012 -0.2523  0.7313
 2157TIP3    H128030   5.570   5.922   1.262 -2.3395  2.3613 -0.1872
 2157TIP3    H228031   5.496   5.850   1.150  0.3343 -2.3442  0.7639
 2158TIP3   OH228032   5.826   4.050   8.045  0.1113  0.0895  0.0487
 2158TIP3    H128033   5.836   4.039   8.139 -3.9015  0.6323  0.7042
 2158TIP3    H228034   5.888   4.118   8.021  1.7440 -0.5913  2.0957
 2159TIP3   OH228035   0.998   6.145   0.946  0.4429  0.5191 -0.3355
 2159TIP3    H128036   1.053   6.069   0.926  0.0677  0.4901 -1.2676
 2159TIP3    H228037   0.925   6.140   0.885  0.6795  1.9219 -0.7777
 2160TIP3   OH228038   4.279   1.739   2.663 -0.8598  0.0243 -0.1206
 2160TIP3    H128039   4.188   1.742   2.693 -0.9435 -0.6069 -0.2886
 2160TIP3    H228040   4.278   1.674   2.593 -0.0235 -0.9699  0.7601
 2161TIP3   OH228041   0.904   1.514   7.916 -0.8285  0.0632 -0.6529
 2161TIP3    H128042   0.812   1.536   7.900 -0.6023  2.7193  0.9855
 2161TIP3    H228043   0.944   1.598   7.940  1.9612 -1.0810 -0.9785
 2162TIP3   OH228044   0.725   0.979   2.931 -0.1493 -0.6849  0.0706
 2162TIP3    H128045   0.746   0.923   2.856  0.0037  1.7061 -1.7987
 2162TIP3    H228046   0.654   1.034   2.900 -0.7369 -0.2584  2.0544
 2163TIP3   OH228047   5.336   4.876   8.614 -0.3937  0.3578  0.3978
 2163TIP3    H128048   5.399   4.811   8.643  1.7916  1.5099 -1.4263
 2163TIP3    H228049   5.253   4.828   8.607  1.0180 -2.1159 -0.4979
 2164TIP3   OH228050   3.687   1.513   6.976 -0.0183 -0.2504  0.3768
 2164TIP3    H128051   3.720   1.558   6.898 -1.9811  2.2963  0.8552
 2164TIP3    H228052   3.613   1.462   6.945 -0.5749  0.4732  0.5008
 2165TIP3   OH228053   2.123   5.072   8.674 -0.0438  0.4746  0.5549
 2165TIP3    H128054   2.153   5.075   8.583 -1.2944 -2.0794 -0.0409
 2165TIP3    H228055   2.028   5.065   8.667 -0.3173  2.0365  2.1631
 2166TIP3   OH228056   5.673   4.855   7.571 -0.0285 -0.8087 -0.5156
 2166TIP3    H128057   5.646   4.907   7.495  0.2678 -0.2900 -0.2704
 2166TIP3    H228058   5.705   4.773   7.533 -1.1159 -1.0887 -0.8617
 2167TIP3   OH228059   5.711   1.780   2.898 -0.0883  0.2226 -0.0419
 2167TIP3    H128060   5.641   1.745   2.843 -0.2145  3.4974 -2.2356
 2167TIP3    H228061   5.666   1.837   2.960  0.3864 -0.6418  1.1418
 2168TIP3   OH228062   1.262   4.977   0.439  0.4394 -0.0853 -0.0377
 2168TIP3    H128063   1.174   4.956   0.407  0.9643 -1.2465 -0.7759
 2168TIP3    H228064   1.268   4.931   0.523  0.5528 -0.4985 -0.2713
 2169TIP3   OH228065   5.949   1.999   8.138 -0.2666 -0.1895  1.0802
 2169TIP3    H128066   5.922   1.936   8.204 -1.0280 -1.2728 -0.2089
 2169TIP3    H228067   5.879   1.998   8.073  0.2223  1.1996  0.4872
 2170TIP3   OH228068   1.744   2.837   0.592  0.1249 -0.1153 -0.1018
 2170TIP3    H128069   1.674   2.898   0.617 -0.5214 -0.4860 -0.9378
 2170TIP3    H228070   1.753   2.849   0.497  0.4187 -0.8668 -0.1780
 2171TIP3   OH228071   2.140   3.270   7.287  0.1258  0.4341  0.0294
 2171TIP3    H128072   2.142   3.352   7.237 -0.8273  0.6230  0.2978
 2171TIP3    H228073   2.051   3.263   7.319 -0.0331 -1.1473 -0.6886
 2172TIP3   OH228074   3.335   3.563   1.512  0.2778 -0.2163  0.0902
 2172TIP3    H128075   3.430   3.568   1.501  0.2926 -0.6506  0.0333
 2172TIP3    H228076   3.311   3.478   1.477 -0.4267  0.7735 -2.0225
 2173TIP3   OH228077   0.401   5.132   0.342 -0.4185 -0.2106 -0.5508
 2173TIP3    H128078   0.320   5.103   0.384  0.3019 -0.6348  0.5799
 2173TIP3    H228079   0.465   5.065   0.365  0.3326  0.2731 -1.1964
 2174TIP3   OH228080   3.543   5.081   0.023 -0.2633 -0.0796  0.0706
 2174TIP3    H128081   3.529   4.987   0.026  1.2412 -0.3155  1.8321
 2174TIP3    H228082   3.461   5.117  -0.010 -0.3506 -2.0790 -2.1370
 2175TIP3   OH228083   6.749   5.335   1.841  0.3272 -0.3392 -0.1652
 2175TIP3    H128084   6.667   5.289   1.821  0.0059 -0.3400  1.0561
 2175TIP3    H228085   6.764   5.390   1.765 -0.7818 -0.4016 -0.4555
 2176TIP3   OH228086   0.355   2.868   6.676 -0.4126 -0.1905  0.0823
 2176TIP3    H128087   0.280   2.924   6.658 -0.3633 -0.6519 -1.8542
 2176TIP3    H228088   0.334   2.785   6.633  0.8064 -0.6341  0.2947
 2177TIP3   OH228089   5.569   2.507   8.712 -0.0538 -0.1786  0.2672
 2177TIP3    H128090   5.662   2.519   8.733 -0.0541 -1.2475  0.9659
 2177TIP3    H228091   5.552   2.571   8.643  0.8033  1.1318  1.2052
 2178TIP3   OH228092   2.386   5.156   1.679  0.5161  0.0796 -0.7390
 2178TIP3    H128093   2.460   5.136   1.736  1.1076  0.4632 -1.3643
 2178TIP3    H228094   2.419   5.141   1.591  0.1217  1.1257 -1.0718
 2179TIP3   OH228095   2.683   1.844   0.104 -0.1896 -0.2277 -0.4140
 2179TIP3    H128096   2.706   1.926   0.061  0.1586 -0.1202 -0.0365
 2179TIP3    H228097   2.612   1.808   0.052  0.6565 -0.4291 -1.4687
 2180TIP3   OH228098   2.983   3.437   0.016 -0.0203  0.4409  0.1206
 2180TIP3    H128099   2.933   3.391   0.083 -0.9808 -0.2022 -1.0119
 2180TIP3    H228100   3.044   3.492   0.065  0.3049 -1.1068  1.5186
 2181TIP3   OH228101   1.461   5.355   8.724 -0.0818 -1.0045 -0.5414
 2181TIP3    H128102   1.553   5.337   8.706 -0.6500 -2.6934 -2.0975
 2181TIP3    H228103   1.438   5.294   8.795  0.1625 -0.0241  0.4067
 2182TIP3   OH228104   4.438   3.060   1.385  0.1263 -0.2630 -0.1695
 2182TIP3    H128105   4.438   2.971   1.419  1.3380 -0.0451  0.4604
 2182TIP3    H228106   4.359   3.100   1.422  1.6440  0.1295  2.9427
 2183TIP3   OH228107   0.910   3.776   0.935 -0.1686  0.5239  0.0881
 2183TIP3    H128108   0.958   3.754   0.856  0.6956  0.0604  0.7236
 2183TIP3    H228109   0.844   3.708   0.943  0.0554  0.2974  0.0220
 2184TIP3   OH228110   3.903   6.159   7.307 -0.3600 -0.4918  0.3871
 2184TIP3    H128111   3.879   6.066   7.298 -0.0071 -0.4610 -1.3310
 2184TIP3    H228112   3.838   6.205   7.252 -0.8142  0.3451  1.5812
 2185TIP3   OH228113   2.170   1.254   2.157 -0.2052  0.4283 -0.1032
 2185TIP3    H128114   2.100   1.305   2.115 -0.7775 -0.3898 -0.1799
 2185TIP3    H228115   2.127   1.172   2.182  0.6253  0.0994  0.2687
 2186TIP3   OH228116   5.089   5.516   2.778 -0.1810  0.2561 -0.5200
 2186TIP3    H128117   5.086   5.547   2.687 -0.9433  1.0086 -0.2523
 2186TIP3    H228118   5.166   5.558   2.816 -0.1644  0.3625 -0.6710
 2187TIP3   OH228119   4.629   4.790   1.136 -0.1001  0.2423 -0.0605
 2187TIP3    H128120   4.548   4.809   1.088 -1.8995 -1.7767  1.9083
 2187TIP3    H228121   4.605   4.805   1.228  1.5663 -1.0633  0.6260
 2188TIP3   OH228122   0.454   2.462   1.922 -0.3941 -0.5767 -0.2003
 2188TIP3    H128123   0.449   2.367   1.913 -0.4243 -0.6803  0.8176
 2188TIP3    H228124   0.513   2.477   1.996 -0.4185  0.2013 -0.3214
 2189TIP3   OH228125   4.577   3.181   1.616 -0.1048  0.8316 -0.0811
 2189TIP3    H128126   4.666   3.172   1.651 -0.1908  0.0854 -0.0251
 2189TIP3    H228127   4.578   3.129   1.535 -0.8678 -0.3660  0.6481
 2190TIP3   OH228128   4.100   2.525   7.492 -0.0866 -0.8044  0.0017
 2190TIP3    H128129   4.123   2.504   7.582  0.3510 -0.6501 -0.0708
 2190TIP3    H228130   4.057   2.611   7.498  0.2126 -0.6536  0.0323
 2191TIP3   OH228131   6.019   0.772   1.507 -0.0270  0.6269  0.0199
 2191TIP3    H128132   5.993   0.857   1.542 -2.6540  0.7497 -1.9767
 2191TIP3    H228133   6.012   0.713   1.581 -3.6797  1.1896  0.3059
 2192TIP3   OH228134   1.779   2.616   8.305 -0.1141 -0.1413 -0.4288
 2192TIP3    H128135   1.858   2.651   8.345  0.8260 -0.2688 -2.1004
 2192TIP3    H228136   1.711   2.680   8.326  0.4002 -0.0752  1.0958
 2193TIP3   OH228137   1.916   5.134   1.069 -0.0406  0.4726  0.4453
 2193TIP3    H128138   1.855   5.165   1.002 -1.4339 -0.9920  0.9806
 2193TIP3    H228139   1.999   5.123   1.023 -0.3399  1.8166 -0.4656
 2194TIP3   OH228140   6.054   6.450   1.720 -0.1783  0.6249 -0.2172
 2194TIP3    H128141   6.079   6.455   1.628 -0.3754 -2.6036 -0.5612
 2194TIP3    H228142   5.998   6.527   1.734 -1.7564  0.2049 -3.3472
 2195TIP3   OH228143   0.645   3.041   7.776 -0.3744 -0.5729 -0.0183
 2195TIP3    H128144   0.730   3.082   7.757 -1.3321  2.1187  0.9917
 2195TIP3    H228145   0.596   3.048   7.694  0.1345 -1.6372 -0.4414
 2196TIP3   OH228146   0.679   4.347   2.128 -0.6610  0.6079  0.1293
 2196TIP3    H128147   0.642   4.317   2.046 -1.6070  0.9943  0.4028
 2196TIP3    H228148   0.755   4.400   2.102 -0.1064 -0.4342 -0.4193
 2197TIP3   OH228149   0.949   4.495   7.082 -0.1232  0.0936  0.2693
 2197TIP3    H128150   0.969   4.416   7.030  0.1017  0.5115 -0.2920
 2197TIP3    H228151   1.017   4.557   7.057  2.3082 -0.8537  3.7990
 2198TIP3   OH228152   2.442   5.225   0.071  0.3700  0.6236  0.0065
 2198TIP3    H128153   2.536   5.244   0.067  0.5124 -0.1793 -1.0085
 2198TIP3    H228154   2.401   5.309   0.091  1.0906  1.7037 -2.6331
 2199TIP3   OH228155   1.402   0.685   8.268 -0.3814  0.0271 -0.1181
 2199TIP3    H128156   1.365   0.773   8.277  1.7528  0.8381  1.6144
 2199TIP3    H228157   1.375   0.639   8.347  1.0897  0.1940  0.5123
 2200TIP3   OH228158   3.978   6.451   0.644  0.5631 -0.2492 -0.2683
 2200TIP3    H128159   3.887   6.479   0.656  0.4341  0.3719 -2.2836
 2200TIP3    H228160   4.020   6.524   0.600  1.6611 -1.1087 -0.6927
 2201TIP3   OH228161   3.433   6.669   1.257  0.1288 -0.4213 -0.4942
 2201TIP3    H128162   3.337   6.667   1.256  0.0881  0.8754 -0.2416
 2201TIP3    H228163   3.458   6.645   1.167 -0.4356 -0.3368 -0.6764
 2202TIP3   OH228164   6.500   0.306   8.659  1.0485 -0.5741  0.1472
 2202TIP3    H128165   6.590   0.332   8.679  0.7961  0.8201 -0.4326
 2202TIP3    H228166   6.492   0.314   8.564  0.3333 -0.7386  0.1833
 2203TIP3   OH228167   2.114   2.602   8.045  0.1949 -0.7263  0.4725
 2203TIP3    H128168   2.048   2.671   8.046 -1.5423 -2.3138  1.0157
 2203TIP3    H228169   2.122   2.575   8.137  2.0304 -0.2276  0.5030
 2204TIP3   OH228170   3.981   4.905   2.405 -0.3485  0.2219 -0.0669
 2204TIP3    H128171   3.897   4.950   2.416 -2.6803 -3.3801 -1.0923
 2204TIP3    H228172   3.996   4.906   2.310  1.4211  1.7300  0.1793
 2205TIP3   OH228173   0.945   1.873   8.441  0.1628  0.9301 -0.0935
 2205TIP3    H128174   0.944   1.834   8.528  0.5828 -0.0188 -0.5055
 2205TIP3    H228175   0.863   1.922   8.436 -0.8190 -0.6299  0.1199
 2206TIP3   OH228176   5.369   6.489   8.143 -0.7143  0.6734  0.5298
 2206TIP3    H128177   5.463   6.491   8.126 -0.7019  1.2781  0.6409
 2206TIP3    H228178   5.344   6.581   8.154 -0.9650  0.4117  2.4297
 2207TIP3   OH228179   0.009   1.600   1.634  0.4583 -0.3254 -0.1701
 2207TIP3    H128180  -0.038   1.666   1.685 -1.7041  0.3690 -2.8213
 2207TIP3    H228181   0.031   1.532   1.697 -1.9067  0.5219  1.7395
 2208TIP3   OH228182   5.549   3.115   1.189 -0.0251 -0.1544  0.4391
 2208TIP3    H128183   5.528   3.029   1.226  0.2641  0.5924  2.5213
 2208TIP3    H228184   5.644   3.122   1.197  0.0863 -0.1090 -0.8407
 2209TIP3   OH228185   0.217   3.522   0.683 -0.7961  0.7793 -0.3068
 2209TIP3    H128186   0.268   3.473   0.618 -0.0863 -0.4590  1.1461
 2209TIP3    H228187   0.245   3.613   0.670 -0.3614  0.5030 -1.4440
 2210TIP3   OH228188   3.387   2.276   1.949  0.2060  0.1770 -0.3594
 2210TIP3    H128189   3.303   2.300   1.911  0.9344  1.6889 -1.1174
 2210TIP3    H228190   3.372   2.190   1.990 -1.8888  0.7622  0.2310
 2211TIP3   OH228191   5.834   6.317   1.515  0.3173 -0.2933 -0.6173
 2211TIP3    H128192   5.847   6.412   1.512  0.0628 -0.1664  1.0243
 2211TIP3    H228193   5.874   6.285   1.434  0.0747  1.2403 -1.3921
 2212TIP3   OH228194   4.183   1.010   7.815 -0.0736 -0.2760 -0.4001
 2212TIP3    H128195   4.163   1.090   7.767  0.1911  0.2215  0.3022
 2212TIP3    H228196   4.270   0.984   7.784 -1.3431 -2.0279 -2.9011
 2213TIP3   OH228197   1.594   2.073   7.569 -0.1417  0.9217  0.1444
 2213TIP3    H128198   1.542   2.026   7.505 -0.6668  1.4834  0.1488
 2213TIP3    H228199   1.655   2.126   7.517 -0.0041  0.7523  0.1301
 2214TIP3   OH228200   4.115   2.272   7.260  0.2667 -0.0193 -0.4232
 2214TIP3    H128201   4.107   2.181   7.288  1.5064  0.3426  1.2745
 2214TIP3    H228202   4.039   2.316   7.298  0.2967 -0.1326 -0.2301
 2215TIP3   OH228203   6.147   6.712   8.596  0.0932 -0.2995 -0.4534
 2215TIP3    H128204   6.130   6.768   8.671 -2.4942 -0.6934 -0.6772
 2215TIP3    H228205   6.163   6.773   8.523  0.0705  0.1102 -0.1185
 2216TIP3   OH228206   5.508   5.150   8.055  0.1371 -0.3038  0.2694
 2216TIP3    H128207   5.479   5.140   8.146 -0.7684 -1.8590 -0.1575
 2216TIP3    H228208   5.596   5.113   8.053 -0.9249 -3.0200 -0.0282
 2217TIP3   OH228209   1.290   5.625   1.538 -0.2904  0.0896  0.3032
 2217TIP3    H128210   1.246   5.587   1.615 -0.9672  0.3128  0.0355
 2217TIP3    H228211   1.310   5.549   1.482  0.0042 -0.0512  0.5940
 2218TIP3   OH228212   5.115   3.799   8.006  0.9749 -0.0105 -0.5780
 2218TIP3    H128213   5.160   3.878   7.976 -0.4687  1.9509  2.0185
 2218TIP3    H228214   5.165   3.769   8.082  0.4738 -0.5188 -0.4362
 2219TIP3   OH228215   0.160   2.139   2.424  0.2171  0.0282  0.2727
 2219TIP3    H128216   0.211   2.170   2.499 -1.6833  0.4453  1.4794
 2219TIP3    H228217   0.192   2.050   2.409  1.6532  0.4555  0.6135
 2220TIP3   OH228218   3.624   1.153   0.654  0.5692  0.3469 -0.3064
 2220TIP3    H128219   3.540   1.107   0.647  0.5225  0.4349 -0.3231
 2220TIP3    H228220   3.638   1.162   0.748  1.3460 -1.1098 -0.2681
 2221TIP3   OH228221   3.966   0.326   7.785 -0.2267 -0.3845  0.3065
 2221TIP3    H128222   3.927   0.404   7.824  0.8020 -0.4792  1.5664
 2221TIP3    H228223   3.907   0.304   7.712 -0.6600  1.4180  0.0691
 2222TIP3   OH228224   3.237   6.678   8.028 -0.0021  0.4206  0.4631
 2222TIP3    H128225   3.156   6.730   8.025 -0.2602  0.1902  2.3622
 2222TIP3    H228226   3.207   6.588   8.034  0.4234  0.2353 -0.1428
 2223TIP3   OH228227   6.502   3.925   1.689 -0.5895  0.1401 -0.3729
 2223TIP3    H128228   6.527   3.978   1.614 -1.3900  0.5483 -0.3610
 2223TIP3    H228229   6.563   3.852   1.688 -2.9692 -2.0951 -3.7979
 2224TIP3   OH228230   3.997   2.871   7.933 -0.9169 -0.5035  0.1459
 2224TIP3    H128231   4.041   2.914   8.006  0.8483 -0.5586 -0.8341
 2224TIP3    H228232   3.945   2.940   7.892 -0.2052  0.0517  0.1729
 2225TIP3   OH228233   3.853   4.143   7.189  0.5610  0.2024  0.0664
 2225TIP3    H128234   3.773   4.166   7.141  0.1699  1.0952  1.0984
 2225TIP3    H228235   3.873   4.221   7.241  1.5075 -0.3956  0.6298
 2226TIP3   OH228236   5.995   5.315   1.399  0.0598  0.2678  0.5296
 2226TIP3    H128237   5.936   5.300   1.325 -0.3781  0.5810  0.8057
 2226TIP3    H228238   5.942   5.366   1.461  0.1005 -0.8271  1.4884
 2227TIP3   OH228239   5.705   4.618   7.477 -0.2035  0.4055 -0.1925
 2227TIP3    H128240   5.660   4.615   7.392  0.1315  0.7679 -0.3888
 2227TIP3    H228241   5.649   4.567   7.536  0.7600 -1.9404 -1.1842
 2228TIP3   OH228242   3.970   1.403   0.331 -0.5392 -0.0553 -0.2063
 2228TIP3    H128243   3.934   1.442   0.252  1.3030  0.9086 -0.6369
 2228TIP3    H228244   3.894   1.375   0.381 -1.8186  1.0524 -1.4360
 2229TIP3   OH228245   5.055   4.069   1.357  0.4039 -0.0501 -0.4246
 2229TIP3    H128246   5.036   4.022   1.439  0.9458  2.6952  1.4089
 2229TIP3    H228247   5.022   4.011   1.288  0.5533 -2.8203  1.6433
 2230TIP3   OH228248   6.765   3.821   1.588 -0.4281 -0.1379  0.1165
 2230TIP3    H128249   6.771   3.741   1.640 -0.7321 -0.1539  0.1285
 2230TIP3    H228250   6.723   3.794   1.507  0.4016 -0.1900 -0.3103
 2231TIP3   OH228251   5.031   5.068   0.571  0.4101  0.0550  0.2780
 2231TIP3    H128252   5.078   5.116   0.502  2.2318 -0.8506  0.8363
 2231TIP3    H228253   5.018   5.133   0.640  1.7484  0.0941  0.5181
 2232TIP3   OH228254   2.693   3.866   8.767  0.3408 -0.3011 -0.3546
 2232TIP3    H128255   2.643   3.784   8.767  1.0975 -0.8216  1.6212
 2232TIP3    H228256   2.784   3.838   8.770  0.7906  0.6476 -2.8698
 2233TIP3   OH228257   4.216   2.992   0.048 -0.0806 -0.2519  0.0897
 2233TIP3    H128258   4.207   3.087   0.044 -0.1265 -0.2993 -1.2871
 2233TIP3    H228259   4.131   2.959   0.017  0.7066 -0.7142 -1.7100
 2234TIP3   OH228260   0.765   3.334   7.131 -0.2457 -0.2377  0.1477
 2234TIP3    H128261   0.676   3.335   7.166  0.5060 -1.2190  2.2558
 2234TIP3    H228262   0.777   3.244   7.099  0.9022 -1.0473  2.6163
 2235TIP3   OH228263   0.082   6.265   7.653  0.2899  0.4281  0.7176
 2235TIP3    H128264   0.154   6.305   7.604  0.6374 -1.2470 -0.1809
 2235TIP3    H228265   0.098   6.171   7.648 -1.6195  0.0460  1.0211
 2236TIP3   OH228266   0.036   1.382   0.234  0.9730 -0.2901 -0.5410
 2236TIP3    H128267   0.106   1.402   0.171  0.6765 -0.1592 -0.8288
 2236TIP3    H228268   0.078   1.327   0.300  1.3129 -0.3326 -0.7919
 2237TIP3   OH228269   0.071   4.093   1.580  0.5038 -0.0542 -0.0262
 2237TIP3    H128270   0.140   4.036   1.614 -0.1298 -0.6281  0.3302
 2237TIP3    H228271  -0.004   4.034   1.566 -0.2897  0.7523  0.7339
 2238TIP3   OH228272   6.163   0.954   1.833 -0.5045 -0.1530  0.2123
 2238TIP3    H128273   6.160   1.029   1.891  0.8208  1.4758 -1.6632
 2238TIP3    H228274   6.154   0.878   1.890  1.5795  1.2873  2.6447
 2239TIP3   OH228275   1.551   1.002   2.021  0.5511 -0.4198 -0.1117
 2239TIP3    H128276   1.480   0.950   2.058  2.5058 -0.6584  3.8297
 2239TIP3    H228277   1.616   0.937   1.993  0.4829 -0.1359 -0.9759
 2240TIP3   OH228278   4.055   2.983   0.417 -0.2572  0.3730  0.1183
 2240TIP3    H128279   4.050   2.969   0.512 -0.0719  0.1553  0.0968
 2240TIP3    H228280   4.022   2.902   0.379  0.7792 -0.0181 -0.0045
 2241TIP3   OH228281   2.089   2.879   1.734  0.2048  0.8962  0.1459
 2241TIP3    H128282   2.135   2.858   1.815 -1.5373  2.1347  1.5260
 2241TIP3    H228283   2.002   2.842   1.746 -0.1232  1.2159 -1.1193
 2242TIP3   OH228284   3.632   2.220   1.779  0.1861  0.8077 -0.4396
 2242TIP3    H128285   3.576   2.244   1.853 -0.5339  1.0385 -1.0374
 2242TIP3    H228286   3.695   2.158   1.815 -0.8837 -0.0028  0.1162
 2243TIP3   OH228287   3.854   4.030   0.014  0.3627 -0.4174  0.3051
 2243TIP3    H128288   3.825   4.066  -0.070  0.8622 -1.3765 -0.3053
 2243TIP3    H228289   3.814   4.087   0.080 -0.9531 -0.2957 -0.5491
 2244TIP3   OH228290   2.452   3.284   8.417 -0.1708 -0.4534  0.4004
 2244TIP3    H128291   2.399   3.205   8.428 -0.0614 -0.5014  0.5880
 2244TIP3    H228292   2.390   3.357   8.427 -0.2843 -0.5170  0.1562
 2245TIP3   OH228293   4.165   3.758   7.339 -0.5520  0.1608  0.1437
 2245TIP3    H128294   4.225   3.734   7.268  0.5477  0.9665  0.7594
 2245TIP3    H228295   4.148   3.676   7.384  0.9869  0.0609  0.6063
 2246TIP3   OH228296   4.102   0.810   8.433 -0.3310  0.5162 -0.2349
 2246TIP3    H128297   4.104   0.904   8.451 -1.0902  0.6498 -0.7965
 2246TIP3    H228298   4.146   0.801   8.349 -0.5251  0.3966 -0.3213
 2247TIP3   OH228299   5.420   0.182   8.873  0.0319 -0.0559  0.5035
 2247TIP3    H128300   5.411   0.270   8.836  1.5823 -0.5782 -1.2521
 2247TIP3    H228301   5.365   0.127   8.817 -0.1190 -0.3849  0.9679
 2248TIP3   OH228302   0.802   4.664   8.830  0.2382 -0.5424  0.3416
 2248TIP3    H128303   0.774   4.620   8.750  0.4491 -0.4562  0.2181
 2248TIP3    H228304   0.816   4.755   8.804  0.7423 -0.6084  0.3724
 2249TIP3   OH228305   4.235   5.804   7.529  0.3746 -0.0585 -0.1270
 2249TIP3    H128306   4.196   5.723   7.561  3.0515 -1.4793 -0.1351
 2249TIP3    H228307   4.205   5.811   7.439  0.3897 -1.2809 -0.2529
 2250TIP3   OH228308   4.565   6.596   2.015 -0.2854 -0.2977  0.2156
 2250TIP3    H128309   4.545   6.628   1.928  0.3919  0.4742  0.3286
 2250TIP3    H228310   4.481   6.592   2.060 -0.5417  0.0083 -0.2432
 2251TIP3   OH228311   2.302   0.257   2.066  0.3728  0.0747 -0.2845
 2251TIP3    H128312   2.236   0.318   2.100  0.6823  0.1656  0.1512
 2251TIP3    H228313   2.319   0.289   1.977 -0.3716 -0.1139 -0.4994
 2252TIP3   OH228314   5.564   6.477   8.850 -0.2846 -0.0477  0.2270
 2252TIP3    H128315   5.557   6.570   8.872  0.9375  0.8267 -2.6021
 2252TIP3    H228316   5.541   6.473   8.757  2.5672 -2.0951 -0.5074
 2253TIP3   OH228317   2.393   1.226   0.355 -0.6871 -0.0065  0.2343
 2253TIP3    H128318   2.483   1.245   0.326 -1.4347  0.3102 -2.1011
 2253TIP3    H228319   2.392   1.132   0.370  0.2873  0.1353  1.2899
 2254TIP3   OH228320   6.516   2.200   6.878  0.2552  0.3693  0.3996
 2254TIP3    H128321   6.589   2.246   6.836  0.5024 -0.9254 -0.6294
 2254TIP3    H228322   6.549   2.176   6.964  1.2163 -0.5826 -0.2148
 2255TIP3   OH228323   5.273   2.753   1.656 -0.2570  0.2338  0.4974
 2255TIP3    H128324   5.312   2.771   1.742  0.1565  0.9440  0.1657
 2255TIP3    H228325   5.191   2.802   1.656 -0.1018  0.4894  0.3593
 2256TIP3   OH228326   3.875   4.086   1.264 -0.3751  0.3140 -0.1304
 2256TIP3    H128327   3.817   4.119   1.332 -1.0239 -2.7226  0.9670
 2256TIP3    H228328   3.962   4.086   1.305 -0.6150 -0.6397  0.4109
 2257TIP3   OH228329   5.420   3.257   0.719 -0.1805 -0.8165 -0.3907
 2257TIP3    H128330   5.462   3.193   0.777  0.4972  0.5457  0.6840
 2257TIP3    H228331   5.343   3.212   0.685  0.5296 -2.3621 -0.0557
 2258TIP3   OH228332   2.970   1.263   2.952 -0.0856  0.1206 -0.2464
 2258TIP3    H128333   2.938   1.196   3.013 -1.6085 -0.2940 -1.4269
 2258TIP3    H228334   2.922   1.342   2.977 -0.1162  0.1482 -0.3920
 2259TIP3   OH228335   0.546   3.815   2.165  0.5445  0.2658  0.4372
 2259TIP3    H128336   0.535   3.730   2.121  1.8270  0.4327 -0.2502
 2259TIP3    H228337   0.612   3.798   2.232  1.5094  0.9363 -0.3327
 2260TIP3   OH228338   3.590   0.175   1.802 -0.2733  0.2020  0.2735
 2260TIP3    H128339   3.683   0.167   1.820 -0.1780  1.6505  0.5368
 2260TIP3    H228340   3.552   0.204   1.885 -1.1664 -1.5805  0.5309
 2261TIP3   OH228341   2.700   4.107   2.303  0.0759  0.6929 -0.3210
 2261TIP3    H128342   2.766   4.155   2.253 -2.0965  1.0850 -3.0383
 2261TIP3    H228343   2.722   4.015   2.289  2.4053  0.6902  2.3372
 2262TIP3   OH228344   0.636   1.074   1.343  0.1508 -0.2054 -0.0946
 2262TIP3    H128345   0.716   1.081   1.395 -0.3620  1.6722  0.5127
 2262TIP3    H228346   0.666   1.081   1.252  0.8858 -1.9840 -0.0408
 2263TIP3   OH228347   4.687   0.106   2.702 -0.4631 -0.0488  0.5171
 2263TIP3    H128348   4.700   0.013   2.716 -2.9550 -0.6118 -0.2838
 2263TIP3    H228349   4.769   0.147   2.728  0.6113 -2.4317  1.0955
 2264TIP3   OH228350   4.318   5.722   1.917 -0.3745 -0.6601 -0.3917
 2264TIP3    H128351   4.305   5.704   1.824 -0.1781 -0.5477 -0.4416
 2264TIP3    H228352   4.239   5.769   1.944 -0.2995 -0.4253 -0.5736
 2265TIP3   OH228353   5.727   3.200   1.632  0.0900  0.1610  0.0648
 2265TIP3    H128354   5.815   3.219   1.598  0.8962 -1.2882  1.1942
 2265TIP3    H228355   5.697   3.282   1.670  0.3959  1.0225 -1.4817
 2266TIP3   OH228356   4.813   2.507   0.462 -0.3513 -0.4867 -0.0455
 2266TIP3    H128357   4.903   2.537   0.454 -0.9720  1.7055  0.4255
 2266TIP3    H228358   4.813   2.453   0.541  0.6840 -1.1185 -0.4625
 2267TIP3   OH228359   3.682   3.529   7.591  0.5237  0.8245 -0.0756
 2267TIP3    H128360   3.623   3.464   7.630  0.4789 -0.1675 -1.7215
 2267TIP3    H228361   3.628   3.573   7.525  0.9134  1.7003  0.1727
 2268TIP3   OH228362   1.944   6.706   1.397  0.1561 -0.3406  0.2016
 2268TIP3    H128363   2.008   6.669   1.457  1.2239 -0.8116 -1.1735
 2268TIP3    H228364   1.865   6.653   1.409  0.7330 -1.1771  0.3310
 2269TIP3   OH228365   1.152   3.786   1.972  0.1743 -0.4155  0.1246
 2269TIP3    H128366   1.060   3.761   1.959 -0.3469  1.8409 -0.9416
 2269TIP3    H228367   1.200   3.723   1.918 -0.9979  0.1649 -1.7071
 2270TIP3   OH228368   4.150   4.759   8.195  0.2058  0.0182 -0.6400
 2270TIP3    H128369   4.170   4.806   8.276  0.2496  1.8969 -1.6691
 2270TIP3    H228370   4.135   4.829   8.131  0.3043 -1.4087 -2.2786
 2271TIP3   OH228371   0.865   5.155   8.841 -0.2247 -0.1900  0.3944
 2271TIP3    H128372   0.911   5.231   8.807 -0.6539 -1.1384 -2.5276
 2271TIP3    H228373   0.934   5.097   8.873  0.1681  0.8105  1.4660
 2272TIP3   OH228374   6.702   2.322   7.831  0.1741  0.2695 -0.3795
 2272TIP3    H128375   6.758   2.386   7.788  0.0259  1.1460  0.7040
 2272TIP3    H228376   6.640   2.295   7.762  0.5257  0.9415 -0.9701
 2273TIP3   OH228377   0.864   4.201   8.704  0.0605 -0.3377  0.0740
 2273TIP3    H128378   0.898   4.115   8.681  2.0241  0.9635 -2.2325
 2273TIP3    H228379   0.799   4.220   8.636 -2.0764 -0.8397  1.8454
 2274TIP3   OH228380   1.949   1.089   8.298  0.0385  0.4704 -0.4381
 2274TIP3    H128381   2.021   1.137   8.338 -1.2775 -0.4802  3.6160
 2274TIP3    H228382   1.879   1.153   8.290 -0.6681  0.0973  1.9169
 2275TIP3   OH228383   0.654   1.732   7.296  0.4107  0.0333 -0.2779
 2275TIP3    H128384   0.655   1.825   7.276  0.9419  0.6500  2.2673
 2275TIP3    H228385   0.566   1.715   7.328  0.2821 -0.3822 -0.8351
 2276TIP3   OH228386   2.386   0.827   0.061 -0.1698 -0.1153 -0.5741
 2276TIP3    H128387   2.450   0.821   0.132 -0.2025  2.7717 -0.1862
 2276TIP3    H228388   2.350   0.738   0.054  1.1973 -0.9359  1.7146
 2277TIP3   OH228389   3.889   0.477   7.235 -0.2827  0.1527  0.2261
 2277TIP3    H128390   3.962   0.527   7.198 -0.6061 -0.1142 -0.8094
 2277TIP3    H228391   3.812   0.509   7.188 -0.6361 -0.5709  0.2975
 2278TIP3   OH228392   1.733   4.016   8.231 -0.1983  0.0606 -0.3039
 2278TIP3    H128393   1.708   3.983   8.145  3.9378 -0.9719 -1.3287
 2278TIP3    H228394   1.803   4.079   8.213  2.1256 -1.5692  2.2678
 2279TIP3   OH228395   3.113   2.974   2.259 -0.0123 -0.1870 -0.2089
 2279TIP3    H128396   3.035   3.012   2.300  0.9534  1.4426  0.1861
 2279TIP3    H228397   3.184   2.991   2.322  0.5896 -2.1788 -0.2815
 2280TIP3   OH228398   1.629   2.160   2.065  0.7037 -0.1418 -0.6032
 2280TIP3    H128399   1.576   2.097   2.016  1.7862 -1.0929 -0.5834
 2280TIP3    H228400   1.719   2.142   2.037  1.3847 -0.8424  1.8576
 2281TIP3   OH228401   0.660   0.470   8.699 -0.2077 -0.1801  0.6601
 2281TIP3    H128402   0.582   0.471   8.755 -1.0509 -1.4285 -0.4571
 2281TIP3    H228403   0.662   0.558   8.660 -0.2304  0.3347  1.7804
 2282TIP3   OH228404   3.914   2.027   2.646  0.4287  0.0582 -0.0124
 2282TIP3    H128405   3.839   2.052   2.699  1.2908  1.8253  0.4509
 2282TIP3    H228406   3.944   1.944   2.683 -0.5507 -0.0409  0.5690
 2283TIP3   OH228407   1.523   3.956   2.108 -0.0861 -0.2662  0.7797
 2283TIP3    H128408   1.613   3.927   2.093 -0.3718 -1.0098  0.4613
 2283TIP3    H228409   1.532   4.046   2.139  0.8247 -0.6287  1.6505
 2284TIP3   OH228410   6.510   5.612   2.038 -0.3312 -0.8987  0.0978
 2284TIP3    H128411   6.514   5.699   2.079 -1.2650  0.2461 -2.0535
 2284TIP3    H228412   6.424   5.610   1.996  0.5786 -1.9154 -1.8374
 2285TIP3   OH228413   0.684   5.543   7.620 -0.0152 -0.6026 -0.0126
 2285TIP3    H128414   0.689   5.459   7.666 -1.1201 -0.6311  0.0998
 2285TIP3    H228415   0.601   5.581   7.650  0.9677  1.0348  0.7736
 2286TIP3   OH228416   5.272   0.298   0.919  0.1658 -0.3388 -0.2402
 2286TIP3    H128417   5.278   0.248   1.001  1.2061 -0.8223 -0.5914
 2286TIP3    H228418   5.246   0.232   0.854 -1.1671  0.1441 -0.2251
 2287TIP3   OH228419   0.664   0.940   0.302 -0.4931 -0.3122 -0.4048
 2287TIP3    H128420   0.596   0.979   0.356 -1.0357 -0.6332 -0.8442
 2287TIP3    H228421   0.639   0.848   0.295 -0.4940 -0.2555 -1.2906
 2288TIP3   OH228422   4.983   0.837   0.622 -0.0537 -0.1050  0.2942
 2288TIP3    H128423   4.888   0.824   0.624 -0.0091 -0.6764 -0.9880
 2288TIP3    H228424   4.993   0.932   0.625 -0.5983 -0.0577  1.9081
 2289TIP3   OH228425   4.290   3.319   1.955 -0.3166 -0.2955  0.4550
 2289TIP3    H128426   4.292   3.361   2.041 -1.5713  0.3186  0.2135
 2289TIP3    H228427   4.209   3.351   1.915  0.3345 -0.4272 -1.0313
 2290TIP3   OH228428   3.527   6.357   2.717  0.5733 -0.2670  0.4903
 2290TIP3    H128429   3.457   6.363   2.782  0.4664  0.2562  0.3348
 2290TIP3    H228430   3.603   6.327   2.767  0.5572  0.3617  0.9189
 2291TIP3   OH228431   1.879   3.805   8.864  0.1673  0.5336 -0.6246
 2291TIP3    H128432   1.833   3.826   8.945  1.2627 -0.4468  0.2867
 2291TIP3    H228433   1.927   3.885   8.841  1.7404  0.1172  1.0302
 2292TIP3   OH228434   1.593   2.031   0.518  0.0623  0.2816 -0.5665
 2292TIP3    H128435   1.553   2.115   0.495  0.9614  1.2063  1.0000
 2292TIP3    H228436   1.520   1.971   0.531 -0.6465  1.1085 -0.6845
 2293TIP3   OH228437   0.971   2.501   0.417  0.1635 -0.7891  0.5351
 2293TIP3    H128438   0.991   2.585   0.459  0.0743 -0.1062 -0.7618
 2293TIP3    H228439   0.877   2.502   0.403  0.1857 -1.0301  0.3591
 2294TIP3   OH228440   0.708   4.332   2.829  0.6787  0.6363  0.1678
 2294TIP3    H128441   0.770   4.294   2.767  1.4363  0.0748  1.2245
 2294TIP3    H228442   0.733   4.424   2.835  1.3935  0.4334  0.5202
 2295TIP3   OH228443   6.747   0.247   8.310  0.2375 -0.8532 -0.0284
 2295TIP3    H128444   6.776   0.320   8.366  0.0582 -0.3381 -0.5972
 2295TIP3    H228445   6.655   0.268   8.290  0.7536 -0.1426 -1.8722
 2296TIP3   OH228446   1.939   2.262   0.989 -0.5877  0.3056 -0.1417
 2296TIP3    H128447   1.876   2.261   0.917 -0.7454  0.1350 -0.0017
 2296TIP3    H228448   2.024   2.245   0.947 -0.8270 -0.9580 -0.1436
 2297TIP3   OH228449   0.319   1.084   1.937 -0.5163  0.4068  0.4966
 2297TIP3    H128450   0.400   1.057   1.894 -0.5588 -0.5807  1.0010
 2297TIP3    H228451   0.309   1.176   1.914  0.2744  0.3066 -0.3130
 2298TIP3   OH228452   6.727   1.089   1.229  0.1361 -0.4509  0.2116
 2298TIP3    H128453   6.755   1.047   1.148  0.1191 -0.9502  0.4616
 2298TIP3    H228454   6.768   1.038   1.299 -0.1892 -0.2872  0.5319
 2299TIP3   OH228455   6.234   1.850   8.656  0.3612 -0.3635  0.1318
 2299TIP3    H128456   6.221   1.775   8.598 -0.7321 -0.6569  0.7247
 2299TIP3    H228457   6.157   1.905   8.642 -0.3323 -0.8241  1.8299
 2300TIP3   OH228458   3.522   0.768   0.088  0.3388 -0.1318 -0.5854
 2300TIP3    H128459   3.488   0.822   0.160 -1.1904 -1.9272  0.1391
 2300TIP3    H228460   3.584   0.708   0.130 -0.6914 -1.3049 -0.6795
 2301TIP3   OH228461   3.445   2.170   0.151 -0.3634 -0.3201  0.3680
 2301TIP3    H128462   3.430   2.261   0.125 -0.7266 -0.7466 -0.9769
 2301TIP3    H228463   3.534   2.169   0.186 -1.1143  0.9818  2.4973
 2302TIP3   OH228464   3.974   4.606   0.357  0.3274 -0.4710 -0.5823
 2302TIP3    H128465   3.958   4.546   0.285  0.4132  3.0562 -3.8547
 2302TIP3    H228466   3.894   4.657   0.365  0.6690 -0.1311  1.1978
 2303TIP3   OH228467   1.487   1.647   1.011  0.1560 -0.0158 -0.4139
 2303TIP3    H128468   1.463   1.701   0.936  0.5166  1.1259  0.2629
 2303TIP3    H228469   1.425   1.671   1.079  0.3189 -0.4658 -0.1030
 2304TIP3   OH228470   3.037   3.920   1.210  0.6043  0.1614  0.1755
 2304TIP3    H128471   3.065   3.869   1.286  1.6230 -1.8416 -1.4325
 2304TIP3    H228472   3.117   3.962   1.179 -0.0334  1.9985  0.8588
 2305TIP3   OH228473   2.531   2.395   8.264  0.1575  0.4161 -0.5468
 2305TIP3    H128474   2.499   2.438   8.185  0.2915  0.8441 -0.3720
 2305TIP3    H228475   2.623   2.374   8.244 -0.6949 -2.6725 -1.8362
 2306TIP3   OH228476   6.364   4.388   1.351  0.6479 -0.4908  0.9450
 2306TIP3    H128477   6.405   4.347   1.275 -0.0972 -0.1421  0.3340
 2306TIP3    H228478   6.370   4.482   1.334 -0.0135 -0.4234  1.0439
 2307TIP3   OH228479   6.262   1.146   1.495 -0.1692 -0.3403 -0.3775
 2307TIP3    H128480   6.299   1.225   1.535 -0.7612 -0.2275 -0.0523
 2307TIP3    H228481   6.337   1.105   1.451  0.1842  0.2962 -0.3849
 2308TIP3   OH228482   3.958   3.089   8.332  0.1990  0.2908 -0.3299
 2308TIP3    H128483   3.986   3.114   8.244 -0.7728  2.3550 -0.1040
 2308TIP3    H228484   3.944   2.994   8.326 -0.5547  0.4744 -2.6090
 2309TIP3   OH228485   2.859   3.622   7.703 -0.2679 -0.2190 -0.1103
 2309TIP3    H128486   2.857   3.627   7.607  0.3299  0.2113 -0.1065
 2309TIP3    H228487   2.848   3.529   7.722 -0.2909 -0.3223 -0.5988
 2310TIP3   OH228488   5.224   1.611   8.880 -0.2362 -0.4352 -0.4501
 2310TIP3    H128489   5.219   1.516   8.894  0.4426 -0.4260 -0.0963
 2310TIP3    H228490   5.222   1.621   8.785  0.2651 -0.8565 -0.5142
 2311TIP3   OH228491   4.817   4.267   2.671  0.3532  0.6976  0.0882
 2311TIP3    H128492   4.733   4.306   2.647 -0.1716  1.6159  3.0391
 2311TIP3    H228493   4.794   4.182   2.708  1.0897 -0.4862 -2.0304
 2312TIP3   OH228494   3.518   4.507   2.020 -0.7855  0.6234 -0.1924
 2312TIP3    H128495   3.489   4.520   1.930  0.4139 -1.6431 -0.9896
 2312TIP3    H228496   3.600   4.556   2.027  0.3997 -1.1022 -1.1715
 2313TIP3   OH228497   2.103   5.934   0.671  0.9153 -0.4624 -0.3354
 2313TIP3    H128498   2.069   5.969   0.589 -0.9624 -3.2009 -0.8603
 2313TIP3    H228499   2.090   6.005   0.734 -0.2940  0.7087 -1.8237
 2314TIP3   OH228500   5.983   5.619   7.986 -0.9690 -0.1204  0.2410
 2314TIP3    H128501   6.076   5.635   7.970 -0.7104 -0.8173  0.9653
 2314TIP3    H228502   5.942   5.705   7.975 -0.0063  0.5294  1.4661
 2315TIP3   OH228503   3.108   2.563   1.641  0.0132 -0.0065  0.0125
 2315TIP3    H128504   3.032   2.523   1.682 -0.0136  2.0090  2.1827
 2315TIP3    H228505   3.094   2.553   1.547 -1.9632 -1.3380  0.3998
 2316TIP3   OH228506   4.346   2.783   0.441  0.2760 -0.2774 -0.2395
 2316TIP3    H128507   4.299   2.814   0.519  0.2448  0.7911 -0.6603
 2316TIP3    H228508   4.404   2.856   0.418 -0.8610  0.1025 -2.1314
 2317TIP3   OH228509   1.806   3.794   1.620 -0.3847 -0.1394 -0.2261
 2317TIP3    H128510   1.769   3.778   1.707 -0.5591  0.9111 -0.0957
 2317TIP3    H228511   1.864   3.870   1.632 -0.5029  0.0942 -1.0478
 2318TIP3   OH228512   0.373   3.125   1.002 -0.0300  0.1787  0.1939
 2318TIP3    H128513   0.363   3.065   1.076  1.1619 -0.5458 -0.2031
 2318TIP3    H228514   0.345   3.210   1.036  1.0681 -0.0139  1.6908
 2319TIP3   OH228515   4.095   4.619   8.773  0.0249  0.5833 -0.3778
 2319TIP3    H128516   4.039   4.633   8.849 -0.8327 -0.9332 -0.6875
 2319TIP3    H228517   4.181   4.652   8.799  0.2789 -1.6631  2.0134
 2320TIP3   OH228518   1.657   0.902   7.450  0.4625  0.2099 -0.7383
 2320TIP3    H128519   1.601   0.858   7.385 -1.2250  1.1381  0.0099
 2320TIP3    H228520   1.697   0.974   7.402 -2.1174  1.9663 -0.4938
 2321TIP3   OH228521   4.864   4.118   1.813  0.6516 -0.8059  0.5527
 2321TIP3    H128522   4.826   4.110   1.726  1.8289  2.7878 -0.4631
 2321TIP3    H228523   4.955   4.091   1.802  0.6780 -0.8181  0.7926
 2322TIP3   OH228524   6.565   4.904   0.498  0.2942  0.2655 -0.0879
 2322TIP3    H128525   6.620   4.896   0.577  0.2387  1.2107  0.0628
 2322TIP3    H228526   6.602   4.979   0.452 -1.7800  1.9290  0.7882
 2323TIP3   OH228527   1.474   3.250   8.147  0.6410 -0.6567 -0.2496
 2323TIP3    H128528   1.516   3.174   8.107  1.4552 -0.7833  0.7944
 2323TIP3    H228529   1.546   3.312   8.162 -0.0119  0.3702 -1.1394
 2324TIP3   OH228530   6.127   1.854   0.916 -0.3926 -0.5475  0.2300
 2324TIP3    H128531   6.045   1.901   0.932 -0.7061 -1.1030  0.2794
 2324TIP3    H228532   6.194   1.922   0.915 -0.7614 -0.1731  0.9234
 2325TIP3   OH228533   2.775   4.755   8.702  0.0290 -0.8505 -0.7475
 2325TIP3    H128534   2.793   4.837   8.748  0.7337 -1.1864 -0.4000
 2325TIP3    H228535   2.690   4.768   8.661 -0.0669 -0.1091 -0.3263
 2326TIP3   OH228536   5.461   4.936   2.880  0.5039  0.2801  0.4114
 2326TIP3    H128537   5.520   4.865   2.856 -0.3848 -0.6645  0.9000
 2326TIP3    H228538   5.454   4.990   2.802  0.0019 -1.0375 -0.4793
 2327TIP3   OH228539   4.451   4.587   0.885 -0.0098 -0.2387 -0.1122
 2327TIP3    H128540   4.461   4.682   0.892  1.3094 -0.3738  0.1972
 2327TIP3    H228541   4.360   4.570   0.907 -0.1123  0.9091  0.4038
 2328TIP3   OH228542   6.290   2.373   6.964  0.2872 -0.3196 -0.4812
 2328TIP3    H128543   6.345   2.313   6.913  1.6454 -0.4861  1.1029
 2328TIP3    H228544   6.351   2.442   6.993 -1.0384  1.3628 -1.4641
 2329TIP3   OH228545   0.273   3.678   7.968 -0.2233 -0.4512 -0.0806
 2329TIP3    H128546   0.316   3.619   8.029 -0.4853 -0.5686 -0.0085
 2329TIP3    H228547   0.180   3.674   7.991 -0.3031 -0.3739 -0.3801
 2330TIP3   OH228548   3.203   6.106   3.097  0.1948  0.2480  0.3185
 2330TIP3    H128549   3.201   6.096   3.001  1.1781  0.1797  0.3032
 2330TIP3    H228550   3.151   6.185   3.113  0.1990  0.3795 -0.2879
 2331TIP3   OH228551   5.679   4.195   0.967  0.0759  0.5984  0.3369
 2331TIP3    H128552   5.723   4.115   0.940 -0.5354  0.0172  1.0067
 2331TIP3    H228553   5.712   4.212   1.055  0.1245  1.0290  0.2369
 2332TIP3   OH228554   2.929   6.190   1.987  0.4258  0.0454 -0.2805
 2332TIP3    H128555   2.982   6.269   1.994  0.6518 -0.0032 -1.2694
 2332TIP3    H228556   2.904   6.169   2.077  0.5673  1.1014  0.0141
 2333TIP3   OH228557   3.383   6.382   0.635  0.5431  0.1545  0.0611
 2333TIP3    H128558   3.434   6.300   0.636 -0.3107 -0.3986 -0.3599
 2333TIP3    H228559   3.426   6.436   0.569  0.1787 -0.5848 -0.7966
 2334TIP3   OH228560   4.658   2.204   8.241 -0.4255 -0.6257 -0.3260
 2334TIP3    H128561   4.688   2.163   8.322  0.8707  0.8651 -0.0345
 2334TIP3    H228562   4.676   2.297   8.252  0.0019 -0.4133 -2.4175
 2335TIP3   OH228563   1.857   0.620   8.537  0.3589  0.5017 -0.1539
 2335TIP3    H128564   1.848   0.696   8.478  1.8671 -0.0366 -1.1212
 2335TIP3    H228565   1.846   0.545   8.479  0.5117 -0.0354  0.5163
 2336TIP3   OH228566   0.982   2.583   8.078  0.4088  0.1993  0.1100
 2336TIP3    H128567   0.912   2.517   8.080 -1.2020  1.8182 -0.6854
 2336TIP3    H228568   1.036   2.559   8.003  1.5901 -1.8517  1.5071
 2337TIP3   OH228569   6.007   0.820   8.556  0.4177  0.0009 -0.0147
 2337TIP3    H128570   5.969   0.866   8.630 -0.3949  1.2028 -1.1323
 2337TIP3    H228571   6.044   0.740   8.593 -1.6317 -0.3567  1.4131
 2338TIP3   OH228572   0.246   5.005   8.141 -0.3960 -0.3566 -0.3962
 2338TIP3    H128573   0.163   5.038   8.107 -0.3271  1.2497  0.8667
 2338TIP3    H228574   0.294   5.084   8.168 -0.0949 -1.4291  2.5711
 2339TIP3   OH228575   1.048   1.688   7.106 -0.3505 -0.1222  0.0435
 2339TIP3    H128576   1.082   1.745   7.037 -1.3356  1.6620  0.9474
 2339TIP3    H228577   0.985   1.631   7.062  0.5050 -0.3869 -0.8508
 2340TIP3   OH228578   3.918   1.081   7.549 -0.3179 -0.0003 -0.4424
 2340TIP3    H128579   3.998   1.133   7.536 -0.6723  0.6042 -0.2342
 2340TIP3    H228580   3.847   1.143   7.535 -0.7521  0.2605  2.3582
 2341TIP3   OH228581   1.367   1.010   8.743 -0.0500  0.4796 -0.5525
 2341TIP3    H128582   1.407   1.048   8.665  0.6140  0.7637 -0.0840
 2341TIP3    H228583   1.295   1.069   8.764  0.1608  0.7495 -0.5864
 2342TIP3   OH228584   2.594   2.400   7.044  0.1331 -0.0795  0.0310
 2342TIP3    H128585   2.544   2.320   7.059  0.0604 -0.6380 -2.6655
 2342TIP3    H228586   2.560   2.462   7.109 -2.6148 -1.0647 -0.3316
 2343TIP3   OH228587   0.569   1.037   1.816 -0.3468 -0.1452 -0.0698
 2343TIP3    H128588   0.651   1.001   1.852 -0.6733 -0.7588  0.0788
 2343TIP3    H228589   0.565   1.000   1.727  0.7325  1.7922 -0.9972
 2344TIP3   OH228590   3.913   2.275   0.425  0.9168 -0.4755 -0.5341
 2344TIP3    H128591   3.885   2.218   0.354  0.8573 -1.4099  0.2299
 2344TIP3    H228592   3.898   2.224   0.505 -0.3759  1.0651  0.2829
 2345TIP3   OH228593   0.019   3.663   8.804  0.4075  0.1165  0.5482
 2345TIP3    H128594   0.077   3.621   8.867  0.3926 -0.4529  0.1907
 2345TIP3    H228595   0.078   3.712   8.747  0.5427 -0.4467  0.1954
 2346TIP3   OH228596   1.738   1.646   7.077 -0.9232 -0.0207  0.0594
 2346TIP3    H128597   1.684   1.668   7.153 -1.5325 -1.6164  0.1271
 2346TIP3    H228598   1.740   1.550   7.076 -0.7290 -0.0318 -1.8061
 2347TIP3   OH228599   3.497   3.283   1.907 -0.0612 -0.0475 -0.3251
 2347TIP3    H128600   3.422   3.281   1.847  0.6253  1.1319 -1.2689
 2347TIP3    H228601   3.549   3.358   1.877 -0.5051  1.6681  2.7469
 2348TIP3   OH228602   5.574   0.248   1.413  0.3700  0.2317 -0.3010
 2348TIP3    H128603   5.518   0.202   1.476  2.1696 -2.0314 -0.2027
 2348TIP3    H228604   5.520   0.320   1.380 -1.6741 -0.3347  1.5850
 2349TIP3   OH228605   0.879   2.794   1.549 -0.4320 -0.3803  0.4023
 2349TIP3    H128606   0.846   2.837   1.628  0.8943  1.5992 -0.0424
 2349TIP3    H228607   0.939   2.726   1.582  0.4251  0.6987  1.1389
 2350TIP3   OH228608   4.706   1.986   2.824 -0.0023 -0.7891  0.8194
 2350TIP3    H128609   4.689   1.904   2.870  0.2908 -0.8579  0.8101
 2350TIP3    H228610   4.783   2.022   2.867 -0.1187 -0.5257  0.8103
 2351TIP3   OH228611   0.103   4.805   8.747  0.2954  0.0001 -0.2358
 2351TIP3    H128612   0.077   4.866   8.678 -0.2599  0.2789  0.2221
 2351TIP3    H228613   0.164   4.745   8.703 -0.2289  0.0345 -1.0261
 2352TIP3   OH228614   0.006   0.628   7.452  0.1562  0.3985  1.0243
 2352TIP3    H128615   0.005   0.579   7.370  0.8617  2.0727 -0.0597
 2352TIP3    H228616   0.039   0.567   7.517 -0.2787 -0.9313  0.0309
 2353TIP3   OH228617   0.574   0.531   3.143 -0.3108 -1.0576 -0.2819
 2353TIP3    H128618   0.543   0.618   3.170 -2.5186 -1.4681 -1.2955
 2353TIP3    H228619   0.640   0.549   3.075 -0.3415 -0.1810 -0.0965
 2354TIP3   OH228620   4.811   3.166   1.300 -0.1162 -0.4174  0.1733
 2354TIP3    H128621   4.721   3.191   1.278 -0.4540 -1.3295  0.4510
 2354TIP3    H228622   4.832   3.219   1.377 -0.4562 -0.2705  0.1669
 2355TIP3   OH228623   0.441   2.758   1.064 -0.5509 -0.0038 -0.3654
 2355TIP3    H128624   0.414   2.692   1.000  0.2774  0.9805 -1.8002
 2355TIP3    H228625   0.537   2.751   1.065 -0.5903 -0.9033  1.8141
 2356TIP3   OH228626   4.190   2.055   2.034  0.0412 -0.2252  0.3774
 2356TIP3    H128627   4.127   1.987   2.057 -1.3364  0.9835  0.3214
 2356TIP3    H228628   4.137   2.134   2.022  1.5371  0.7685  0.0119
 2357TIP3   OH228629   1.568   5.960   8.732  0.5284 -0.5618  0.0448
 2357TIP3    H128630   1.564   5.909   8.813  1.7556 -0.2615  0.3280
 2357TIP3    H228631   1.540   6.048   8.758 -0.0787 -0.7136 -0.0914
 2358TIP3   OH228632   6.093   1.128   8.811  0.0584 -0.6684 -0.1068
 2358TIP3    H128633   6.019   1.138   8.751 -0.3363 -0.8558  0.3467
 2358TIP3    H228634   6.055   1.094   8.891  0.9811 -3.4076 -0.7181
 2359TIP3   OH228635   6.168   6.214   8.112 -0.2848 -0.1726  0.3864
 2359TIP3    H128636   6.123   6.145   8.161 -0.0479 -0.1530  0.6317
 2359TIP3    H228637   6.255   6.219   8.151 -0.1082 -0.1222 -0.0033
 2360TIP3   OH228638   4.826   2.953   1.569 -0.2883 -0.6618  0.1148
 2360TIP3    H128639   4.798   2.940   1.479  1.0114  0.2988 -0.4555
 2360TIP3    H228640   4.894   3.020   1.564 -2.9658  2.5942  2.2292
 2361TIP3   OH228641   3.829   3.347   1.288  0.3520 -0.0059 -0.7215
 2361TIP3    H128642   3.749   3.334   1.237 -0.1590 -0.5881  0.1904
 2361TIP3    H228643   3.829   3.441   1.309  1.1828  0.4903 -2.7274
 2362TIP3   OH228644   0.895   3.852   2.075 -0.0523  0.2031  0.1273
 2362TIP3    H128645   0.854   3.936   2.098  2.4279  1.0829  1.7235
 2362TIP3    H228646   0.897   3.803   2.156  0.0057 -0.7521 -0.4350
 2363TIP3   OH228647   1.628   4.734   7.020 -0.2289 -0.5467 -0.0592
 2363TIP3    H128648   1.545   4.778   7.004  1.1097  1.4756 -2.0300
 2363TIP3    H228649   1.624   4.655   6.967 -0.7577 -0.2975 -0.3956
 2364TIP3   OH228650   6.020   1.897   0.414 -0.2832  0.0539 -0.3988
 2364TIP3    H128651   6.034   1.849   0.496 -2.3510 -1.3622 -0.8123
 2364TIP3    H228652   6.056   1.984   0.432 -0.2405 -0.3546  1.8521
 2365TIP3   OH228653   1.392   5.824   8.565 -0.7451  0.0860  0.4996
 2365TIP3    H128654   1.466   5.877   8.594  0.0662 -0.6032 -0.2959
 2365TIP3    H228655   1.315   5.869   8.603  0.0445  0.8933  1.1931
 2366TIP3   OH228656   4.436   2.769   2.162 -0.0196  0.2565  0.3957
 2366TIP3    H128657   4.432   2.717   2.081 -0.1241  1.7415 -0.5901
 2366TIP3    H228658   4.382   2.845   2.144  1.7948  1.7616  0.9987
 2367TIP3   OH228659   4.855   0.528   0.330 -0.3801  0.5093  0.1283
 2367TIP3    H128660   4.800   0.485   0.265  0.5801 -0.3245 -0.1599
 2367TIP3    H228661   4.893   0.603   0.283  0.6153 -0.3133 -0.4124
 2368TIP3   OH228662   3.215   0.713   1.554  0.1165 -0.0905 -0.0465
 2368TIP3    H128663   3.195   0.804   1.576  0.3167 -0.4098  1.6233
 2368TIP3    H228664   3.138   0.664   1.584  0.3270 -0.5400 -0.2299
 2369TIP3   OH228665   3.053   1.000   2.355  0.4596  0.1486  0.9254
 2369TIP3    H128666   3.042   1.063   2.283  1.1177  0.2304  0.8888
 2369TIP3    H228667   3.076   0.918   2.311 -2.5985 -0.7539  0.8010
 2370TIP3   OH228668   3.362   6.771   7.778  0.7702  0.3379 -0.0064
 2370TIP3    H128669   3.341   6.774   7.871  3.3366  0.2994  0.6394
 2370TIP3    H228670   3.434   6.833   7.767 -0.2689  1.2861 -2.2439
 2371TIP3   OH228671   6.724   0.760   2.498  0.1609  0.4831  0.1400
 2371TIP3    H128672   6.686   0.678   2.531  0.6860 -0.6438 -1.9106
 2371TIP3    H228673   6.777   0.793   2.571  1.4578 -2.0050  0.4260
 2372TIP3   OH228674   0.071   4.103   7.312  0.1454 -0.2084 -0.0041
 2372TIP3    H128675   0.110   4.028   7.267 -0.4208 -1.9187  2.1867
 2372TIP3    H228676   0.008   4.064   7.373  0.9335  1.9150  2.3218
 2373TIP3   OH228677   1.601   4.815   7.754  0.4339 -0.0742 -0.2196
 2373TIP3    H128678   1.544   4.856   7.820 -0.2425 -2.2419  0.6293
 2373TIP3    H228679   1.544   4.802   7.678 -0.3988 -2.4652  0.7134
 2374TIP3   OH228680   5.685   4.293   1.501  0.3467 -0.1048  0.1990
 2374TIP3    H128681   5.761   4.238   1.521  1.4988  0.6993 -1.7005
 2374TIP3    H228682   5.613   4.231   1.488  1.5360 -1.2029 -1.5812
 2375TIP3   OH228683   5.073   0.798   8.828  0.0888 -0.1552 -0.4232
 2375TIP3    H128684   5.161   0.773   8.801  0.0394 -0.5653 -0.2149
 2375TIP3    H228685   5.075   0.894   8.831  0.2006 -0.1165 -1.4933
 2376TIP3   OH228686   6.790   5.509   2.478 -0.1007 -0.3508 -0.1171
 2376TIP3    H128687   6.876   5.505   2.520 -0.8828 -0.1255  1.6242
 2376TIP3    H228688   6.776   5.422   2.442  0.6811 -0.5150 -0.0291
 2377TIP3   OH228689   3.811   1.959   2.382 -0.0916  0.2618 -0.0518
 2377TIP3    H128690   3.861   1.881   2.358 -1.2087 -1.0504  1.6316
 2377TIP3    H228691   3.837   1.977   2.473 -0.8940  0.9935  0.0508
 2378TIP3   OH228692   2.300   0.085   1.170 -0.0058 -0.0461 -0.3434
 2378TIP3    H128693   2.362   0.147   1.131 -0.0767  0.3305  0.1311
 2378TIP3    H228694   2.223   0.138   1.191 -0.5025 -0.5135 -0.9392
 2379TIP3   OH228695   6.049   0.520   1.179 -0.2878  0.3608 -0.1490
 2379TIP3    H128696   6.095   0.453   1.230  2.4743  1.4225 -1.0447
 2379TIP3    H228697   6.050   0.597   1.236  1.9091  1.2612 -1.3014
 2380TIP3   OH228698   5.938   4.752   0.860 -0.2115  0.3958 -0.0141
 2380TIP3    H128699   5.865   4.717   0.911 -0.7690  1.4122 -0.0794
 2380TIP3    H228700   5.938   4.846   0.881 -0.0538  0.7202 -1.3740
 2381TIP3   OH228701   6.759   1.434   7.247  0.1880 -0.2323  0.5819
 2381TIP3    H128702   6.810   1.515   7.255  2.1616 -1.5675  3.0966
 2381TIP3    H228703   6.799   1.388   7.173  0.2675  0.2537  0.3149
 2382TIP3   OH228704   6.665   4.191   2.293  0.1344 -0.0103 -0.7486
 2382TIP3    H128705   6.711   4.224   2.216 -0.1886 -0.0250 -0.9502
 2382TIP3    H228706   6.727   4.132   2.335  0.3318  0.0416 -0.9672
 2383TIP3   OH228707   1.905   5.493   2.563 -0.4689 -0.0169  0.2038
 2383TIP3    H128708   1.900   5.536   2.649 -2.1231 -0.3560  0.3161
 2383TIP3    H228709   1.817   5.502   2.527 -0.5997 -2.3834 -0.2200
 2384TIP3   OH228710   3.589   3.196   1.109  0.1826 -0.2037 -0.1305
 2384TIP3    H128711   3.509   3.239   1.079 -0.8436 -3.2111 -2.1200
 2384TIP3    H228712   3.659   3.240   1.061 -0.1789  2.1822  1.3270
 2385TIP3   OH228713   6.043   1.902   1.684 -0.2006 -0.5439 -0.1401
 2385TIP3    H128714   5.950   1.910   1.706  0.1706 -0.5487  1.5912
 2385TIP3    H228715   6.085   1.880   1.767  1.7095  2.2052 -0.2278
 2386TIP3   OH228716   0.132   3.010   0.843 -0.3437 -0.4726 -0.3370
 2386TIP3    H128717   0.159   3.021   0.752  0.6834 -1.1920 -0.1413
 2386TIP3    H228718   0.171   3.084   0.889  2.2424 -1.9975  0.1090
 2387TIP3   OH228719   4.413   4.782   7.776  0.0041 -0.3449 -0.1640
 2387TIP3    H128720   4.336   4.781   7.718 -1.2649 -3.5952  1.2988
 2387TIP3    H228721   4.384   4.828   7.854  0.4886  0.7989 -0.6431
 2388TIP3   OH228722   3.691   3.027   7.978 -0.0239  0.2464  0.1027
 2388TIP3    H128723   3.722   3.113   7.950 -0.3171  0.1984 -0.3696
 2388TIP3    H228724   3.604   3.019   7.939 -0.8815  0.6049  1.8251
 2389TIP3   OH228725   1.594   2.154   7.944  0.3903  0.0618 -0.0558
 2389TIP3    H128726   1.606   2.230   8.000 -0.0763 -1.0772  1.6611
 2389TIP3    H228727   1.617   2.185   7.856  0.1066  2.1883  0.5659
 2390TIP3   OH228728   6.343   0.492   1.538  0.4937  0.3402 -0.0156
 2390TIP3    H128729   6.374   0.561   1.480  2.2497  0.0739  0.5537
 2390TIP3    H228730   6.307   0.426   1.479  1.3299  0.5186 -0.7523
 2391TIP3   OH228731   1.562   5.132   8.849  0.1111  0.0993  0.2918
 2391TIP3    H128732   1.608   5.057   8.811 -1.8689 -1.0310  0.0126
 2391TIP3    H228733   1.542   5.104   8.939  1.8486  1.4698  1.1851
 2392TIP3   OH228734   4.929   4.173   0.760 -0.2180  0.1199 -0.0880
 2392TIP3    H128735   4.990   4.136   0.695  0.2259  0.7349 -0.0398
 2392TIP3    H228736   4.887   4.246   0.714 -1.7040 -0.9217 -0.4561
 2393TIP3   OH228737   2.389   5.584   1.048  0.3625 -0.0267  0.6838
 2393TIP3    H128738   2.344   5.664   1.022  0.1245 -0.4719 -0.3330
 2393TIP3    H228739   2.482   5.606   1.042  0.3493 -0.4127 -1.6733
 2394TIP3   OH228740   3.441   2.633   1.008  0.4416  0.2097 -0.1017
 2394TIP3    H128741   3.359   2.674   0.981  0.9129  0.9974 -0.3596
 2394TIP3    H228742   3.474   2.591   0.929  0.0647 -0.5064  0.1121
 2395TIP3   OH228743   2.886   2.499   1.786 -0.0753  0.0621  0.5588
 2395TIP3    H128744   2.843   2.509   1.870 -3.2133 -0.9605 -0.7656
 2395TIP3    H228745   2.846   2.566   1.730 -0.5500 -1.3734 -0.9219
 2396TIP3   OH228746   6.113   5.902   1.169  0.1671 -0.4494 -0.7309
 2396TIP3    H128747   6.079   5.991   1.158 -0.9468 -0.2453  2.9495
 2396TIP3    H228748   6.203   5.915   1.200  0.1875 -0.6213 -0.7177
 2397TIP3   OH228749   4.830   0.787   8.063  0.0972 -0.5166  0.0882
 2397TIP3    H128750   4.823   0.766   7.970 -0.1562 -0.2501  0.0474
 2397TIP3    H228751   4.813   0.881   8.068 -0.6778 -0.6749  0.4906
 2398TIP3   OH228752   5.132   2.585   2.015  0.0927 -0.5103 -0.1411
 2398TIP3    H128753   5.227   2.576   2.026 -0.0927 -0.2272  2.1367
 2398TIP3    H228754   5.123   2.651   1.945  1.5378 -1.0235 -0.8603
 2399TIP3   OH228755   0.286   1.459   0.156  0.1386 -0.7803 -0.2133
 2399TIP3    H128756   0.265   1.469   0.249  0.8863 -1.0884 -0.0091
 2399TIP3    H228757   0.290   1.549   0.122 -1.0791 -0.6881 -0.1741
 2400TIP3   OH228758   6.673   4.560   8.030  0.2610 -0.5582  0.2264
 2400TIP3    H128759   6.578   4.556   8.043 -0.2290  0.7640 -2.3918
 2400TIP3    H228760   6.709   4.534   8.115 -2.3740 -3.0686  0.7456
 2401TIP3   OH228761   4.924   6.243   3.088  0.0448  0.2968  0.0846
 2401TIP3    H128762   4.890   6.317   3.139 -0.4878 -0.7358  1.2695
 2401TIP3    H228763   4.934   6.278   3.000  1.5917  2.3169  0.9843
 2402TIP3   OH228764   1.487   6.122   2.870  0.3775 -0.9382  0.3940
 2402TIP3    H128765   1.465   6.213   2.891  1.5115 -0.0519 -1.9086
 2402TIP3    H228766   1.402   6.078   2.864 -0.2316  0.0974  1.0139
 2403TIP3   OH228767   4.639   5.307   0.803 -0.5252 -0.2427 -0.2037
 2403TIP3    H128768   4.646   5.364   0.727  1.5603 -2.1705 -1.5994
 2403TIP3    H228769   4.663   5.362   0.877  0.6769  0.8886 -1.3839
 2404TIP3   OH228770   0.765   0.799   1.181 -0.3083  0.3606  0.3098
 2404TIP3    H128771   0.843   0.745   1.166 -0.4996 -0.1772  1.2049
 2404TIP3    H228772   0.753   0.846   1.098  1.3617  0.9909  0.3840
 2405TIP3   OH228773   3.335   4.530   8.577 -0.9845 -0.5408 -0.3849
 2405TIP3    H128774   3.395   4.596   8.544  0.6470 -0.7122  1.9977
 2405TIP3    H228775   3.257   4.539   8.522  0.9237  0.0918 -3.2169
 2406TIP3   OH228776   3.246   6.189   1.835 -0.0296  0.2180 -0.0419
 2406TIP3    H128777   3.175   6.131   1.811 -0.4133  0.6966 -0.0830
 2406TIP3    H228778   3.205   6.275   1.846  0.7386  0.7741 -1.3066
 2407TIP3   OH228779   4.399   2.214   8.519 -0.4518  0.2214 -0.5164
 2407TIP3    H128780   4.329   2.266   8.479 -0.5528 -0.3879 -1.1512
 2407TIP3    H228781   4.386   2.126   8.485  2.5513  0.6818 -3.2974
 2408TIP3   OH228782   0.221   5.307   1.964 -0.5151  0.0919  0.4052
 2408TIP3    H128783   0.295   5.331   1.908  1.3774 -0.3719  2.5282
 2408TIP3    H228784   0.144   5.315   1.908  1.3508 -2.0400 -2.7648
 2409TIP3   OH228785   1.861   5.427   0.471  0.5098 -0.2667  0.3297
 2409TIP3    H128786   1.853   5.456   0.380  1.7025 -2.2541 -0.4725
 2409TIP3    H228787   1.934   5.478   0.506 -1.0892  1.8382  0.8177
 2410TIP3   OH228788   2.906   2.155   1.278 -0.2504  0.3915 -0.4547
 2410TIP3    H128789   2.921   2.063   1.301  1.3097  0.5483 -0.7646
 2410TIP3    H228790   2.979   2.178   1.220 -0.5315  1.8752 -0.2589
 2411TIP3   OH228791   1.676   2.984   7.555  0.7155 -0.6116 -0.2097
 2411TIP3    H128792   1.610   2.916   7.542 -0.9219  1.1009 -1.6142
 2411TIP3    H228793   1.737   2.972   7.482 -0.2899  0.1425 -1.2104
 2412TIP3   OH228794   0.706   1.452   0.675  0.1630  0.0922 -0.0319
 2412TIP3    H128795   0.770   1.518   0.699 -1.3900  2.7981 -2.6400
 2412TIP3    H228796   0.622   1.499   0.674 -1.0882 -1.9756 -1.7712
 2413TIP3   OH228797   6.005   5.596   7.155 -0.3468  0.0640 -0.3663
 2413TIP3    H128798   6.023   5.525   7.093  0.6994 -0.6844  0.7554
 2413TIP3    H228799   6.085   5.604   7.207 -0.6324  1.7359 -0.1268
 2414TIP3   OH228800   1.469   6.527   1.896 -0.6876  0.1933 -0.2455
 2414TIP3    H128801   1.523   6.450   1.917  0.0944  0.9315  0.4975
 2414TIP3    H228802   1.394   6.491   1.848 -0.5652 -1.0899  0.4759
 2415TIP3   OH228803   0.570   3.106   1.591 -0.1332  0.1905  0.5013
 2415TIP3    H128804   0.506   3.162   1.636 -0.4112  0.0871  0.2308
 2415TIP3    H228805   0.568   3.024   1.640  0.9639  0.7307  1.4878
 2416TIP3   OH228806   5.313   0.599   8.185 -0.3182  0.0371  0.2504
 2416TIP3    H128807   5.287   0.632   8.271 -1.2856  2.0237 -0.7456
 2416TIP3    H228808   5.239   0.545   8.157 -0.9157  1.0165 -0.1368
 2417TIP3   OH228809   4.227   5.502   0.279  0.3218 -0.3753  0.1691
 2417TIP3    H128810   4.132   5.503   0.285  0.3318  0.9501  0.4043
 2417TIP3    H228811   4.246   5.444   0.205 -0.5531 -2.4293  1.4559
 2418TIP3   OH228812   1.770   0.747   7.644  0.1849  0.3100 -0.0838
 2418TIP3    H128813   1.734   0.778   7.560  0.0536 -0.5713 -0.3651
 2418TIP3    H228814   1.780   0.653   7.632 -2.6498 -0.3751  1.8780
 2419TIP3   OH228815   5.421   3.812   0.189 -0.1771  0.2401  0.3920
 2419TIP3    H128816   5.513   3.831   0.209 -0.0515 -0.0917  0.1241
 2419TIP3    H228817   5.413   3.829   0.096 -0.6312  1.2372  0.6041
 2420TIP3   OH228818   3.263   6.110   2.634  0.9628  0.5195 -0.3199
 2420TIP3    H128819   3.313   6.068   2.704 -0.9599 -0.7754  0.3352
 2420TIP3    H228820   3.213   6.178   2.678 -0.7438 -0.7168 -0.2606
 2421TIP3   OH228821   6.029   3.835   0.852 -0.0311  0.1612 -0.6768
 2421TIP3    H128822   5.984   3.751   0.846  1.0136 -0.3768 -1.2040
 2421TIP3    H228823   6.102   3.828   0.791  0.7032  1.0537  0.0624
 2422TIP3   OH228824   2.088   2.998   2.523  0.2243 -0.4689 -0.2779
 2422TIP3    H128825   2.025   2.941   2.479 -0.4411 -0.1739  0.2744
 2422TIP3    H228826   2.070   2.985   2.616 -0.6963  1.4402 -0.1417
 2423TIP3   OH228827   6.216   5.064   8.090  0.2165  0.5327 -0.5714
 2423TIP3    H128828   6.264   5.144   8.067 -1.4948  1.2817 -1.6967
 2423TIP3    H228829   6.173   5.085   8.173 -1.2969  1.3138 -1.5101
 2424TIP3   OH228830   5.472   3.332   8.213 -0.2175  0.5252  0.0153
 2424TIP3    H128831   5.497   3.394   8.143  2.7460 -1.4389 -0.8374
 2424TIP3    H228832   5.460   3.249   8.168 -0.5977 -0.3036  1.5873
 2425TIP3   OH228833   1.467   1.988   1.929  0.3456  0.2988  0.1204
 2425TIP3    H128834   1.398   1.947   1.981  1.0548 -0.8321  0.2154
 2425TIP3    H228835   1.438   1.976   1.838  0.2008  0.2294  0.1750
 2426TIP3   OH228836   1.350   6.164   2.413 -0.1537  0.0828  0.1488
 2426TIP3    H128837   1.381   6.076   2.431  0.5073  0.3665  0.4348
 2426TIP3    H228838   1.428   6.219   2.420 -0.8617  0.9595  1.8677
 2427TIP3   OH228839   5.229   6.132   8.502 -0.1422  0.4043  0.4432
 2427TIP3    H128840   5.237   6.036   8.508  4.4001  0.6593  1.5209
 2427TIP3    H228841   5.259   6.153   8.414 -1.2996  0.8809  0.1464
 2428TIP3   OH228842   3.530   3.762   1.102  0.3485 -0.2329 -0.4440
 2428TIP3    H128843   3.588   3.818   1.154 -0.2348 -1.8120  2.0531
 2428TIP3    H228844   3.581   3.682   1.087  0.1375 -0.1920 -1.5293
 2429TIP3   OH228845   4.374   4.077   0.046 -0.1367 -0.0581 -0.0998
 2429TIP3    H128846   4.366   3.985   0.073  0.2983 -0.3962 -1.0772
 2429TIP3    H228847   4.284   4.109   0.041 -0.2628 -0.1987  0.9846
 2430TIP3   OH228848   0.156   2.314   8.048  0.3680  0.0902 -0.2418
 2430TIP3    H128849   0.123   2.226   8.029 -0.3664  0.4299 -0.5805
 2430TIP3    H228850   0.234   2.299   8.101  1.5570 -0.8545 -2.1095
 2431TIP3   OH228851   6.450   2.740   2.723 -0.6644  0.3040  0.2406
 2431TIP3    H128852   6.493   2.815   2.765  1.9619 -0.6599 -0.5531
 2431TIP3    H228853   6.474   2.748   2.630 -1.2924 -0.9301 -0.0436
 2432TIP3   OH228854   0.148   4.757   0.375  0.3479  0.3349  0.1597
 2432TIP3    H128855   0.209   4.808   0.427 -1.3321  2.1859  0.4224
 2432TIP3    H228856   0.093   4.712   0.440  1.4549 -1.4837 -0.0698
 2433TIP3   OH228857   0.839   4.950   6.687 -0.3061  0.2800 -0.6175
 2433TIP3    H128858   0.917   4.905   6.655 -0.4003 -0.5044  0.2068
 2433TIP3    H228859   0.869   5.038   6.709 -0.1973  0.7814 -2.6107
 2434TIP3   OH228860   0.537   4.580   7.562  0.2767 -0.4260 -0.2095
 2434TIP3    H128861   0.540   4.488   7.588  0.0357 -1.1962 -2.6908
 2434TIP3    H228862   0.456   4.589   7.513  0.4569  1.0552 -0.3000
 2435TIP3   OH228863   4.912   2.466   8.039  0.0807 -0.5947  0.4717
 2435TIP3    H128864   4.830   2.486   8.084 -0.1338 -1.5557  0.5295
 2435TIP3    H228865   4.950   2.395   8.090 -0.5304 -2.2467 -1.2673
 2436TIP3   OH228866   4.242   0.932   0.274  0.0321 -0.0391  0.0390
 2436TIP3    H128867   4.170   0.924   0.337  0.1691 -0.4178  0.1530
 2436TIP3    H228868   4.314   0.884   0.314  0.3801  0.4303 -0.0304
 2437TIP3   OH228869   1.624   6.163   0.641 -0.1616 -0.0529 -0.3496
 2437TIP3    H128870   1.682   6.209   0.579 -1.6749 -0.1225 -1.8861
 2437TIP3    H228871   1.643   6.204   0.726  2.6731 -0.6198 -0.6155
 2438TIP3   OH228872   1.331   6.288   1.271 -0.4852 -0.2712 -0.4123
 2438TIP3    H128873   1.412   6.288   1.323 -0.0803  0.3718 -1.0208
 2438TIP3    H228874   1.261   6.296   1.335  0.0612  1.9159 -0.0100
 2439TIP3   OH228875   2.028   6.009   2.467  0.3369  0.3324  0.3948
 2439TIP3    H128876   2.011   5.938   2.529  0.7357  0.3372  0.5150
 2439TIP3    H228877   1.955   6.070   2.479 -0.0313 -0.0746  0.2615
 2440TIP3   OH228878   4.017   1.731   7.251  0.1195  0.5279  0.6601
 2440TIP3    H128879   4.023   1.782   7.332  2.6529  0.4670  0.5818
 2440TIP3    H228880   4.018   1.797   7.182 -0.0051  0.4894  0.6208
 2441TIP3   OH228881   6.182   5.506   8.285  0.3573  0.3362 -0.0295
 2441TIP3    H128882   6.124   5.513   8.361  0.1085  0.2622 -0.2109
 2441TIP3    H228883   6.136   5.447   8.225  0.4258  0.6100 -0.3548
 2442TIP3   OH228884   0.009   1.378   8.364  0.1104 -0.6128 -0.2528
 2442TIP3    H128885   0.046   1.458   8.402  0.5482 -0.9678  0.0863
 2442TIP3    H228886  -0.069   1.407   8.318 -0.5821 -0.1851  1.1259
 2443TIP3   OH228887   1.427   4.000   0.306 -0.2187 -0.0134  0.1524
 2443TIP3    H128888   1.419   4.089   0.272 -0.6585  0.0081  0.3123
 2443TIP3    H228889   1.429   3.945   0.228 -1.3293  0.0287  0.0815
 2444TIP3   OH228890   5.843   4.770   8.497  0.0192  0.1378  0.4600
 2444TIP3    H128891   5.812   4.861   8.503 -0.4575  0.0364 -0.3702
 2444TIP3    H228892   5.878   4.751   8.584 -1.4571  0.5422  1.1747
 2445TIP3   OH228893   0.438   2.627   0.012 -0.5496 -0.1640 -0.2460
 2445TIP3    H128894   0.384   2.674  -0.052 -0.5238  0.5114  0.2153
 2445TIP3    H228895   0.452   2.541  -0.027  0.3480  0.5750 -1.6481
 2446TIP3   OH228896   4.566   5.317   7.493 -0.3242 -0.3911 -0.2462
 2446TIP3    H128897   4.499   5.384   7.506  0.8003  0.8640 -0.6971
 2446TIP3    H228898   4.587   5.323   7.400  0.7316 -0.4603 -0.0186
 2447TIP3   OH228899   0.262   3.423   8.114  0.1068 -0.4873  0.0035
 2447TIP3    H128900   0.343   3.403   8.162 -0.5172 -2.3201  0.3536
 2447TIP3    H228901   0.193   3.379   8.163 -1.1525  1.1177 -0.2408
 2448TIP3   OH228902   5.051   0.908   2.076  0.4623 -0.2657 -0.3862
 2448TIP3    H128903   5.111   0.976   2.046  0.6650 -0.6512 -0.8640
 2448TIP3    H228904   5.055   0.840   2.008  0.3412 -0.8054  0.1393
 2449TIP3   OH228905   6.263   1.884   2.497 -0.0064  0.3933  0.2645
 2449TIP3    H128906   6.294   1.810   2.446 -0.2922  1.5297 -1.6580
 2449TIP3    H228907   6.254   1.850   2.586  0.0231 -1.8014 -0.5147
 2450TIP3   OH228908   1.966   3.176   0.493 -0.9951 -0.6028  0.4262
 2450TIP3    H128909   2.039   3.199   0.549  0.3443 -2.6577 -0.3367
 2450TIP3    H228910   1.899   3.242   0.511  1.6807  2.5437 -0.2355
 2451TIP3   OH228911   5.397   4.814   1.567  0.0231 -0.1806  0.2577
 2451TIP3    H128912   5.478   4.771   1.594  0.7712  1.4016  0.6633
 2451TIP3    H228913   5.336   4.796   1.639  1.0854  1.4323  1.6690
 2452TIP3   OH228914   2.844   1.652   0.845 -0.3566  0.5450 -0.0418
 2452TIP3    H128915   2.861   1.738   0.807 -2.9968  1.3809  0.4646
 2452TIP3    H228916   2.817   1.670   0.935  2.3986 -1.1474  1.2774
 2453TIP3   OH228917   4.606   3.354   8.725 -0.0512 -0.2003  0.1297
 2453TIP3    H128918   4.701   3.367   8.730 -0.0021 -0.1235 -0.8676
 2453TIP3    H228919   4.582   3.323   8.812  0.7650  0.5800  0.6519
 2454TIP3   OH228920   5.553   4.518   8.274 -0.2346 -0.2667  0.1031
 2454TIP3    H128921   5.466   4.547   8.300  0.4612  0.3694  1.9010
 2454TIP3    H228922   5.541   4.428   8.244 -1.3544 -0.5749  1.3902
 2455TIP3   OH228923   6.052   6.336   7.204  0.5703 -0.0585 -0.0513
 2455TIP3    H128924   5.976   6.312   7.258  0.7278  0.3208  0.3498
 2455TIP3    H228925   6.014   6.384   7.130  0.4079  0.0525  0.1000
 2456TIP3   OH228926   4.123   3.811   0.618  0.1837 -0.3761  0.2816
 2456TIP3    H128927   4.109   3.792   0.711 -2.1402  0.0739  0.1042
 2456TIP3    H228928   4.099   3.903   0.609  1.3363 -0.1514 -0.6168
 2457TIP3   OH228929   1.275   2.400   2.551 -0.2881 -0.2961 -0.3828
 2457TIP3    H128930   1.198   2.371   2.599 -0.6841  0.5998 -0.4554
 2457TIP3    H228931   1.339   2.422   2.619 -0.5154  0.0794 -0.2907
 2458TIP3   OH228932   5.517   3.503   0.603 -0.4952  0.0558  0.4638
 2458TIP3    H128933   5.488   3.414   0.621 -0.8932 -0.2496 -1.5279
 2458TIP3    H228934   5.449   3.558   0.641 -0.4289 -0.4868  1.3925
 2459TIP3   OH228935   0.050   3.417   2.538  0.4305  0.0620 -0.2153
 2459TIP3    H128936   0.061   3.504   2.576 -0.7982 -0.0168  0.3773
 2459TIP3    H228937  -0.011   3.430   2.466 -2.1428 -0.6828  1.6689
 2460TIP3   OH228938   0.150   1.512   1.415 -0.0027  0.0470 -0.2377
 2460TIP3    H128939   0.136   1.422   1.445 -0.4110 -0.3207 -1.4749
 2460TIP3    H228940   0.102   1.566   1.477 -2.4283 -0.8238 -1.2329
 2461TIP3   OH228941   4.917   0.926   0.925  0.2871 -0.1660 -0.3179
 2461TIP3    H128942   4.908   0.984   1.001 -0.7343 -0.8908  0.1387
 2461TIP3    H228943   4.909   0.985   0.850 -0.1084  0.3761  0.1330
 2462TIP3   OH228944   3.590   3.425   2.198 -0.0764  0.3048  0.8406
 2462TIP3    H128945   3.545   3.342   2.213  0.5479 -0.7058 -2.2243
 2462TIP3    H228946   3.633   3.444   2.282 -1.8832 -1.3773  2.2294
 2463TIP3   OH228947   0.687   4.536   0.640 -0.2933  0.2147 -0.2261
 2463TIP3    H128948   0.719   4.560   0.727 -1.1553 -0.7689  0.3994
 2463TIP3    H228949   0.611   4.592   0.626 -0.9074 -0.4780  0.2237
 2464TIP3   OH228950   0.801   4.909   0.176 -0.5312 -0.5373  0.2332
 2464TIP3    H128951   0.870   4.920   0.110  0.6928 -1.7948  1.2511
 2464TIP3    H228952   0.820   4.824   0.217 -1.8567 -0.2524  1.5099
 2465TIP3   OH228953   5.838   6.350   1.112 -0.6872 -0.0589  0.2814
 2465TIP3    H128954   5.752   6.338   1.152 -0.0900  3.0618  2.7942
 2465TIP3    H228955   5.859   6.442   1.127  2.0636 -0.1017 -2.4778
 2466TIP3   OH228956   0.474   2.235   2.181 -0.0400 -0.4341  0.2694
 2466TIP3    H128957   0.386   2.260   2.153 -1.1331 -1.8735  2.1609
 2466TIP3    H228958   0.494   2.157   2.129  0.2758  0.0776 -0.3900
 2467TIP3   OH228959   5.274   1.555   1.497 -0.4488 -0.0467  0.9605
 2467TIP3    H128960   5.360   1.559   1.540 -0.0053 -1.6492  0.3127
 2467TIP3    H228961   5.239   1.644   1.505  0.8999  0.4317  1.9848
 2468TIP3   OH228962   5.696   4.532   8.529  0.2551 -0.3965 -0.6229
 2468TIP3    H128963   5.763   4.599   8.516  0.6268 -1.0550 -2.3932
 2468TIP3    H228964   5.641   4.537   8.450 -0.7765 -0.9873  0.0309
 2469TIP3   OH228965   3.638   1.929   6.689  0.6800 -0.0809 -0.1319
 2469TIP3    H128966   3.647   2.015   6.730  2.4884 -0.7066  0.9193
 2469TIP3    H228967   3.573   1.941   6.620 -0.7336  1.5856  1.3991
 2470TIP3   OH228968   5.266   3.834   2.951  0.6894 -0.2962 -0.3926
 2470TIP3    H128969   5.263   3.763   2.886 -1.7936  1.3922 -2.3168
 2470TIP3    H228970   5.285   3.790   3.034 -0.7565 -3.2147 -1.4705
 2471TIP3   OH228971   4.649   2.511   8.170  0.0155 -0.4805 -0.3948
 2471TIP3    H128972   4.653   2.606   8.159  1.3818 -0.6335 -1.5533
 2471TIP3    H228973   4.601   2.498   8.251 -2.4853  1.1154 -1.5037
 2472TIP3   OH228974   4.396   5.539   1.182 -0.0811 -0.3822 -0.5896
 2472TIP3    H128975   4.304   5.566   1.181  0.8872  3.5292 -1.0889
 2472TIP3    H228976   4.410   5.499   1.096 -1.4073 -1.7721 -0.2091
 2473TIP3   OH228977   2.232   3.970   0.504  0.2402 -0.1391 -0.0157
 2473TIP3    H128978   2.239   3.896   0.564  1.9001  1.1170  1.4776
 2473TIP3    H228979   2.302   4.029   0.532 -0.5788  1.6743 -1.5920
 2474TIP3   OH228980   5.956   1.770   1.290 -0.3873  0.0578  0.1550
 2474TIP3    H128981   6.006   1.693   1.266 -1.0369 -0.9251  1.8174
 2474TIP3    H228982   5.871   1.757   1.248 -0.1985  0.3509 -0.3336
 2475TIP3   OH228983   0.284   2.905   7.609  0.3155 -0.5233  0.2876
 2475TIP3    H128984   0.321   2.980   7.656  0.5237 -0.2216 -0.3439
 2475TIP3    H228985   0.357   2.846   7.597  0.2950 -0.5366  0.2266
 2476TIP3   OH228986   3.493   2.007   1.448 -0.1226  0.1076 -0.4975
 2476TIP3    H128987   3.546   1.928   1.434  1.0268  0.4516  1.5649
 2476TIP3    H228988   3.557   2.077   1.459 -0.8982  0.5024  2.2584
 2477TIP3   OH228989   1.084   1.601   1.593 -0.0893  0.2286 -0.3497
 2477TIP3    H128990   1.144   1.675   1.583  0.2711 -0.0594 -0.3656
 2477TIP3    H228991   1.138   1.533   1.635 -0.1054 -0.4063 -1.3384
 2478TIP3   OH228992   5.325   6.304   8.311 -0.1661 -0.0513 -0.3646
 2478TIP3    H128993   5.343   6.375   8.250 -0.0861  1.1840  1.0544
 2478TIP3    H228994   5.405   6.296   8.363 -1.1383  0.6863  1.2950
 2479TIP3   OH228995   6.266   4.284   1.730  0.6824  0.5827 -0.0800
 2479TIP3    H128996   6.222   4.330   1.802  1.5127  1.1647  0.0780
 2479TIP3    H228997   6.253   4.340   1.654  1.0644  0.7218 -0.0484
 2480TIP3   OH228998   4.456   5.785   2.511 -0.3832 -0.5420  0.2719
 2480TIP3    H128999   4.446   5.865   2.458 -4.9983 -1.7985 -1.2758
 2480TIP3    H229000   4.484   5.719   2.448 -1.5807 -1.1252  0.3229
 2481TIP3   OH229001   5.987   1.809   2.187  0.1644  0.0068  0.1555
 2481TIP3    H129002   5.996   1.752   2.264  0.0802  0.2667  0.3593
 2481TIP3    H229003   5.897   1.795   2.158 -0.1697  0.7551  0.7848
 2482TIP3   OH229004   5.675   3.401   7.593 -0.3820  0.2563  0.7316
 2482TIP3    H129005   5.701   3.315   7.560 -2.0524 -0.7894  1.9239
 2482TIP3    H229006   5.622   3.438   7.523 -0.7619 -0.2886  0.7200
 2483TIP3   OH229007   2.633   5.599   2.448 -0.0275  0.5105  0.2284
 2483TIP3    H129008   2.583   5.652   2.387 -0.3441  0.0144  0.0459
 2483TIP3    H229009   2.610   5.633   2.534 -0.0532  0.8074  0.1062
 2484TIP3   OH229010   5.695   2.520   2.466 -0.6296  0.3687  0.0838
 2484TIP3    H129011   5.765   2.481   2.518  0.4289  1.5143 -0.4274
 2484TIP3    H229012   5.656   2.446   2.418  0.2491 -0.2847  0.3598
 2485TIP3   OH229013   6.320   2.724   8.476  0.1124  0.4639  0.4240
 2485TIP3    H129014   6.277   2.663   8.416  0.3025 -1.1754  1.8499
 2485TIP3    H229015   6.403   2.681   8.498 -0.6052  0.2357  2.9868
 2486TIP3   OH229016   4.806   0.678   8.501 -0.0493  0.0452 -0.0779
 2486TIP3    H129017   4.836   0.613   8.564  0.2427 -0.3865 -0.6561
 2486TIP3    H229018   4.860   0.663   8.423 -1.8202 -0.8238 -1.2070
 2487TIP3   OH229019   3.134   4.688   0.464 -0.1484  0.4027 -0.1307
 2487TIP3    H129020   3.163   4.701   0.554  0.0246 -1.1189  0.0611
 2487TIP3    H229021   3.213   4.699   0.411  0.1825 -0.6720  0.1082
 2488TIP3   OH229022   6.788   6.379   0.445  0.3967 -0.2833  0.4915
 2488TIP3    H129023   6.834   6.325   0.381 -0.8085  1.3620 -1.9082
 2488TIP3    H229024   6.697   6.350   0.441  0.0411  0.7992  0.3519
 2489TIP3   OH229025   4.682   5.510   0.629 -0.7017 -0.0178  0.6885
 2489TIP3    H129026   4.774   5.533   0.637 -0.4386 -1.2627  1.5127
 2489TIP3    H229027   4.635   5.581   0.672 -0.1306  0.5960  0.3142
 2490TIP3   OH229028   0.414   6.001   1.930 -0.0155 -0.2454  0.5137
 2490TIP3    H129029   0.485   5.968   1.985  0.1751 -1.5749 -0.4679
 2490TIP3    H229030   0.451   6.001   1.841 -0.6480  0.8634  0.2292
 2491TIP3   OH229031   5.236   4.685   3.087 -0.0092  0.1649 -1.2164
 2491TIP3    H129032   5.172   4.646   3.146  0.1977  0.6399 -0.6687
 2491TIP3    H229033   5.247   4.620   3.016  1.0447 -1.2270  0.1463
 2492TIP3   OH229034   0.015   2.578   8.643 -0.1470  0.0986 -0.4296
 2492TIP3    H129035   0.085   2.622   8.690  0.2694 -2.5728  1.6945
 2492TIP3    H229036   0.059   2.527   8.575 -0.1841 -0.3183 -0.1430
 2493TIP3   OH229037   4.441   2.456   7.420 -0.0463 -0.1881  0.2696
 2493TIP3    H129038   4.407   2.440   7.508  0.8764  2.1249  1.1336
 2493TIP3    H229039   4.534   2.472   7.433  0.4205 -1.3120 -1.3650
 2494TIP3   OH229040   5.961   4.812   8.746 -0.5554 -0.0240 -0.1101
 2494TIP3    H129041   6.044   4.808   8.794  0.1922  1.1172 -1.2600
 2494TIP3    H229042   5.915   4.887   8.784 -0.6053 -0.0118 -0.1962
 2495TIP3   OH229043   4.030   5.288   2.208 -0.3400  0.5005  0.4410
 2495TIP3    H129044   4.015   5.372   2.252 -0.8601  0.7606 -0.2197
 2495TIP3    H229045   4.120   5.266   2.230 -0.3026  1.0708  0.8946
 2496TIP3   OH229046   2.262   4.558   0.207 -0.2593  0.4489  0.4778
 2496TIP3    H129047   2.253   4.637   0.153 -0.3116 -0.6258 -1.1703
 2496TIP3    H229048   2.177   4.547   0.250 -1.0619  0.0304 -1.1380
 2497TIP3   OH229049   3.885   5.982   0.612  0.1597 -0.1728 -0.1091
 2497TIP3    H129050   3.948   5.910   0.607  2.4830  1.8216 -2.3073
 2497TIP3    H229051   3.937   6.057   0.638 -2.0581  0.9667  1.4138
 2498TIP3   OH229052   2.290   4.817   2.722 -0.2200  0.1491 -0.1814
 2498TIP3    H129053   2.385   4.807   2.733 -0.6122 -1.8826  2.4863
 2498TIP3    H229054   2.278   4.905   2.688  2.6043  0.4668 -0.5590
 2499TIP3   OH229055   2.156   2.241   0.185 -0.5326  0.0058  0.4438
 2499TIP3    H129056   2.199   2.263   0.267 -1.2762 -0.5628  1.0108
 2499TIP3    H229057   2.130   2.325   0.147  2.2417  0.4729 -0.6215
 2500TIP3   OH229058   2.325   5.632   7.834  0.0231 -0.3526 -0.5331
 2500TIP3    H129059   2.359   5.694   7.770  0.3704  0.9610  0.8739
 2500TIP3    H229060   2.387   5.637   7.908 -0.7153 -1.3422  0.1935
 2501TIP3   OH229061   4.366   6.186   1.602 -0.5241 -0.4966  0.0118
 2501TIP3    H129062   4.460   6.165   1.604 -0.4094 -0.0328 -0.3985
 2501TIP3    H229063   4.341   6.176   1.510 -0.9366 -0.8696  0.1650
 2502TIP3   OH229064   0.586   4.817   0.977  0.1556  0.2253  0.1610
 2502TIP3    H129065   0.513   4.758   0.961  0.5588 -0.1811 -0.1969
 2502TIP3    H229066   0.552   4.904   0.955 -1.1212  0.4760  2.6508
 2503TIP3   OH229067   3.716   4.069   2.546  0.3331 -0.1571 -0.4319
 2503TIP3    H129068   3.660   4.069   2.624 -0.9700  1.3614 -1.3044
 2503TIP3    H229069   3.797   4.111   2.575 -0.7945  2.0675 -0.2460
 2504TIP3   OH229070   1.197   0.786   1.330 -0.1735 -0.1180  0.1263
 2504TIP3    H129071   1.167   0.715   1.274 -0.8225 -0.6879  1.1630
 2504TIP3    H229072   1.292   0.779   1.329 -0.2280 -0.8730  0.0681
 2505TIP3   OH229073   6.540   4.322   0.064 -0.2533  0.4430  0.3555
 2505TIP3    H129074   6.632   4.330   0.090  0.2709 -1.5548 -0.6710
 2505TIP3    H229075   6.512   4.411   0.045  2.2190  0.8784 -1.7185
 2506TIP3   OH229076   4.257   5.982   8.557 -0.3062  0.8949 -0.5858
 2506TIP3    H129077   4.257   5.902   8.505  0.3941  0.7956 -0.4351
 2506TIP3    H229078   4.338   6.027   8.532 -0.2003  1.0701  0.0696
 2507TIP3   OH229079   4.065   2.213   1.707 -0.8508 -0.2119 -0.4960
 2507TIP3    H129080   4.013   2.269   1.650  0.7925  2.2738  0.2562
 2507TIP3    H229081   4.008   2.192   1.780 -1.2870  1.2331 -0.3941
 2508TIP3   OH229082   3.703   4.097   1.520 -0.1418  0.0417  0.5652
 2508TIP3    H129083   3.705   4.171   1.581  1.1353 -0.0147  0.6270
 2508TIP3    H229084   3.753   4.029   1.565 -0.0845 -0.3656 -0.1051
 2509TIP3   OH229085   1.283   3.828   1.274 -0.1299 -0.7070 -0.1293
 2509TIP3    H129086   1.209   3.875   1.312 -0.1896  0.9636 -2.1247
 2509TIP3    H229087   1.352   3.894   1.266  0.6807 -1.5892 -0.6769
 2510TIP3   OH229088   5.481   2.907   0.146  0.3179  0.0417  0.0732
 2510TIP3    H129089   5.474   2.874   0.057 -0.4919 -0.6438  0.3805
 2510TIP3    H229090   5.445   2.837   0.201  0.3546  0.6495  0.8991
 2511TIP3   OH229091   2.732   1.066   2.165 -0.5133 -0.3761 -0.3969
 2511TIP3    H129092   2.751   1.025   2.249  0.8815  2.2949  0.7089
 2511TIP3    H229093   2.693   1.151   2.187  1.8108  1.3248 -2.2762
 2512TIP3   OH229094   6.742   2.467   1.255  0.2318  0.0083  0.2953
 2512TIP3    H129095   6.676   2.425   1.199  0.3563 -0.3683  0.4274
 2512TIP3    H229096   6.787   2.528   1.197  2.7220 -2.7891 -1.0276
 2513TIP3   OH229097   1.888   2.066   1.197 -0.3212  0.0351  0.3841
 2513TIP3    H129098   1.857   2.103   1.114  1.8321  0.5693 -0.2427
 2513TIP3    H229099   1.839   2.114   1.264 -1.9825 -0.2984 -0.5221
 2514TIP3   OH229100   1.282   2.902   7.036  0.7543  0.3708 -0.3281
 2514TIP3    H129101   1.233   2.891   7.117 -0.1897  1.5507 -0.6977
 2514TIP3    H229102   1.352   2.838   7.041 -0.8861 -1.4918  0.1759
 2515TIP3   OH229103   3.821   4.849   8.727 -0.0438 -0.2668 -0.2036
 2515TIP3    H129104   3.897   4.904   8.746 -0.9970  1.0446 -0.0893
 2515TIP3    H229105   3.834   4.771   8.782  0.1273  0.9039  1.5021
 2516TIP3   OH229106   1.788   5.901   0.612  0.0825 -0.2449 -0.0256
 2516TIP3    H129107   1.715   5.956   0.584 -0.0169  0.5950  1.7997
 2516TIP3    H229108   1.866   5.949   0.584  0.0080  1.0654  1.8567
 2517TIP3   OH229109   0.544   2.842   7.346 -0.2965  0.0321 -0.2017
 2517TIP3    H129110   0.594   2.846   7.265 -2.6906  1.2393 -1.7331
 2517TIP3    H229111   0.589   2.904   7.404  1.9212 -1.4404 -0.2078
 2518TIP3   OH229112   1.334   3.351   7.095  0.3446  0.1456 -0.8427
 2518TIP3    H129113   1.271   3.287   7.126 -0.4224  0.2487 -2.1188
 2518TIP3    H229114   1.406   3.298   7.059  0.7597  0.0260  0.1529
 2519TIP3   OH229115   0.364   6.234   2.208 -0.1053 -0.0308  0.3747
 2519TIP3    H129116   0.456   6.260   2.213  0.0233 -0.3595 -0.1509
 2519TIP3    H229117   0.358   6.158   2.266 -0.0679  0.0565  0.4926
 2520TIP3   OH229118   0.014   5.482   1.209  0.8698 -0.0941 -0.0908
 2520TIP3    H129119  -0.008   5.418   1.277  1.2445 -1.6816 -1.4093
 2520TIP3    H229120   0.011   5.566   1.254 -1.2690 -0.8499  1.3497
 2521TIP3   OH229121   0.949   0.933   2.529  0.4357 -0.0370  0.3656
 2521TIP3    H129122   0.904   1.010   2.563 -2.2244 -0.2212 -2.2369
 2521TIP3    H229123   1.013   0.968   2.467 -1.7060  0.2278 -1.8558
 2522TIP3   OH229124   1.059   1.204   2.477  0.0790  0.0880 -0.3970
 2522TIP3    H129125   1.117   1.258   2.423  0.1873 -0.3472 -0.7289
 2522TIP3    H229126   1.045   1.255   2.557 -0.7826  1.1300 -1.1895
 2523TIP3   OH229127   4.040   0.497   0.353 -0.5972  0.0374  0.0364
 2523TIP3    H129128   4.037   0.592   0.367  2.2450  0.6735 -2.5442
 2523TIP3    H229129   4.041   0.460   0.442  0.3847  2.5578  1.1847
 2524TIP3   OH229130   0.393   1.654   0.978  0.3815 -0.9013 -0.1890
 2524TIP3    H129131   0.409   1.632   0.886 -1.8585 -1.7867 -0.4229
 2524TIP3    H229132   0.422   1.576   1.026  1.2574 -0.5618 -0.1454
 2525TIP3   OH229133   1.743   2.348   0.793  0.7642 -0.1347 -0.0426
 2525TIP3    H129134   1.782   2.425   0.751 -0.3564  0.9575  0.8713
 2525TIP3    H229135   1.719   2.378   0.880  0.9932 -1.7513  0.5973
 2526TIP3   OH229136   5.407   0.286   8.046  0.6615 -0.0593  0.1820
 2526TIP3    H129137   5.352   0.209   8.057  0.5429 -0.5673 -2.9543
 2526TIP3    H229138   5.483   0.255   7.997  1.2264  1.5671 -0.0365
 2527TIP3   OH229139   6.121   3.530   7.759  0.1608  0.3158 -0.2701
 2527TIP3    H129140   6.209   3.493   7.751  0.9809  1.7752  1.2200
 2527TIP3    H229141   6.130   3.597   7.828 -2.2622  0.0876  0.3440
 2528TIP3   OH229142   1.103   1.464   2.028 -0.1815 -0.2112 -0.2988
 2528TIP3    H129143   1.176   1.445   1.970 -0.5911  1.0032 -1.2550
 2528TIP3    H229144   1.027   1.425   1.985 -0.2025 -0.9777  0.4059
 2529TIP3   OH229145   4.187   5.950   0.360  0.2393  0.2346 -0.0739
 2529TIP3    H129146   4.241   5.972   0.435 -0.0027 -1.5973  0.6824
 2529TIP3    H229147   4.182   6.031   0.309 -0.5245  1.8555  2.4292
 2530TIP3   OH229148   6.437   5.813   8.197 -0.0013 -0.2492  0.4338
 2530TIP3    H129149   6.441   5.717   8.204  1.3220 -0.2318  0.1156
 2530TIP3    H229150   6.494   5.844   8.268 -0.4548  0.3053  0.5574
 2531TIP3   OH229151   2.739   3.591   0.151  0.0197 -0.2808 -0.2318
 2531TIP3    H129152   2.672   3.637   0.100  0.5942  0.8932  0.0389
 2531TIP3    H229153   2.822   3.625   0.117  0.4656 -1.1723 -0.0623
 2532TIP3   OH229154   0.131   2.781   0.955 -0.0244  0.2705  1.0740
 2532TIP3    H129155   0.193   2.723   0.910 -2.2629 -1.4403 -0.0384
 2532TIP3    H229156   0.138   2.864   0.910  2.2194  0.4960  1.7255
 2533TIP3   OH229157   5.887   2.763   8.259  0.0990  0.1948 -0.1605
 2533TIP3    H129158   5.824   2.708   8.213 -0.0708 -0.2057  0.5377
 2533TIP3    H229159   5.915   2.828   8.194 -1.1240  0.4562 -0.4423
 2534TIP3   OH229160   2.920   5.922   0.546  0.5448 -0.5259 -0.4554
 2534TIP3    H129161   3.016   5.930   0.551  0.4624  0.9080 -0.6992
 2534TIP3    H229162   2.892   5.913   0.637  0.9620 -1.9686 -0.4424
 2535TIP3   OH229163   4.685   4.457   0.927 -0.2517  0.0800  0.4402
 2535TIP3    H129164   4.612   4.507   0.890  0.3627 -0.5824 -1.8060
 2535TIP3    H229165   4.745   4.524   0.960 -0.0555  0.8235 -1.3154
 2536TIP3   OH229166   6.234   6.077   1.982 -0.2726  1.0473 -0.3746
 2536TIP3    H129167   6.255   6.132   1.907 -1.8408  0.7980 -1.0600
 2536TIP3    H229168   6.138   6.071   1.980 -0.2169 -0.7476  0.3424
 2537TIP3   OH229169   6.519   0.815   8.034  0.3250  0.2015  0.1526
 2537TIP3    H129170   6.487   0.878   7.970 -0.5633  0.0211  0.4082
 2537TIP3    H229171   6.509   0.730   7.992  1.3957  0.2097 -0.1397
 2538TIP3   OH229172   5.752   1.461   1.307  0.3869 -0.1406  0.0897
 2538TIP3    H129173   5.761   1.506   1.223 -0.2872 -0.7357 -0.3123
 2538TIP3    H229174   5.831   1.406   1.314  0.0884 -0.6534 -0.5075
 2539TIP3   OH229175   1.506   3.832   7.578  0.6132  0.1496 -0.4939
 2539TIP3    H129176   1.428   3.786   7.608  1.2281 -0.1026  0.7880
 2539TIP3    H229177   1.549   3.771   7.519  0.1798  0.0339 -0.6953
 2540TIP3   OH229178   3.062   2.398   2.151 -0.1881  0.1862 -0.1103
 2540TIP3    H129179   3.143   2.400   2.100 -0.0863 -0.4355  0.0203
 2540TIP3    H229180   3.085   2.439   2.234  0.0091 -0.0505 -0.0484
 2541TIP3   OH229181   6.434   5.441   1.781 -0.0145 -0.4771 -0.4866
 2541TIP3    H129182   6.507   5.493   1.746  0.8607 -0.4825  1.1740
 2541TIP3    H229183   6.361   5.503   1.786  0.5152  0.1389 -0.1567
 2542TIP3   OH229184   4.905   3.263   0.761 -0.0153  0.1400  0.5815
 2542TIP3    H129185   4.865   3.337   0.716 -1.0047  0.2136  1.5661
 2542TIP3    H229186   4.893   3.281   0.854 -0.9015 -1.5769  0.8420
 2543TIP3   OH229187   6.409   4.761   1.344  0.1634 -0.1546 -0.2974
 2543TIP3    H129188   6.341   4.826   1.361 -1.6113 -1.5703 -1.5520
 2543TIP3    H229189   6.477   4.780   1.408 -1.6640  0.9826  1.4205
 2544TIP3   OH229190   3.128   6.431   0.248 -0.3757  1.2403  0.3152
 2544TIP3    H129191   3.153   6.451   0.338 -0.5889  2.0668  0.1948
 2544TIP3    H229192   3.049   6.377   0.257  1.4221 -1.5307  0.7058
 2545TIP3   OH229193   1.372   1.298   1.582 -0.4658  0.0974  0.6776
 2545TIP3    H129194   1.369   1.359   1.508  0.0924 -1.1284 -0.4116
 2545TIP3    H229195   1.435   1.231   1.555 -0.8874 -0.8440  1.9199
 2546TIP3   OH229196   0.337   5.228   0.716  0.0738 -0.6562 -0.3454
 2546TIP3    H129197   0.248   5.194   0.723 -0.2972  0.1863 -0.7938
 2546TIP3    H229198   0.336   5.282   0.637  0.4811  0.8373  0.6301
 2547TIP3   OH229199   5.300   0.391   0.374  0.7568 -0.3347 -0.1637
 2547TIP3    H129200   5.252   0.399   0.457 -1.6453  1.4466 -1.5828
 2547TIP3    H229201   5.331   0.301   0.373 -0.8265 -0.9855  1.8173
 2548TIP3   OH229202   0.364   0.571   7.248 -0.1398 -0.1838  0.7650
 2548TIP3    H129203   0.390   0.488   7.287  0.2298 -0.8320 -0.7889
 2548TIP3    H229204   0.268   0.566   7.244 -0.0569 -1.1387 -0.5463
 2549TIP3   OH229205   3.900   5.021   3.029 -0.4164 -0.0282 -0.0300
 2549TIP3    H129206   3.815   5.000   3.066 -0.5956  2.2850  1.0341
 2549TIP3    H229207   3.957   5.033   3.106  0.5322 -0.2358 -0.6814
 2550TIP3   OH229208   1.324   3.620   1.859 -0.4126  0.6861  0.0013
 2550TIP3    H129209   1.402   3.664   1.828 -0.0131 -0.0667 -0.0864
 2550TIP3    H229210   1.302   3.557   1.790 -1.4394  1.2822 -0.2460
 2551TIP3   OH229211   0.054   5.878   2.753 -0.5659 -0.3649 -0.6833
 2551TIP3    H129212   0.099   5.961   2.768  0.6958 -1.1334 -0.0519
 2551TIP3    H229213  -0.022   5.882   2.811  0.2547 -0.2088  0.4244
 2552TIP3   OH229214   4.380   4.066   0.438 -0.2747  0.3815 -0.2201
 2552TIP3    H129215   4.291   4.083   0.472  0.3009  0.9944  1.0528
 2552TIP3    H229216   4.419   4.153   0.432  1.6381 -0.0534  3.2708
 2553TIP3   OH229217   3.159   4.872   8.037  0.2821  0.6751  0.2965
 2553TIP3    H129218   3.221   4.916   7.980  0.7152  0.5896  0.6903
 2553TIP3    H229219   3.161   4.923   8.118 -0.0196  0.5613  0.3765
 2554TIP3   OH229220   1.502   0.086   8.346  0.0866 -0.4009 -0.2150
 2554TIP3    H129221   1.443   0.012   8.335  0.0619 -0.3524 -0.4117
 2554TIP3    H229222   1.590   0.048   8.346  0.1629 -0.2844 -1.8019
 2555TIP3   OH229223   0.727   4.029   1.810  0.1055 -0.5721  0.2071
 2555TIP3    H129224   0.753   4.026   1.902 -1.5588 -1.2190  0.6737
 2555TIP3    H229225   0.810   4.022   1.762  0.9510 -0.7167  1.6340
 2556TIP3   OH229226   0.980   0.186   7.416  0.0751 -0.1228 -0.0832
 2556TIP3    H129227   0.890   0.168   7.443  0.7003 -2.3924  0.6915
 2556TIP3    H229228   0.984   0.281   7.410 -2.5350  0.0235 -0.8024
 2557TIP3   OH229229   4.205   2.852   0.691 -0.1422  0.1796  0.2918
 2557TIP3    H129230   4.202   2.943   0.721  1.4118  0.2042  0.4659
 2557TIP3    H229231   4.160   2.802   0.759 -1.4559  0.8571 -0.0504
 2558TIP3   OH229232   1.752   1.346   0.224 -0.1470 -0.1138 -0.2698
 2558TIP3    H129233   1.838   1.333   0.182  0.4104 -0.1124  0.8314
 2558TIP3    H229234   1.706   1.263   0.212 -0.6171  0.3605 -2.1925
 2559TIP3   OH229235   4.104   4.191   0.374 -0.9104  0.3814 -0.5503
 2559TIP3    H129236   4.158   4.248   0.319 -0.7978  1.4836  0.6335
 2559TIP3    H229237   4.062   4.251   0.436  0.7218 -0.9453  2.0150
 2560TIP3   OH229238   6.580   2.731   2.462  0.3620  0.5372 -0.6546
 2560TIP3    H129239   6.653   2.786   2.432 -0.0740  1.8749  0.5711
 2560TIP3    H229240   6.540   2.698   2.382  1.0183  1.5409 -1.4266
 2561TIP3   OH229241   4.710   6.023   1.002  0.0534 -0.0100 -0.4886
 2561TIP3    H129242   4.761   6.014   0.921  0.7118  0.9270 -0.1974
 2561TIP3    H229243   4.775   6.041   1.070 -0.6225  0.8551 -0.0470
 2562TIP3   OH229244   3.283   1.399   0.687 -0.0802 -0.3642 -0.0954
 2562TIP3    H129245   3.345   1.344   0.736 -0.0333 -0.0144  0.2488
 2562TIP3    H229246   3.335   1.435   0.615 -0.3234 -1.4340 -0.8323
 2563TIP3   OH229247   6.609   0.714   2.097 -0.4379  0.5441  0.6293
 2563TIP3    H129248   6.571   0.641   2.145 -0.7321  0.9271  0.9824
 2563TIP3    H229249   6.534   0.761   2.062 -0.2522  0.7238  0.4734
 2564TIP3   OH229250   0.511   3.385   1.224 -0.3115  0.3156 -0.3971
 2564TIP3    H129251   0.500   3.471   1.265  0.3577 -1.0104  2.8982
 2564TIP3    H229252   0.430   3.338   1.244 -0.6664  0.1097 -2.1500
 2565TIP3   OH229253   5.205   3.102   7.652  0.4181 -0.0079  0.0838
 2565TIP3    H129254   5.181   3.194   7.639 -0.3543  0.1565  2.2963
 2565TIP3    H229255   5.121   3.056   7.647  0.7693 -0.5680 -0.7302
 2566TIP3   OH229256   5.661   4.011   1.839 -0.1836 -0.2068  0.0080
 2566TIP3    H129257   5.631   3.921   1.826  1.7505 -0.5745 -2.7668
 2566TIP3    H229258   5.734   4.022   1.778 -1.5877  3.8664 -1.2950
 2567TIP3   OH229259   3.179   3.374   7.936 -0.1420 -0.0219  0.0732
 2567TIP3    H129260   3.210   3.323   7.861  0.9942  0.6016  0.0980
 2567TIP3    H229261   3.146   3.455   7.899  1.0215  0.5663  0.2683
 2568TIP3   OH229262   1.660   0.366   1.008  0.5703 -0.3830  0.5440
 2568TIP3    H129263   1.572   0.397   0.986  1.1751  0.9944 -0.0069
 2568TIP3    H229264   1.652   0.270   1.008 -0.5252 -0.3222 -1.1773
 2569TIP3   OH229265   1.574   4.675   8.505 -0.1074  0.2937  0.2537
 2569TIP3    H129266   1.534   4.593   8.532 -2.0564  1.1715  0.2243
 2569TIP3    H229267   1.664   4.669   8.535 -0.2238 -1.7987  0.3403
 2570TIP3   OH229268   3.711   3.573   1.039 -0.0575  0.1434 -0.2237
 2570TIP3    H129269   3.801   3.583   1.072  0.1740  0.0890 -0.8220
 2570TIP3    H229270   3.717   3.501   0.977 -0.5485  0.0514 -0.1627
 2571TIP3   OH229271   3.109   2.309   7.847  0.5017 -0.5416 -0.1579
 2571TIP3    H129272   3.057   2.234   7.875  0.3085  0.1321  1.3604
 2571TIP3    H229273   3.197   2.273   7.833  0.3960 -1.0639  0.4974
 2572TIP3   OH229274   1.051   5.119   0.630  0.1511 -0.2244 -0.1452
 2572TIP3    H129275   1.123   5.073   0.586  0.6634 -0.4949  0.9477
 2572TIP3    H229276   0.996   5.050   0.665  0.4766 -0.0235  0.7869
 2573TIP3   OH229277   5.305   1.532   8.095  0.0432 -0.0309  0.5005
 2573TIP3    H129278   5.228   1.589   8.094  0.6673  0.8321 -0.6249
 2573TIP3    H229279   5.343   1.544   8.182 -1.3300 -0.8423  1.2565
 2574TIP3   OH229280   6.157   5.774   8.222 -0.1787  0.1813 -0.4121
 2574TIP3    H129281   6.239   5.813   8.192 -0.7349  0.6333 -1.3922
 2574TIP3    H229282   6.164   5.681   8.201  1.7422 -0.6881  3.1846
 2575TIP3   OH229283   1.948   2.932   6.718  0.5476  0.4216  0.3276
 2575TIP3    H129284   1.870   2.914   6.771 -0.7856  0.5275 -1.5086
 2575TIP3    H229285   1.970   2.848   6.679  0.2485  0.7429 -0.5545
 2576TIP3   OH229286   2.394   6.158   2.117 -0.3053 -0.0083 -0.3915
 2576TIP3    H129287   2.317   6.123   2.073 -0.0933 -0.5699 -0.3227
 2576TIP3    H229288   2.410   6.243   2.075 -0.4494 -0.2752 -0.9906
 2577TIP3   OH229289   4.502   5.287   1.610 -0.7579 -0.2502 -0.1589
 2577TIP3    H129290   4.434   5.308   1.546  0.3630  0.3546 -1.1816
 2577TIP3    H229291   4.528   5.197   1.588 -0.6184 -0.1678 -0.3345
 2578TIP3   OH229292   3.284   3.846   0.218 -0.4914 -0.5850 -0.3070
 2578TIP3    H129293   3.296   3.842   0.123  0.1763  1.4740 -0.3672
 2578TIP3    H229294   3.371   3.868   0.252 -0.6846 -1.4702  0.8216
 2579TIP3   OH229295   4.797   5.406   1.653  0.0399  0.0056 -0.7467
 2579TIP3    H129296   4.738   5.339   1.687 -0.7029  1.1773  0.3653
 2579TIP3    H229297   4.741   5.463   1.601  0.1413  1.1618  0.3633
 2580TIP3   OH229298   3.814   1.513   0.811 -0.2728  0.0189  0.1075
 2580TIP3    H129299   3.778   1.487   0.896 -1.4847 -0.5844 -0.5670
 2580TIP3    H229300   3.834   1.430   0.768  0.3016  0.3235 -0.2210
 2581TIP3   OH229301   2.551   1.506   0.608 -0.1028  0.1825 -0.1626
 2581TIP3    H129302   2.637   1.490   0.645 -0.1525  0.1016 -0.0833
 2581TIP3    H229303   2.554   1.465   0.521 -0.2704 -0.3669  0.0860
 2582TIP3   OH229304   5.446   4.007   2.831  0.2295  0.5286 -0.2233
 2582TIP3    H129305   5.434   4.079   2.892 -2.6484 -1.3162  1.6426
 2582TIP3    H229306   5.383   3.941   2.859  1.9089 -2.2951 -2.4986
 2583TIP3   OH229307   0.021   1.958   8.615  0.8844  1.1110 -0.4342
 2583TIP3    H129308   0.081   1.923   8.550 -0.0239  1.9335 -1.7887
 2583TIP3    H229309   0.076   1.978   8.691  1.8548 -0.5485 -0.6551
 2584TIP3   OH229310   2.251   2.746   0.671 -0.6000 -0.5133 -0.5138
 2584TIP3    H129311   2.340   2.714   0.684 -0.6954 -0.4837  0.2309
 2584TIP3    H229312   2.196   2.681   0.713 -1.0205 -1.1101 -1.9144
 2585TIP3   OH229313   2.969   5.667   0.425  0.3751  0.3634  0.2113
 2585TIP3    H129314   2.934   5.754   0.403 -0.5145 -0.0468 -0.0517
 2585TIP3    H229315   2.910   5.606   0.380  0.1848 -0.4245  1.4979
 2586TIP3   OH229316   5.774   2.056   0.026  0.0914  0.5005 -0.5363
 2586TIP3    H129317   5.709   2.034   0.093 -0.3717 -0.7244 -1.3495
 2586TIP3    H229318   5.841   2.106   0.073 -0.8179  0.7071  0.5770
 2587TIP3   OH229319   3.188   2.928   7.557  0.1413 -0.1997 -0.0916
 2587TIP3    H129320   3.105   2.888   7.586  1.1990 -2.9159 -0.5414
 2587TIP3    H229321   3.177   2.939   7.463  0.9330 -2.4722 -0.5143
 2588TIP3   OH229322   3.895   5.895   7.561  0.5427 -0.2347  0.2459
 2588TIP3    H129323   3.900   5.888   7.466 -0.2516 -0.0034  0.1825
 2588TIP3    H229324   3.867   5.809   7.591 -1.4304  0.3074  0.0802
 2589TIP3   OH229325   3.834   5.772   1.929  0.7076 -0.5352 -0.1646
 2589TIP3    H129326   3.899   5.738   1.990  1.5563 -0.2959 -0.9177
 2589TIP3    H229327   3.881   5.781   1.846 -0.5451 -1.3508 -1.0050
 2590TIP3   OH229328   3.700   1.649   7.281  0.5053  0.0848  0.0022
 2590TIP3    H129329   3.736   1.737   7.269 -0.2245  0.2307 -1.2732
 2590TIP3    H229330   3.655   1.630   7.199 -1.1397 -0.6474  1.0260
 2591TIP3   OH229331   6.168   3.617   0.273 -0.5046  0.9497 -0.7645
 2591TIP3    H129332   6.139   3.701   0.237 -1.9784  0.8340  0.0625
 2591TIP3    H229333   6.226   3.640   0.345 -2.0549  1.3377  0.4114
 2592TIP3   OH229334   0.853   3.720   0.153 -0.3093  0.2698  0.0776
 2592TIP3    H129335   0.921   3.786   0.140 -0.6183  0.9494  1.6778
 2592TIP3    H229336   0.853   3.669   0.072  1.2664  1.0121 -0.4282
 2593TIP3   OH229337   1.829   1.720   0.093  0.6882 -0.1626  0.6455
 2593TIP3    H129338   1.905   1.676   0.132  0.2701  0.0855  1.8013
 2593TIP3    H229339   1.865   1.775   0.024  1.4946 -0.4475  0.8275
 2594TIP3   OH229340   3.301   5.456   0.758 -0.4449 -0.0203  0.0184
 2594TIP3    H129341   3.215   5.488   0.785 -0.4974 -0.9131  0.9986
 2594TIP3    H229342   3.314   5.377   0.811  1.0587  0.2042  0.0058
 2595TIP3   OH229343   0.568   4.985   2.403  0.1509 -0.4922  0.5834
 2595TIP3    H129344   0.622   5.059   2.377 -0.5967 -0.8572 -2.3718
 2595TIP3    H229345   0.568   4.927   2.327  1.0217 -3.7938  2.8778
 2596TIP3   OH229346   6.328   4.293   7.596  0.0963  0.2992 -0.4480
 2596TIP3    H129347   6.280   4.343   7.530  0.7792  1.6131  0.0133
 2596TIP3    H229348   6.305   4.202   7.578 -0.7482  0.7225 -1.6730
 2597TIP3   OH229349   1.644   6.420   7.617 -0.0775  0.1418 -0.7446
 2597TIP3    H129350   1.580   6.381   7.676  0.0395 -0.8991 -1.2958
 2597TIP3    H229351   1.598   6.495   7.578  0.2529  1.6902  1.5994
 2598TIP3   OH229352   5.654   6.169   3.047 -0.0759  0.6754  0.0544
 2598TIP3    H129353   5.734   6.152   3.098  0.2845 -1.5547 -1.1123
 2598TIP3    H229354   5.649   6.095   2.986 -1.4497  2.3015 -1.9303
 2599TIP3   OH229355   3.791   1.295   2.471  0.2096 -0.1629  0.2926
 2599TIP3    H129356   3.713   1.241   2.460 -0.0862 -0.0119  1.5048
 2599TIP3    H229357   3.833   1.261   2.550  1.4541 -0.3171 -0.3959
 2600TIP3   OH229358   0.787   2.952   6.315 -0.4558  0.0562  0.5789
 2600TIP3    H129359   0.797   3.046   6.325 -2.8820  0.5718 -0.8713
 2600TIP3    H229360   0.703   2.932   6.357 -1.1123 -1.0153 -1.1083
 2601TIP3   OH229361   3.889   3.136   1.429 -0.4151 -0.3208 -0.0356
 2601TIP3    H129362   3.861   3.207   1.372  0.4983  0.5330  0.5526
 2601TIP3    H229363   3.889   3.174   1.517  1.6409 -0.5520  0.0934
 2602TIP3   OH229364   0.634   1.869   1.382 -0.0094  0.5394  0.5135
 2602TIP3    H129365   0.556   1.923   1.367  0.4054  1.1178  0.3884
 2602TIP3    H229366   0.601   1.792   1.430 -0.4245  1.4988  1.8387
 2603TIP3   OH229367   4.848   2.371   7.781 -0.2498  0.8939 -0.4037
 2603TIP3    H129368   4.917   2.335   7.725 -0.3591  0.0326  0.0000
 2603TIP3    H229369   4.895   2.414   7.853 -0.1272  0.2443 -0.0895
 2604TIP3   OH229370   3.741   4.943   7.554  0.0175  0.4441 -0.1203
 2604TIP3    H129371   3.774   4.856   7.577  0.3180  0.3245 -0.9504
 2604TIP3    H229372   3.704   4.932   7.466  0.2585  1.2055 -0.3279
 2605TIP3   OH229373   4.086   0.715   0.124 -0.0280 -0.1180 -0.5518
 2605TIP3    H129374   4.036   0.746   0.048  2.8097  2.9825 -1.4426
 2605TIP3    H229375   4.108   0.795   0.171  3.1105 -1.3455  0.2961
 2606TIP3   OH229376   3.990   6.785   2.028  0.7939  0.6389  0.4337
 2606TIP3    H129377   3.913   6.822   1.984  1.5298  1.9083  0.1666
 2606TIP3    H229378   3.955   6.745   2.108 -0.3160 -0.0919 -0.3818
 2607TIP3   OH229379   5.153   1.013   0.158 -0.2857  0.1134  0.5049
 2607TIP3    H129380   5.130   1.064   0.236  0.8632  0.5524  0.5728
 2607TIP3    H229381   5.205   0.940   0.192 -1.6380 -0.9389  0.3704
 2608TIP3   OH229382   3.428   0.284   1.151 -0.0519 -0.2091  0.4447
 2608TIP3    H129383   3.500   0.272   1.088  0.1291 -0.7100  0.7381
 2608TIP3    H229384   3.349   0.270   1.099  0.0692  0.1984  0.1509
 2609TIP3   OH229385   6.007   4.767   8.222  0.1980 -0.0444  0.1586
 2609TIP3    H129386   5.963   4.783   8.306 -0.0631  0.7995 -0.1350
 2609TIP3    H229387   5.966   4.828   8.161  1.7495  0.7803 -0.1271
 2610TIP3   OH229388   3.421   5.076   1.817  0.5194 -0.4152 -0.5294
 2610TIP3    H129389   3.437   4.999   1.872 -0.4103 -1.5551 -1.7870
 2610TIP3    H229390   3.430   5.151   1.877  0.3044 -1.5638  0.9966
 2611TIP3   OH229391   5.880   6.427   2.328 -0.1360  0.4591  0.3530
 2611TIP3    H129392   5.813   6.377   2.374  0.0439  0.6922  0.8677
 2611TIP3    H229393   5.902   6.499   2.386  0.2171  0.6623 -0.0204
 2612TIP3   OH229394   1.304   5.294   0.492 -0.1156  0.2373  0.0168
 2612TIP3    H129395   1.373   5.247   0.539 -1.3413 -0.5035  1.1504
 2612TIP3    H229396   1.349   5.338   0.420  1.4550 -0.5984  0.4533
 2613TIP3   OH229397   5.194   3.303   8.099  0.3074 -0.2056 -0.4082
 2613TIP3    H129398   5.236   3.218   8.115 -2.5746 -1.6676 -0.0150
 2613TIP3    H229399   5.164   3.298   8.008 -0.5415  0.0724 -0.1510
 2614TIP3   OH229400   1.980   4.917   1.259  0.4320  0.2723  0.1964
 2614TIP3    H129401   1.959   4.970   1.336 -1.0752 -0.0606  0.0444
 2614TIP3    H229402   1.972   4.977   1.185  0.1776  0.1871  0.1534
 2615TIP3   OH229403   6.014   1.581   0.430 -0.6674  0.1293 -0.1623
 2615TIP3    H129404   5.942   1.633   0.464 -0.5657  0.3588 -0.2962
 2615TIP3    H229405   5.985   1.553   0.343 -0.0193  1.4376 -0.8322
 2616TIP3   OH229406   4.136   5.766   7.838  0.4897  0.0471  0.6358
 2616TIP3    H129407   4.119   5.817   7.759 -2.1590  2.1926  2.4106
 2616TIP3    H229408   4.050   5.757   7.880  1.4430 -2.8525  2.2713
 2617TIP3   OH229409   4.273   0.029   8.251  0.2088 -0.5556  0.1317
 2617TIP3    H129410   4.262   0.096   8.319  0.2687 -0.6046  0.1888
 2617TIP3    H229411   4.266  -0.054   8.298  1.2175 -0.5970  0.2383
 2618TIP3   OH229412   1.773   2.306   7.355  0.3713 -0.3334 -0.6835
 2618TIP3    H129413   1.834   2.307   7.429  1.0155  1.6757 -1.1540
 2618TIP3    H229414   1.827   2.335   7.281 -0.9434  0.6143 -1.3017
 2619TIP3   OH229415   2.372   2.196   7.972  0.3370  0.0955  0.0259
 2619TIP3    H129416   2.352   2.276   8.021  1.3741  0.6865 -0.4868
 2619TIP3    H229417   2.467   2.193   7.967  0.3148 -1.1546 -0.0144
 2620TIP3   OH229418   2.736   1.579   0.216 -0.3396  0.1772 -0.1575
 2620TIP3    H129419   2.716   1.673   0.219 -0.0319  0.2517 -0.3422
 2620TIP3    H229420   2.808   1.573   0.153  1.0113  0.0546  1.3423
 2621TIP3   OH229421   5.637   3.078   1.874  0.1565 -0.0832  0.0113
 2621TIP3    H129422   5.654   3.096   1.781 -2.1801  0.3529 -0.3872
 2621TIP3    H229423   5.546   3.103   1.887 -0.5019 -2.9335  1.7416
 2622TIP3   OH229424   6.151   1.210   1.998 -0.0844 -0.2813 -0.1417
 2622TIP3    H129425   6.242   1.207   1.969 -0.6517 -1.5838 -1.9968
 2622TIP3    H229426   6.127   1.302   1.992  0.4993 -0.2100 -1.8244
 2623TIP3   OH229427   0.249   3.845   7.229 -0.2693 -0.2418 -0.1675
 2623TIP3    H129428   0.196   3.865   7.152  0.0796 -1.9923 -0.8961
 2623TIP3    H229429   0.339   3.857   7.200 -0.1689  0.1921  0.3101
 2624TIP3   OH229430   2.499   4.893   0.739 -0.0469  0.3220 -0.5812
 2624TIP3    H129431   2.557   4.921   0.669  1.8279 -1.9616 -0.0648
 2624TIP3    H229432   2.524   4.947   0.814  0.9309 -0.1316 -0.5656
 2625TIP3   OH229433   1.120   2.206   2.245  0.5177  0.5289  0.1563
 2625TIP3    H129434   1.085   2.121   2.271  1.3619  0.6424  1.7847
 2625TIP3    H229435   1.103   2.211   2.151 -0.2023 -1.1177  0.1665
 2626TIP3   OH229436   5.477   2.089   2.483  0.4216  0.1858 -0.0068
 2626TIP3    H129437   5.429   2.022   2.434  1.7715  0.0374 -1.2127
 2626TIP3    H229438   5.504   2.046   2.564  0.8863 -0.5971 -0.5716
 2627TIP3   OH229439   5.768   1.060   1.754  0.0272 -0.0082  0.3018
 2627TIP3    H129440   5.720   1.015   1.684 -0.2844  0.9202 -0.0966
 2627TIP3    H229441   5.859   1.055   1.727  0.2752 -2.1973  1.2946
 2628TIP3   OH229442   1.697   0.813   0.088  0.4414 -0.1662 -0.0486
 2628TIP3    H129443   1.727   0.842   0.002 -1.3961 -1.4119 -1.1947
 2628TIP3    H229444   1.605   0.840   0.091  0.3777 -0.4650  1.3893
 2629TIP3   OH229445   2.893   5.544   7.761  0.0753 -0.4931 -0.1451
 2629TIP3    H129446   2.798   5.552   7.759 -0.1852 -2.9047  0.1011
 2629TIP3    H229447   2.921   5.609   7.826 -1.5939 -1.1812  1.3257
 2630TIP3   OH229448   3.318   2.752   7.924 -0.1437  0.1959  0.7353
 2630TIP3    H129449   3.376   2.702   7.982  1.6510  1.0895 -0.1946
 2630TIP3    H229450   3.318   2.702   7.842  0.7111  1.0530  0.1870
 2631TIP3   OH229451   5.664   3.353   8.413 -0.0317 -0.0199 -0.2928
 2631TIP3    H129452   5.572   3.344   8.387 -0.5018 -1.2937  1.6184
 2631TIP3    H229453   5.668   3.318   8.502  2.1755  0.7278 -0.0239
 2632TIP3   OH229454   2.142   3.880   8.711 -1.5176 -0.4849  0.8737
 2632TIP3    H129455   2.121   3.790   8.685  0.4366 -0.9637  0.8450
 2632TIP3    H229456   2.233   3.876   8.740 -0.9241  1.7703 -0.4618
 2633TIP3   OH229457   6.587   3.715   7.725 -0.0125 -0.5607  0.4149
 2633TIP3    H129458   6.670   3.668   7.717 -0.8836 -2.2070  0.7753
 2633TIP3    H229459   6.524   3.650   7.755 -1.2041  0.9193  1.2861
 2634TIP3   OH229460   3.135   5.820   8.184  0.0255 -0.4174  0.3258
 2634TIP3    H129461   3.138   5.734   8.141  1.0832 -1.5976  2.5477
 2634TIP3    H229462   3.194   5.874   8.132  2.2947 -2.1472  0.9190
 2635TIP3   OH229463   1.626   3.106   0.509  0.1487 -0.2774  0.6927
 2635TIP3    H129464   1.674   3.183   0.538 -0.6948  0.5023  0.0757
 2635TIP3    H229465   1.661   3.086   0.422 -0.0942 -0.1649  0.5650
 2636TIP3   OH229466   6.468   1.854   7.343 -0.5844  0.2817  0.6473
 2636TIP3    H129467   6.481   1.914   7.417 -0.4198  0.0735  0.7879
 2636TIP3    H229468   6.552   1.810   7.333 -0.6535  0.1989  0.4316
 2637TIP3   OH229469   3.347   1.054   7.960  0.2364  0.2489  0.5085
 2637TIP3    H129470   3.358   0.962   7.985  0.5756  0.2536  0.3757
 2637TIP3    H229471   3.342   1.053   7.865  0.4047  0.3833  0.4974
 2638TIP3   OH229472   4.751   6.266   2.329  0.6986  0.0644  0.4259
 2638TIP3    H129473   4.714   6.299   2.247  0.2025 -0.1649  0.5517
 2638TIP3    H229474   4.834   6.312   2.338 -0.2751  1.8434  0.9409
 2639TIP3   OH229475   4.592   2.876   8.369  0.4598 -0.8706 -0.1017
 2639TIP3    H129476   4.588   2.784   8.396 -0.0994 -0.5684  0.9085
 2639TIP3    H229477   4.684   2.900   8.379  0.6797 -1.4184 -0.7451
 2640TIP3   OH229478   4.153   1.364   1.539 -0.9113 -0.5120 -0.4897
 2640TIP3    H129479   4.137   1.458   1.547 -0.2230 -0.5193  1.5691
 2640TIP3    H229480   4.105   1.338   1.461 -0.8935  1.5926 -1.2703
 2641TIP3   OH229481   0.106   3.285   0.961  0.4987 -0.2152 -0.5207
 2641TIP3    H129482   0.047   3.308   0.889  1.4075 -1.4260 -1.7064
 2641TIP3    H229483   0.154   3.366   0.979  0.4763  0.0380 -1.5091
 2642TIP3   OH229484   2.211   1.120   1.090  0.0542 -0.4291  0.2162
 2642TIP3    H129485   2.297   1.123   1.050  0.8237 -0.1418  1.8323
 2642TIP3    H229486   2.168   1.044   1.050  0.5105  0.2350 -1.6120
 2643TIP3   OH229487   5.477   2.247   1.038  0.5112  0.3806 -0.0466
 2643TIP3    H129488   5.490   2.278   1.127  1.6214  0.1910 -0.1276
 2643TIP3    H229489   5.489   2.325   0.984 -0.4141  0.5475 -0.0224
 2644TIP3   OH229490   2.391   2.847   1.380  0.1655  0.2846  0.8952
 2644TIP3    H129491   2.451   2.778   1.407 -0.6470 -1.0827 -0.6654
 2644TIP3    H229492   2.422   2.874   1.293 -2.1210 -1.3603 -0.5407
 2645TIP3   OH229493   0.920   5.370   8.078 -0.0697 -0.3838  0.1344
 2645TIP3    H129494   0.921   5.276   8.091  0.0904 -0.2743  0.9697
 2645TIP3    H229495   1.007   5.399   8.107 -0.7164  0.2256  1.5703
 2646TIP3   OH229496   1.471   5.502   2.035  0.0455 -0.1347  0.1088
 2646TIP3    H129497   1.420   5.497   2.117  1.0230 -0.0927  0.7366
 2646TIP3    H229498   1.406   5.488   1.966 -0.9090  0.4372  0.8573
 2647TIP3   OH229499   2.600   1.550   8.244  0.3150  0.2774  0.7345
 2647TIP3    H129500   2.618   1.630   8.294  1.8458  0.1820  0.4046
 2647TIP3    H229501   2.686   1.511   8.231 -0.4921 -2.0537  1.8542
 2648TIP3   OH229502   0.281   5.806   7.865  0.7346 -0.0999 -0.4181
 2648TIP3    H129503   0.318   5.774   7.783  0.8995  0.8656 -0.7382
 2648TIP3    H229504   0.353   5.854   7.906 -0.1944  2.1080 -1.2070
 2649TIP3   OH229505   5.838   2.417   2.684  0.0982 -0.3460  0.0226
 2649TIP3    H129506   5.899   2.346   2.701  0.6528  0.3352  1.0362
 2649TIP3    H229507   5.828   2.460   2.769 -1.8403 -0.4583 -0.1088
 2650TIP3   OH229508   4.866   0.671   1.631  0.2040 -0.5651  0.7769
 2650TIP3    H129509   4.857   0.628   1.716 -0.2102  0.8563  1.4996
 2650TIP3    H229510   4.831   0.760   1.646 -1.4332 -0.7810 -1.3015
 2651TIP3   OH229511   6.200   1.128   2.485  0.1505  0.4120  0.5937
 2651TIP3    H129512   6.205   1.083   2.401 -0.9448 -0.0312  0.7517
 2651TIP3    H229513   6.282   1.177   2.491  0.3156  0.3166 -0.6476
 2652TIP3   OH229514   0.485   5.641   7.278  1.0255 -0.2769  0.2218
 2652TIP3    H129515   0.407   5.590   7.302  0.4078  1.0004  1.0199
 2652TIP3    H229516   0.545   5.576   7.241 -0.1475 -1.4048  0.2160
 2653TIP3   OH229517   2.546   1.742   0.520  0.0461  0.1743 -0.4375
 2653TIP3    H129518   2.531   1.651   0.544 -1.4666  0.6199  0.4605
 2653TIP3    H229519   2.459   1.782   0.522  0.6022  1.5004 -1.4042
 2654TIP3   OH229520   3.034   4.086   0.758  0.3982  0.2495  0.2999
 2654TIP3    H129521   3.077   4.102   0.841 -0.2803  2.1010  0.3453
 2654TIP3    H229522   3.103   4.053   0.700  1.2687  0.6488  1.0941
 2655TIP3   OH229523   4.570   6.247   3.337 -0.0265  0.4144  0.3053
 2655TIP3    H129524   4.514   6.177   3.370  1.4847  0.4639  3.3303
 2655TIP3    H229525   4.590   6.223   3.247 -0.6040 -2.3468  0.8433
 2656TIP3   OH229526   1.785   0.855   7.898 -0.3038  0.0027 -0.1249
 2656TIP3    H129527   1.878   0.850   7.921 -0.3293 -0.7059 -0.1433
 2656TIP3    H229528   1.777   0.806   7.816 -0.3653  1.7654 -1.2372
 2657TIP3   OH229529   4.586   5.011   8.678 -0.2576  0.3664 -0.4491
 2657TIP3    H129530   4.640   5.050   8.747  1.6958 -1.9266 -0.5732
 2657TIP3    H229531   4.642   5.010   8.601 -1.6641  0.9054 -1.5131
 2658TIP3   OH229532   3.208   3.680   0.555 -0.6155 -0.6539 -0.7160
 2658TIP3    H129533   3.237   3.687   0.645 -2.3391 -0.8261 -0.1061
 2658TIP3    H229534   3.287   3.659   0.505  0.3260 -0.7497  0.7653
 2659TIP3   OH229535   0.249   3.846   2.213 -0.4384  0.5004  0.5436
 2659TIP3    H129536   0.342   3.823   2.210 -0.7720 -1.5225  2.7036
 2659TIP3    H229537   0.205   3.775   2.167 -0.8804  2.6049 -2.5649
 2660TIP3   OH229538   3.467   3.627   6.888 -0.5596 -0.2831 -0.2604
 2660TIP3    H129539   3.502   3.538   6.897  2.1519  0.5726 -1.3330
 2660TIP3    H229540   3.376   3.620   6.917 -0.1455 -3.1735  0.6538
 2661TIP3   OH229541   2.513   3.034   8.076 -0.2518  0.8444  0.1825
 2661TIP3    H129542   2.446   3.031   8.008  0.0872  1.1821 -0.1692
 2661TIP3    H229543   2.477   3.090   8.144 -0.4713  0.7397  0.1513
 2662TIP3   OH229544   6.585   3.460   7.944  0.5499  0.8956 -0.2300
 2662TIP3    H129545   6.558   3.382   7.992  2.5939 -0.1514 -0.6716
 2662TIP3    H229546   6.526   3.464   7.869 -0.5932  0.7090  0.6330
 2663TIP3   OH229547   5.126   1.711   8.172 -0.6615 -0.1932 -0.0333
 2663TIP3    H129548   5.199   1.768   8.198 -1.6134  0.7398  0.6716
 2663TIP3    H229549   5.072   1.705   8.251 -0.3518 -2.4943  0.0710
 2664TIP3   OH229550   5.645   6.419   7.309 -1.0359 -0.5887  0.4691
 2664TIP3    H129551   5.610   6.413   7.398  1.2915  0.9447  1.5695
 2664TIP3    H229552   5.721   6.361   7.309 -0.4277  0.1941 -0.2071
 2665TIP3   OH229553   2.865   5.873   2.339  0.4635 -0.2439 -0.3030
 2665TIP3    H129554   2.806   5.949   2.341 -0.1271 -0.7072  1.0913
 2665TIP3    H229555   2.846   5.831   2.255 -1.2606 -0.4108  0.1285
 2666TIP3   OH229556   2.177   0.564   7.523  0.4474  0.3728  0.1995
 2666TIP3    H129557   2.250   0.504   7.508 -1.2114 -1.0895 -2.9435
 2666TIP3    H229558   2.209   0.649   7.494  1.2133 -0.0566 -0.2453
 2667TIP3   OH229559   6.068   4.058   1.033 -0.4211  0.0642 -0.4695
 2667TIP3    H129560   6.060   3.976   0.983 -0.6775  0.3920 -0.9747
 2667TIP3    H229561   6.162   4.073   1.040 -0.3722 -0.2963 -0.3388
 2668TIP3   OH229562   6.633   0.776   8.857  0.2099  0.4943  0.4919
 2668TIP3    H129563   6.616   0.777   8.763 -0.2062  1.2860  0.5702
 2668TIP3    H229564   6.727   0.791   8.864 -0.0530  2.4329  0.2551
 2669TIP3   OH229565   3.878   6.104   8.718 -0.3079  0.3665 -0.1441
 2669TIP3    H129566   3.849   6.087   8.807  0.1184  0.8448  0.0877
 2669TIP3    H229567   3.798   6.125   8.670 -0.5650 -0.0879  0.0704
 2670TIP3   OH229568   0.018   5.731   8.754  0.1363  0.0335  0.5357
 2670TIP3    H129569   0.111   5.716   8.735 -0.2242  1.4359 -3.1957
 2670TIP3    H229570   0.016   5.815   8.798  0.6401 -0.0735  0.7783
 2671TIP3   OH229571   0.737   2.738   0.721  0.1843  0.5451 -0.0549
 2671TIP3    H129572   0.664   2.798   0.739 -0.1653  0.1987 -0.3133
 2671TIP3    H229573   0.799   2.791   0.671  0.0461  0.7992  0.0396
 2672TIP3   OH229574   5.905   2.646   1.443 -0.4415  0.2336 -0.6116
 2672TIP3    H129575   5.854   2.622   1.521 -0.6306 -0.4874 -0.9440
 2672TIP3    H229576   5.966   2.573   1.431  1.1254  1.3751  0.1456
 2673TIP3   OH229577   5.103   6.616   7.527  0.1503 -0.4189 -0.1364
 2673TIP3    H129578   5.141   6.655   7.448  0.7624  1.0318  0.8217
 2673TIP3    H229579   5.035   6.678   7.553 -0.2971 -1.0717  0.2787
 2674TIP3   OH229580   1.273   3.040   7.635 -0.2112  0.2775  0.0475
 2674TIP3    H129581   1.316   3.111   7.683 -0.3782 -0.2448  0.9856
 2674TIP3    H229582   1.269   2.967   7.698  1.1432 -1.0232 -1.2788
 2675TIP3   OH229583   0.097   0.533   7.179 -0.2112 -0.1305 -0.2009
 2675TIP3    H129584   0.018   0.480   7.166 -0.7577  0.9790 -1.6655
 2675TIP3    H229585   0.075   0.617   7.140  1.3164  0.5614  0.3929
 2676TIP3   OH229586   1.047   4.948   2.488  0.4281 -0.0054 -0.2623
 2676TIP3    H129587   1.138   4.965   2.513  0.4021 -0.0614 -0.1262
 2676TIP3    H229588   1.011   5.033   2.465  0.9706 -0.1735 -1.8735
 2677TIP3   OH229589   6.782   4.458   2.409 -0.4664 -0.4212 -0.1623
 2677TIP3    H129590   6.809   4.404   2.335  0.7336  1.0790 -0.8589
 2677TIP3    H229591   6.797   4.403   2.486  2.7630 -0.3992 -0.6720
 2678TIP3   OH229592   3.174   0.685   0.215 -0.2780 -0.2875  0.0905
 2678TIP3    H129593   3.250   0.703   0.270 -0.4979  1.1737 -0.0589
 2678TIP3    H229594   3.205   0.621   0.151  0.8349  0.3308 -0.0051
 2679TIP3   OH229595   3.644   2.902   1.679  0.2271  0.0083 -0.1685
 2679TIP3    H129596   3.713   2.893   1.614 -0.4210 -1.5924 -0.6838
 2679TIP3    H229597   3.690   2.924   1.760  1.1955  0.3468 -0.7884
 2680TIP3   OH229598   5.358   4.737   2.225 -0.0978  0.1956  0.2243
 2680TIP3    H129599   5.331   4.670   2.288 -1.4073  0.7469  0.2799
 2680TIP3    H229600   5.316   4.817   2.255  0.1874  0.7151 -0.7107
 2681TIP3   OH229601   2.812   0.884   8.796 -0.2861 -0.2031  0.2281
 2681TIP3    H129602   2.843   0.801   8.758  0.9867 -0.9712  2.7544
 2681TIP3    H229603   2.880   0.947   8.775 -1.1172  0.2235 -1.4377
 2682TIP3   OH229604   4.162   4.132   7.305 -0.2062  0.4775  0.0607
 2682TIP3    H129605   4.115   4.203   7.262 -0.6585 -0.0025 -0.2420
 2682TIP3    H229606   4.179   4.069   7.236  2.1531  1.2576 -0.1655
 2683TIP3   OH229607   4.811   4.379   8.755  0.1252 -0.1999 -0.1600
 2683TIP3    H129608   4.739   4.426   8.714 -0.0693 -0.5050 -0.1679
 2683TIP3    H229609   4.819   4.419   8.841 -0.5882 -0.7136  0.1505
 2684TIP3   OH229610   0.736   0.104   7.980 -0.3150  0.1508 -0.0008
 2684TIP3    H129611   0.678   0.135   7.910  1.1561  1.7300 -0.5817
 2684TIP3    H229612   0.728   0.008   7.977 -1.4516  0.2582 -1.2917
 2685TIP3   OH229613   0.695   2.261   7.558  0.1379  0.0563 -0.2239
 2685TIP3    H129614   0.742   2.326   7.505 -1.1609  1.1211 -0.1188
 2685TIP3    H229615   0.625   2.311   7.600  0.5640 -0.9490  1.7806
 2686TIP3   OH229616   0.507   1.177   8.047 -0.3455 -0.0205 -0.3851
 2686TIP3    H129617   0.544   1.147   7.964 -1.2103 -1.0262 -0.4124
 2686TIP3    H229618   0.556   1.129   8.114  0.3337  0.7709 -0.2920
 2687TIP3   OH229619   0.361   3.164   2.379  0.2073 -0.2490 -0.1097
 2687TIP3    H129620   0.438   3.207   2.340 -0.2678 -0.6869 -1.5953
 2687TIP3    H229621   0.387   3.073   2.389  1.3680  0.3050  3.4444
 2688TIP3   OH229622   4.206   0.690   2.166  0.0999  0.2018 -0.3737
 2688TIP3    H129623   4.283   0.671   2.218  1.0832  1.1418 -1.4310
 2688TIP3    H229624   4.175   0.604   2.137  0.1427 -0.2502  0.8706
 2689TIP3   OH229625   2.074   1.790   7.137 -0.0998  0.0783  0.2990
 2689TIP3    H129626   2.018   1.839   7.197  0.5190  0.3103  0.6963
 2689TIP3    H229627   2.100   1.854   7.071 -0.2918 -0.0227  0.1280
 2690TIP3   OH229628   0.983   3.604   7.372  0.5125  0.4787  0.0385
 2690TIP3    H129629   1.047   3.570   7.435 -0.2132 -0.2154  0.4199
 2690TIP3    H229630   0.902   3.559   7.394  0.1444  0.5484 -1.1336
 2691TIP3   OH229631   4.760   2.494   7.219  0.0136 -0.4317 -0.1882
 2691TIP3    H129632   4.791   2.520   7.132 -1.8300 -2.8977 -1.7165
 2691TIP3    H229633   4.840   2.478   7.270  1.1296  1.3504 -1.2825
 2692TIP3   OH229634   6.124   2.458   0.906  0.2355  0.0690 -0.0023
 2692TIP3    H129635   6.078   2.401   0.967  0.1017 -1.3263 -1.3535
 2692TIP3    H229636   6.199   2.492   0.957  0.1901 -1.1290  0.8953
 2693TIP3   OH229637   2.657   3.824   8.073  0.4863  0.1989  0.3060
 2693TIP3    H129638   2.742   3.853   8.106  0.5416  0.0684  0.2825
 2693TIP3    H229639   2.672   3.732   8.048  0.5587  0.4133 -0.4691
 2694TIP3   OH229640   4.302   4.377   0.207  0.0591  0.3286 -0.1084
 2694TIP3    H129641   4.237   4.445   0.222 -0.6059 -0.8444  3.1271
 2694TIP3    H229642   4.284   4.346   0.118 -2.0057  1.8608 -0.3082
 2695TIP3   OH229643   5.351   5.613   1.370 -0.0068  0.4799  0.0037
 2695TIP3    H129644   5.389   5.692   1.409 -1.2329  0.2724  1.7565
 2695TIP3    H229645   5.295   5.578   1.439  0.5492 -1.9754 -0.7103
 2696TIP3   OH229646   4.089   4.109   0.652 -0.2504 -0.4387 -0.1996
 2696TIP3    H129647   4.148   4.178   0.624  1.9843 -2.1158  0.1008
 2696TIP3    H229648   4.094   4.109   0.747 -0.4683 -0.8018 -0.1845
 2697TIP3   OH229649   3.713   2.178   0.069  0.0787  0.1264 -0.1309
 2697TIP3    H129650   3.712   2.271   0.045  2.0468 -0.0511 -1.0759
 2697TIP3    H229651   3.805   2.158   0.082 -0.2760 -1.8443 -0.4596
 2698TIP3   OH229652   3.376   6.341   8.330  0.1934  0.0774 -0.3066
 2698TIP3    H129653   3.339   6.255   8.352 -1.3694  0.8841  0.3529
 2698TIP3    H229654   3.470   6.332   8.349  0.0925 -1.5249 -0.4176
 2699TIP3   OH229655   6.597   4.500   1.261 -0.6336 -0.3543 -0.1733
 2699TIP3    H129656   6.631   4.412   1.276  0.7818  0.5062  2.0728
 2699TIP3    H229657   6.614   4.547   1.342 -0.5305  2.2706 -1.6008
 2700TIP3   OH229658   5.596   2.702   8.201  0.3253 -0.0482  0.0494
 2700TIP3    H129659   5.574   2.709   8.108 -0.3777  0.5729  0.2462
 2700TIP3    H229660   5.614   2.792   8.229  1.1883 -0.3077  0.3701
 2701TIP3   OH229661   3.294   3.963   1.175  0.0367 -0.7127 -0.2868
 2701TIP3    H129662   3.338   3.991   1.255 -0.0304 -2.1744  0.3007
 2701TIP3    H229663   3.358   3.908   1.129 -0.2668 -0.7097 -0.7305
 2702TIP3   OH229664   6.020   1.319   0.530  0.2939  0.0970 -0.1685
 2702TIP3    H129665   6.033   1.412   0.511  0.6592  0.4696  1.7122
 2702TIP3    H229666   5.989   1.317   0.620 -1.0949 -1.5409 -0.6259
 2703TIP3   OH229667   1.776   3.598   7.665  0.3588 -0.3711  0.3692
 2703TIP3    H129668   1.824   3.630   7.589 -0.9735 -2.1772 -1.3296
 2703TIP3    H229669   1.692   3.567   7.630 -0.2502 -1.4204  2.5521
 2704TIP3   OH229670   6.217   4.676   8.807 -0.8392  0.3731  0.3329
 2704TIP3    H129671   6.215   4.706   8.898  1.3937 -2.5315  1.5081
 2704TIP3    H229672   6.274   4.738   8.762  2.9071 -1.2355  2.4424
 2705TIP3   OH229673   3.626   4.781   7.899  0.3552 -0.0096  0.1007
 2705TIP3    H129674   3.575   4.861   7.918 -0.0846  0.5545 -2.8734
 2705TIP3    H229675   3.617   4.728   7.978 -4.7693  0.1237 -0.0198
 2706TIP3   OH229676   6.238   2.824   2.921 -0.3322  0.1561 -0.0057
 2706TIP3    H129677   6.279   2.841   3.006 -1.8845  0.8976  0.6333
 2706TIP3    H229678   6.310   2.796   2.865  1.0406  1.3543  1.0752
 2707TIP3   OH229679   3.734   5.320   0.909 -0.5842  0.0800 -0.5168
 2707TIP3    H129680   3.823   5.354   0.894 -0.8497  0.6299 -0.8616
 2707TIP3    H229681   3.712   5.275   0.828  0.6024 -2.8885  0.6614
 2708TIP3   OH229682   0.046   6.010   8.822 -0.3873 -0.2016 -0.0960
 2708TIP3    H129683   0.134   6.038   8.848 -0.2257  0.3970 -1.2301
 2708TIP3    H229684  -0.004   6.011   8.903  0.6930 -0.7420  0.6065
 2709TIP3   OH229685   1.156   6.020   8.735  0.2403  0.2886  0.2494
 2709TIP3    H129686   1.203   6.097   8.704  0.0838 -0.6259 -2.4826
 2709TIP3    H229687   1.066   6.050   8.749  0.5431  0.9496  0.8003
 2710TIP3   OH229688   5.511   2.024   8.201 -0.5907 -0.3976  0.2526
 2710TIP3    H129689   5.562   2.048   8.278  0.5060 -2.2482  0.1571
 2710TIP3    H229690   5.575   1.989   8.139 -1.6439 -0.3092 -0.9446
 2711TIP3   OH229691   0.545   1.841   8.094 -1.0113  0.7416  0.1065
 2711TIP3    H129692   0.551   1.799   8.008  0.3425 -1.1210  1.0433
 2711TIP3    H229693   0.612   1.909   8.092 -0.6203  0.3567 -0.1432
 2712TIP3   OH229694   4.693   1.939   7.655 -0.1481 -0.3878 -0.3156
 2712TIP3    H129695   4.760   1.897   7.599  1.4891  0.4562  0.9262
 2712TIP3    H229696   4.716   1.912   7.744 -0.5876  1.0787  0.2754
 2713TIP3   OH229697   0.361   0.314   1.363 -0.4608 -0.2652 -0.4703
 2713TIP3    H129698   0.404   0.234   1.333 -0.4968  0.3283 -2.1873
 2713TIP3    H229699   0.318   0.349   1.285  0.0180  1.7166  0.1170
 2714TIP3   OH229700   1.399   2.432   8.127 -0.5368 -0.3128 -0.2959
 2714TIP3    H129701   1.368   2.500   8.187 -1.6735 -0.2546 -0.9302
 2714TIP3    H229702   1.493   2.446   8.122 -0.4633 -0.0780  1.1722
 2715TIP3   OH229703   0.125   1.912   1.179 -0.2869 -0.0881  0.2942
 2715TIP3    H129704   0.154   2.004   1.176  3.1236 -1.0373  0.5757
 2715TIP3    H229705   0.168   1.872   1.103  1.4137 -2.1902  2.2523
 2716TIP3   OH229706   3.911   3.826   1.111 -0.0738  0.2831  0.3639
 2716TIP3    H129707   3.959   3.762   1.163  2.5403  2.1898  0.5549
 2716TIP3    H229708   3.900   3.901   1.169 -1.9991  0.4709 -0.1896
 2717TIP3   OH229709   4.824   5.959   0.748  0.2876  0.2231  0.1815
 2717TIP3    H129710   4.860   6.048   0.743  0.6440  0.1476  1.1523
 2717TIP3    H229711   4.827   5.927   0.658  2.3461  0.3566  0.1497
 2718TIP3   OH229712   4.874   3.844   0.016  0.0052 -0.0941 -1.0286
 2718TIP3    H129713   4.915   3.903   0.079  0.2613 -0.9470 -0.3673
 2718TIP3    H229714   4.780   3.855   0.031  0.0314 -1.9317  1.1876
 2719TIP3   OH229715   3.767   1.977   1.778 -0.4422  0.4656 -0.3609
 2719TIP3    H129716   3.826   1.903   1.763 -0.0767  0.2196  1.9926
 2719TIP3    H229717   3.690   1.939   1.820 -0.6994  1.2810 -0.0755
 2720TIP3   OH229718   1.136   6.474   1.737  0.2260 -0.0091  0.0407
 2720TIP3    H129719   1.064   6.430   1.692  1.1047  0.2809 -1.7833
 2720TIP3    H229720   1.199   6.404   1.754  0.6481  0.1451 -0.8166
 2721TIP3   OH229721   4.473   6.021   1.220  0.0150  0.0125  0.5966
 2721TIP3    H129722   4.550   5.990   1.268 -0.9503 -1.4047  1.3057
 2721TIP3    H229723   4.508   6.061   1.140  1.4571 -1.3623  0.5004
 2722TIP3   OH229724   5.544   4.882   7.137 -0.1462  0.0990 -0.1788
 2722TIP3    H129725   5.564   4.789   7.130 -0.3264  0.0318  0.1696
 2722TIP3    H229726   5.459   4.885   7.180  0.1377  0.4404  0.3658
 2723TIP3   OH229727   6.539   0.853   8.343 -0.1456  0.3487  0.1562
 2723TIP3    H129728   6.566   0.761   8.345 -0.5675  0.1749 -1.1775
 2723TIP3    H229729   6.539   0.876   8.250 -2.1499  1.0580  0.2729
 2724TIP3   OH229730   4.237   4.468   7.889 -0.3875  0.1378  0.0270
 2724TIP3    H129731   4.210   4.379   7.867 -0.1722 -0.6808  2.7241
 2724TIP3    H229732   4.331   4.470   7.875  0.0032 -0.8578  2.0981
 2725TIP3   OH229733   6.655   0.029   2.130 -0.0568  0.1883 -0.3182
 2725TIP3    H129734   6.562   0.032   2.150  0.1296 -2.3302  1.3316
 2725TIP3    H229735   6.693   0.099   2.183 -1.1398  2.7356 -2.6600
 2726TIP3   OH229736   2.410   0.428   8.466  0.0641  0.2090  0.1450
 2726TIP3    H129737   2.322   0.437   8.503  0.1253 -1.5161  0.8017
 2726TIP3    H229738   2.448   0.352   8.511  0.6399 -1.2241 -2.5217
 2727TIP3   OH229739   0.313   2.627   0.787 -0.2685  0.5707  0.5407
 2727TIP3    H129740   0.236   2.641   0.732  0.9574  1.7212 -0.9738
 2727TIP3    H229741   0.314   2.533   0.804 -1.8731  0.5097  0.4194
 2728TIP3   OH229742   6.056   2.405   1.932 -0.4226 -0.0918  0.6514
 2728TIP3    H129743   6.091   2.329   1.978 -1.3139 -0.1342  1.2928
 2728TIP3    H229744   5.993   2.443   1.993  1.3890  2.3252  1.1705
 2729TIP3   OH229745   3.322   6.025   0.372 -0.5410  0.0314 -0.1731
 2729TIP3    H129746   3.271   6.037   0.292 -0.5695 -0.4439 -0.2311
 2729TIP3    H229747   3.260   5.992   0.436 -0.7228  1.3273  0.3323
 2730TIP3   OH229748   0.831   4.621   0.208 -0.0276  0.3884  0.1135
 2730TIP3    H129749   0.778   4.542   0.223  0.2620 -0.0051 -0.8556
 2730TIP3    H229750   0.842   4.625   0.113 -0.8516  2.1378  0.0505
 2731TIP3   OH229751   2.903   0.384   8.104  0.1400 -0.5562 -1.0117
 2731TIP3    H129752   2.944   0.319   8.160  2.3806 -0.4630 -2.4205
 2731TIP3    H229753   2.882   0.457   8.163  1.4654 -0.8783 -0.0988
 2732TIP3   OH229754   0.316   6.013   0.391 -0.4129  0.0866 -0.7555
 2732TIP3    H129755   0.277   5.961   0.461 -0.2769  0.4162 -0.4347
 2732TIP3    H229756   0.393   5.963   0.364 -0.1445  0.2368 -0.2813
 2733TIP3   OH229757   4.381   5.061   0.707  0.6828 -0.3832  0.1285
 2733TIP3    H129758   4.452   5.075   0.769  0.0030  1.4570  0.5519
 2733TIP3    H229759   4.420   5.075   0.621  1.0888 -0.5348  0.2888
 2734TIP3   OH229760   2.730   3.420   8.763  0.0797 -0.5347  0.0996
 2734TIP3    H129761   2.715   3.424   8.669  0.9291 -0.6411 -0.0461
 2734TIP3    H229762   2.812   3.468   8.776 -1.3766  1.8478  1.1126
 2735TIP3   OH229763   5.880   4.075   0.530  0.4238  0.0976 -0.3026
 2735TIP3    H129764   5.801   4.031   0.563 -0.1458  2.6708  2.1473
 2735TIP3    H229765   5.918   4.118   0.607  2.8773  0.9699 -1.8789
 2736TIP3   OH229766   4.787   1.316   1.935  0.2962 -0.0971  0.2095
 2736TIP3    H129767   4.746   1.249   1.988 -0.4913  0.4593  0.3150
 2736TIP3    H229768   4.724   1.335   1.866  0.4767  0.5773  0.2172
 2737TIP3   OH229769   2.508   3.665   8.821  0.1849  0.0723  0.0098
 2737TIP3    H129770   2.523   3.573   8.798  2.2509  0.1279  0.8885
 2737TIP3    H229771   2.436   3.662   8.883  1.7176 -1.3021  1.8709
 2738TIP3   OH229772   1.539   0.563   2.066 -0.2477 -0.2327 -0.4196
 2738TIP3    H129773   1.571   0.479   2.032 -3.3705 -1.6536 -0.1651
 2738TIP3    H229774   1.483   0.539   2.139  2.0561  2.4355  2.4709
 2739TIP3   OH229775   2.596   2.176   0.957 -0.0005 -0.1735  0.0243
 2739TIP3    H129776   2.583   2.085   0.929 -0.2203  0.1333 -0.9232
 2739TIP3    H229777   2.523   2.194   1.017  1.2146 -1.2596  1.9257
 2740TIP3   OH229778   0.829   5.901   8.165 -0.0872  0.2849 -0.7720
 2740TIP3    H129779   0.899   5.928   8.225 -0.7643  0.1683  0.0782
 2740TIP3    H229780   0.828   5.805   8.171  1.1226  0.1007 -2.4510
 2741TIP3   OH229781   1.505   3.981   1.235 -0.2553  0.2275  0.1429
 2741TIP3    H129782   1.573   4.028   1.187  0.4637 -0.4294  0.4954
 2741TIP3    H229783   1.536   3.979   1.325 -0.2189 -0.9816  0.1295
 2742TIP3   OH229784   5.133   5.141   2.182 -0.2073 -0.2735 -0.0011
 2742TIP3    H129785   5.187   5.091   2.242 -0.1612 -0.9323 -0.5828
 2742TIP3    H229786   5.148   5.233   2.205  0.9826 -0.4609 -0.0170
 2743TIP3   OH229787   4.544   5.959   0.186 -0.7542 -0.3158  0.4798
 2743TIP3    H129788   4.516   5.973   0.095  0.8077  1.2005  0.1767
 2743TIP3    H229789   4.478   5.900   0.222 -2.7138  0.8501 -0.9607
 2744TIP3   OH229790   2.140   6.285   8.476 -0.0138 -0.3569  0.6317
 2744TIP3    H129791   2.223   6.288   8.523 -0.5194 -0.1544  1.5252
 2744TIP3    H229792   2.108   6.375   8.476 -1.8856 -0.9121  3.3451
 2745TIP3   OH229793   3.879   3.360   7.704 -0.1474 -0.2910 -0.3845
 2745TIP3    H129794   3.838   3.434   7.660 -1.1082 -0.5562  0.0426
 2745TIP3    H229795   3.853   3.369   7.795  0.9554 -0.3417 -0.0437
 2746TIP3   OH229796   6.755   2.983   7.385  0.0724  0.1137 -0.0385
 2746TIP3    H129797   6.745   3.061   7.330 -0.7869  0.1311  0.1348
 2746TIP3    H229798   6.696   2.918   7.346 -0.6389  0.1645  0.9170
 2747TIP3   OH229799   2.298   0.010   8.499  0.0811 -0.2556  0.1436
 2747TIP3    H129800   2.287  -0.081   8.527 -1.0426 -0.0972  0.2587
 2747TIP3    H229801   2.376   0.040   8.546 -0.8818 -0.4603  1.9367
 2748TIP3   OH229802   3.414   0.421   2.059 -0.0321 -0.1249 -0.0031
 2748TIP3    H129803   3.356   0.437   1.984 -1.4039 -0.2281  0.9959
 2748TIP3    H229804   3.410   0.327   2.073  1.9874 -0.4321 -1.1384
 2749TIP3   OH229805   2.772   2.975   8.119 -0.2156  0.1868 -0.3521
 2749TIP3    H129806   2.692   3.027   8.123  0.4488  1.2540 -0.3241
 2749TIP3    H229807   2.748   2.896   8.071 -0.9512  1.1249 -1.5818
 2750TIP3   OH229808   2.022   6.764   7.374  0.2255  0.3091  0.4818
 2750TIP3    H129809   2.053   6.768   7.284  0.2529 -1.5769  0.3680
 2750TIP3    H229810   1.955   6.695   7.373  0.0748  0.4148  1.8575
 2751TIP3   OH229811   5.422   3.103   8.068  0.2643  0.6129 -0.7172
 2751TIP3    H129812   5.437   3.110   7.974  0.4312 -1.7263 -0.9260
 2751TIP3    H229813   5.388   3.015   8.081  1.1899  0.4984  1.5267
 2752TIP3   OH229814   3.226   3.792   0.822  0.6482  0.1268  0.3320
 2752TIP3    H129815   3.167   3.846   0.874  2.0200  0.9206  1.1176
 2752TIP3    H229816   3.202   3.702   0.845 -1.8844  0.2972 -1.2379
 2753TIP3   OH229817   1.197   6.389   2.072 -0.0598  0.2851  0.2129
 2753TIP3    H129818   1.109   6.361   2.050  0.1492  1.1849 -2.0246
 2753TIP3    H229819   1.253   6.352   2.003  1.2698  0.0568  1.3583
 2754TIP3   OH229820   4.936   0.204   2.662 -0.2740 -0.0606 -0.4136
 2754TIP3    H129821   5.025   0.199   2.696 -0.1958  0.2170 -0.5732
 2754TIP3    H229822   4.940   0.162   2.577 -0.5231 -0.9717  0.0107
 2755TIP3   OH229823   1.411   0.291   1.874  0.4352 -0.4435  0.3109
 2755TIP3    H129824   1.442   0.245   1.796 -3.9774 -0.8755 -1.5098
 2755TIP3    H229825   1.401   0.222   1.940 -0.5638 -1.1204 -0.4945
 2756TIP3   OH229826   5.280   3.313   1.556 -0.2264  0.3519 -0.5809
 2756TIP3    H129827   5.292   3.333   1.649 -0.4242 -0.3553 -0.3930
 2756TIP3    H229828   5.353   3.255   1.534  1.3093  2.5228 -1.5484
 2757TIP3   OH229829   5.938   1.097   2.559 -0.1473  0.4744 -0.4467
 2757TIP3    H129830   5.957   1.043   2.635 -0.4911  0.7104 -0.1888
 2757TIP3    H229831   6.024   1.116   2.521  0.1791  1.6981  0.8157
 2758TIP3   OH229832   2.936   5.494   2.754 -0.0543  0.0582  0.2083
 2758TIP3    H129833   2.922   5.481   2.848  1.4614 -1.3436  0.2898
 2758TIP3    H229834   2.848   5.495   2.717 -0.6475 -1.5433  1.4182
 2759TIP3   OH229835   2.863   0.072   1.173  0.2928  0.3057 -0.1978
 2759TIP3    H129836   2.780   0.085   1.128 -0.1269 -0.8417  0.2057
 2759TIP3    H229837   2.864   0.138   1.242  0.4783  1.4006 -1.2224
 2760TIP3   OH229838   6.026   2.645   2.822  0.0053 -0.0968 -0.5228
 2760TIP3    H129839   6.042   2.578   2.756  1.3441  0.4679 -0.8012
 2760TIP3    H229840   6.112   2.660   2.863 -0.4436  0.8189  0.1245
 2761TIP3   OH229841   4.612   1.379   1.736  0.2042  0.3302  0.5049
 2761TIP3    H129842   4.650   1.382   1.648  1.5865 -3.0918  0.8447
 2761TIP3    H229843   4.522   1.350   1.723  0.4752 -0.3970  0.1938
 2762TIP3   OH229844   2.902   6.726   8.118 -0.2311 -0.2133  0.0040
 2762TIP3    H129845   2.899   6.676   8.200  0.2629  0.0439  0.1808
 2762TIP3    H229846   2.904   6.660   8.049  0.7703 -0.4414  0.2460
 2763TIP3   OH229847   4.344   6.743   1.085 -0.0476  0.4965  0.2064
 2763TIP3    H129848   4.310   6.798   1.156  0.8079  2.0257 -0.5293
 2763TIP3    H229849   4.438   6.739   1.101 -0.2089 -1.8508  0.9540
 2764TIP3   OH229850   3.969   1.867   0.852  0.1629 -0.1237  0.4049
 2764TIP3    H129851   3.928   1.836   0.933 -1.6428 -2.7283 -1.3477
 2764TIP3    H229852   4.035   1.800   0.832  1.4211  1.1102  0.2521
 2765TIP3   OH229853   4.488   1.259   7.733 -0.0536 -0.2299 -0.0263
 2765TIP3    H129854   4.483   1.166   7.755  0.3440 -0.3846 -0.5427
 2765TIP3    H229855   4.427   1.302   7.793  0.3681 -0.7214  0.7688
 2766TIP3   OH229856   4.705   5.462   0.193  0.7531  0.6711  0.2694
 2766TIP3    H129857   4.653   5.426   0.263 -0.0516 -0.5267 -0.9075
 2766TIP3    H229858   4.666   5.427   0.113 -0.2447  4.2905 -1.0200
 2767TIP3   OH229859   5.168   4.653   0.215 -0.0917 -0.0189 -0.0621
 2767TIP3    H129860   5.085   4.689   0.184  0.7526  1.7874 -0.3576
 2767TIP3    H229861   5.165   4.561   0.189 -2.5998 -0.3994  1.2431
 2768TIP3   OH229862   4.286   3.266   0.091  0.0521  0.3728 -0.1242
 2768TIP3    H129863   4.306   3.360   0.084 -1.2685  0.7702  0.8852
 2768TIP3    H229864   4.366   3.227   0.125  0.4685  1.2209 -0.0909
 2769TIP3   OH229865   1.317   2.033   7.746  0.0307 -0.6697 -0.2510
 2769TIP3    H129866   1.312   1.959   7.807 -2.0816 -0.2543  0.1288
 2769TIP3    H229867   1.407   2.030   7.714  1.4243 -0.6446  3.1957
 2770TIP3   OH229868   0.546   0.663   0.856 -0.0010  0.1745 -0.2319
 2770TIP3    H129869   0.566   0.709   0.774 -0.9860  0.8820 -0.0914
 2770TIP3    H229870   0.599   0.583   0.852 -0.4785 -0.1003 -1.8446
 2771TIP3   OH229871   0.499   4.943   2.673 -0.2721  0.0053 -0.5395
 2771TIP3    H129872   0.531   4.936   2.583 -1.3819  0.0672 -0.9558
 2771TIP3    H229873   0.473   4.854   2.695 -1.9697  0.3405 -1.0577
 2772TIP3   OH229874   2.039   2.841   7.700 -0.2211 -0.0371  0.3499
 2772TIP3    H129875   1.946   2.830   7.717 -0.0057 -0.0016  1.6479
 2772TIP3    H229876   2.048   2.932   7.673 -0.3972  0.3819  1.6263
 2773TIP3   OH229877   2.139   5.596   1.768  0.6607  0.0626 -0.5358
 2773TIP3    H129878   2.151   5.502   1.781  2.1601  0.2576 -0.3005
 2773TIP3    H229879   2.044   5.609   1.771  0.4948 -1.1008  2.0171
 2774TIP3   OH229880   3.987   0.451   0.089 -0.3312  0.3660  0.2740
 2774TIP3    H129881   4.015   0.503   0.013  1.7784 -0.9823  0.0519
 2774TIP3    H229882   4.012   0.505   0.164  1.1855  0.0322  0.0391
 2775TIP3   OH229883   4.926   1.672   1.287 -0.0929  0.4027 -0.5793
 2775TIP3    H129884   4.951   1.744   1.229 -0.3397  0.7881 -0.2087
 2775TIP3    H229885   4.832   1.684   1.301 -0.1734 -0.1012 -0.6635
 2776TIP3   OH229886   2.884   3.966   1.928 -0.1816  0.0855  0.4866
 2776TIP3    H129887   2.869   4.046   1.978 -1.6480  0.7837 -0.9622
 2776TIP3    H229888   2.915   3.902   1.992 -0.4984  1.3638  1.9658
 2777TIP3   OH229889   6.456   0.549   7.948 -0.7323  0.1025  0.1350
 2777TIP3    H129890   6.414   0.553   8.034 -0.2824 -2.2108  0.5218
 2777TIP3    H229891   6.459   0.456   7.926 -1.5306  0.6405 -2.7747
 2778TIP3   OH229892   4.269   1.281   2.050 -0.0254  0.4674  0.1619
 2778TIP3    H129893   4.357   1.254   2.078  0.1281  0.8350  0.0350
 2778TIP3    H229894   4.247   1.354   2.108 -0.1931  0.4614  0.1052
 2779TIP3   OH229895   2.304   0.081   8.053  0.3122 -0.4080 -0.4334
 2779TIP3    H129896   2.282   0.117   7.967  0.8295 -0.0131 -0.4078
 2779TIP3    H229897   2.349   0.153   8.098 -0.6189 -0.3535  0.4538
 2780TIP3   OH229898   6.680   2.012   2.641 -0.2151 -0.1535  0.0881
 2780TIP3    H129899   6.733   2.082   2.604  0.5294 -0.1138  1.1692
 2780TIP3    H229900   6.713   1.932   2.600  0.6782 -0.1227  0.7104
 2781TIP3   OH229901   1.557   0.260   1.646 -0.0534  0.6686  0.0209
 2781TIP3    H129902   1.560   0.173   1.685 -0.4062  0.2861 -0.7782
 2781TIP3    H229903   1.643   0.297   1.664  0.2101  0.0315  0.0982
 2782TIP3   OH229904   1.412   5.111   0.976 -0.5405  0.4699 -0.4894
 2782TIP3    H129905   1.415   5.044   1.045  1.6616  0.5733 -0.4115
 2782TIP3    H229906   1.397   5.062   0.895 -1.9301  0.2234 -0.1065
 2783TIP3   OH229907   1.750   1.536   1.812 -0.3074 -0.3318 -0.4192
 2783TIP3    H129908   1.702   1.616   1.831  1.1684  0.7926 -1.1765
 2783TIP3    H229909   1.685   1.466   1.819 -1.8068  1.0068 -0.4844
 2784TIP3   OH229910   3.977   1.796   2.747 -0.0346 -0.4917 -0.7276
 2784TIP3    H129911   3.939   1.823   2.831 -0.6187 -1.3948 -0.6863
 2784TIP3    H229912   3.984   1.701   2.753  3.8738 -0.3584 -0.0461
 2785TIP3   OH229913   5.563   5.576   0.102  0.3189  0.4025 -0.0927
 2785TIP3    H129914   5.644   5.527   0.087  0.6924  0.1323  2.3631
 2785TIP3    H229915   5.570   5.652   0.044  1.2087 -0.8076 -1.6493
 2786TIP3   OH229916   6.432   2.341   7.670 -0.0893 -0.0706 -0.2551
 2786TIP3    H129917   6.380   2.275   7.716  2.4052 -1.5150  0.6943
 2786TIP3    H229918   6.400   2.337   7.579 -0.3306 -2.2759 -0.1290
 2787TIP3   OH229919   3.099   1.273   0.039  0.1194 -0.5463 -0.0721
 2787TIP3    H129920   3.180   1.306   0.078 -0.5576 -1.4245  2.2822
 2787TIP3    H229921   3.070   1.343  -0.019  1.7032  0.4664  0.2941
 2788TIP3   OH229922   0.305   0.723   0.974 -0.5222 -0.0684  0.3129
 2788TIP3    H129923   0.300   0.667   1.052 -0.7911  1.7596  1.7023
 2788TIP3    H229924   0.397   0.721   0.948 -0.5485 -1.2078  0.2714
 2789TIP3   OH229925   0.390   3.124   8.674 -0.7017  0.2566  0.2084
 2789TIP3    H129926   0.295   3.125   8.676 -0.6886  1.4480  1.8609
 2789TIP3    H229927   0.412   3.055   8.611 -2.6435  1.2889 -1.7501
 2790TIP3   OH229928   6.246   5.984   0.400  0.2653  0.1172 -0.5220
 2790TIP3    H129929   6.202   6.030   0.329  1.2888  1.3101 -0.4176
 2790TIP3    H229930   6.208   6.021   0.480  1.7527  1.5512 -0.4188
 2791TIP3   OH229931   4.219   2.887   1.208 -0.7992 -0.0273 -0.0005
 2791TIP3    H129932   4.125   2.891   1.226 -0.6312  2.2978  0.5968
 2791TIP3    H229933   4.226   2.828   1.132 -2.6711 -0.5833  0.2135
 2792TIP3   OH229934   3.709   1.889   7.775  0.5149  0.2689 -0.5384
 2792TIP3    H129935   3.651   1.932   7.838 -1.0271 -1.4610 -0.7144
 2792TIP3    H229936   3.707   1.796   7.798  1.1690 -0.1923 -2.1664
 2793TIP3   OH229937   4.282   1.860   1.307 -0.6743 -0.2211 -0.4069
 2793TIP3    H129938   4.320   1.935   1.353 -0.2474  0.0336 -1.1589
 2793TIP3    H229939   4.244   1.897   1.227 -1.6767 -0.6122 -0.1217
 2794TIP3   OH229940   3.517   6.306   6.964 -0.1030 -0.3577 -0.4310
 2794TIP3    H129941   3.516   6.331   6.872  1.7395 -0.0782 -0.4227
 2794TIP3    H229942   3.491   6.386   7.011  3.9746  1.2658 -0.5076
 2795TIP3   OH229943   1.643   0.236   0.512  0.5509  0.1671 -0.8996
 2795TIP3    H129944   1.581   0.169   0.539  0.6197  0.4260 -0.0553
 2795TIP3    H229945   1.721   0.219   0.566  1.2411 -0.1966 -1.9898
 2796TIP3   OH229946   4.752   4.773   7.308  0.2974 -0.3730 -0.0685
 2796TIP3    H129947   4.746   4.839   7.240 -0.4695 -0.7063 -0.3302
 2796TIP3    H229948   4.662   4.746   7.324  0.1734  1.3179  2.6943
 2797TIP3   OH229949   5.212   0.708   6.935  0.5829  0.1987 -0.1927
 2797TIP3    H129950   5.132   0.759   6.920  1.4477  1.1529 -1.8971
 2797TIP3    H229951   5.278   0.749   6.879  2.0963 -1.0186  0.6018
 2798TIP3   OH229952   5.559   3.649   8.879  0.1087 -0.4480  0.3418
 2798TIP3    H129953   5.652   3.667   8.866  0.3582 -1.2431  0.9120
 2798TIP3    H229954   5.529   3.617   8.794  0.2031  0.3774 -0.0128
 2799TIP3   OH229955   1.721   2.968   8.251 -0.0524 -0.1421 -0.1284
 2799TIP3    H129956   1.711   3.041   8.312 -0.4908 -0.5084  0.2401
 2799TIP3    H229957   1.681   2.894   8.296  0.3281 -0.5934 -0.5321
 2800TIP3   OH229958   3.644   0.689   8.104 -0.5948 -0.6899 -0.0215
 2800TIP3    H129959   3.609   0.773   8.074 -1.1009 -1.0540 -0.4721
 2800TIP3    H229960   3.738   0.695   8.089 -0.4844  0.1800  0.8940
 2801TIP3   OH229961   4.773   6.314   0.937  0.2935  0.3646 -0.2347
 2801TIP3    H129962   4.835   6.253   0.897  0.0277  0.2086 -0.4180
 2801TIP3    H229963   4.760   6.280   1.026  1.0926  0.8650  0.0843
 2802TIP3   OH229964   5.223   5.629   1.621 -0.0296  0.2596  0.3631
 2802TIP3    H129965   5.228   5.539   1.655  0.4756  0.3311  0.4895
 2802TIP3    H229966   5.185   5.679   1.693  1.5742  0.5182  1.0743
 2803TIP3   OH229967   5.858   4.862   7.279 -0.3200  0.4794  0.4571
 2803TIP3    H129968   5.830   4.803   7.209  0.1369 -1.3155  1.7351
 2803TIP3    H229969   5.776   4.903   7.309 -1.0534 -1.3567  1.1485
 2804TIP3   OH229970   1.493   6.193   0.334  0.8268 -0.1732  0.4046
 2804TIP3    H129971   1.408   6.178   0.374  1.0369 -2.3090  0.1743
 2804TIP3    H229972   1.556   6.153   0.394  1.4767 -0.2770 -0.3228
 2805TIP3   OH229973   0.495   1.771   1.879  0.8182  0.5016  1.2938
 2805TIP3    H129974   0.444   1.795   1.802  2.2192 -0.4969  0.0018
 2805TIP3    H229975   0.585   1.764   1.847  1.0221 -3.0097  2.2651
 2806TIP3   OH229976   5.328   2.668   8.335 -0.1757 -0.1885 -0.3833
 2806TIP3    H129977   5.347   2.593   8.280  0.0503  0.4381 -1.1750
 2806TIP3    H229978   5.339   2.744   8.278  1.0426  0.5512  0.7582
 2807TIP3   OH229979   5.801   4.561   1.102  0.4460 -0.1014 -0.2744
 2807TIP3    H129980   5.891   4.582   1.126 -0.3067  0.9730  1.9774
 2807TIP3    H229981   5.807   4.480   1.052  2.7219  0.5152 -1.1227
 2808TIP3   OH229982   6.776   0.642   1.896 -0.2490 -0.1484  0.2446
 2808TIP3    H129983   6.721   0.599   1.832  0.2337  0.8458 -0.8807
 2808TIP3    H229984   6.721   0.651   1.974 -0.5974 -2.0502  0.2592
 2809TIP3   OH229985   3.194   2.250   1.419  0.4797 -0.4149  0.8264
 2809TIP3    H129986   3.109   2.270   1.379  1.0856  0.0286 -0.2660
 2809TIP3    H229987   3.258   2.288   1.360  1.4270  0.3241  2.2708
 2810TIP3   OH229988   6.178   6.038   2.482 -0.2064  0.1393 -0.1487
 2810TIP3    H129989   6.152   6.115   2.531  0.8701  0.9424 -0.7728
 2810TIP3    H229990   6.143   5.964   2.531 -4.1817  1.0505 -1.2464
 2811TIP3   OH229991   5.617   1.772   0.761  0.2295 -0.2577  0.5074
 2811TIP3    H129992   5.643   1.683   0.782 -0.1039 -0.3138  0.7032
 2811TIP3    H229993   5.589   1.809   0.845 -0.0240 -0.1037  0.3574
 2812TIP3   OH229994   1.050   0.867   0.640  0.0743 -0.4678 -0.3916
 2812TIP3    H129995   1.031   0.789   0.587 -0.8377 -0.7340  0.2990
 2812TIP3    H229996   1.124   0.908   0.596 -0.3939 -0.8977 -1.6467
 2813TIP3   OH229997   2.367   4.038   2.914  0.3147  0.2819  0.2418
 2813TIP3    H129998   2.317   4.098   2.969 -0.3070  0.4773 -0.5147
 2813TIP3    H229999   2.430   4.093   2.869 -0.4549  0.4353 -0.6799
 2814TIP3   OH230000   6.083   2.251   1.120  0.1904 -0.2097  0.2926
 2814TIP3    H130001   6.057   2.159   1.113  1.0738 -0.3487 -1.8539
 2814TIP3    H230002   6.162   2.249   1.173  0.6248 -0.8002 -0.3525
 2815TIP3   OH230003   0.695   2.885   1.771  0.9159 -0.3419 -0.6297
 2815TIP3    H130004   0.714   2.859   1.861 -0.2021  2.3667  0.4943
 2815TIP3    H230005   0.603   2.862   1.758  0.8656 -0.0271 -0.8253
 2816TIP3   OH230006   0.397   5.300   0.115 -0.0133  0.2666 -0.0207
 2816TIP3    H130007   0.314   5.296   0.068  0.9767 -4.4267 -1.8747
 2816TIP3    H230008   0.385   5.243   0.191  1.1920  0.3407  0.2534
 2817TIP3   OH230009   0.434   4.381   1.446 -0.3230 -0.3728 -0.7092
 2817TIP3    H130010   0.438   4.428   1.529 -1.4866 -2.2495  0.4971
 2817TIP3    H230011   0.507   4.319   1.449  0.4689  0.4747 -1.7390
 2818TIP3   OH230012   0.373   6.291   1.937 -0.2447  0.0681 -0.4120
 2818TIP3    H130013   0.378   6.198   1.917  2.1799  0.1854 -0.6873
 2818TIP3    H230014   0.380   6.296   2.032 -1.1981 -0.0459 -0.3283
 2819TIP3   OH230015   0.051   4.368   0.580  0.5538 -0.4573  0.4800
 2819TIP3    H130016   0.019   4.454   0.607  0.9466  0.3008 -1.3546
 2819TIP3    H230017   0.077   4.326   0.662 -0.7572  0.6892  1.5321
 2820TIP3   OH230018   2.832   5.660   0.005  0.0543  0.1385 -0.3232
 2820TIP3    H130019   2.867   5.635  -0.081 -0.5688  1.3630 -0.9473
 2820TIP3    H230020   2.810   5.577   0.047  1.4287 -0.5388 -0.8803
 2821TIP3   OH230021   1.945   6.395   1.005 -0.4101 -0.1028 -0.2274
 2821TIP3    H130022   1.995   6.455   1.060  0.3236 -0.9086  0.0129
 2821TIP3    H230023   2.010   6.331   0.975 -1.0585 -0.4290 -0.9595
 2822TIP3   OH230024   5.277   6.569   1.127 -0.2217  0.3425  0.3069
 2822TIP3    H130025   5.304   6.649   1.172 -0.4021  1.2909 -1.2144
 2822TIP3    H230026   5.311   6.498   1.182  1.4010  1.4581  0.8045
 2823TIP3   OH230027   3.648   1.020   1.109 -0.0519  0.0171  0.3849
 2823TIP3    H130028   3.596   1.012   1.029 -0.3361 -0.5620  0.6233
 2823TIP3    H230029   3.589   0.992   1.179  0.2963  0.2173  0.7620
 2824TIP3   OH230030   3.404   1.497   1.400  0.3004 -0.2578 -0.4121
 2824TIP3    H130031   3.338   1.454   1.455 -1.9382  2.1857 -0.9240
 2824TIP3    H230032   3.472   1.526   1.461 -0.6048 -0.2676  0.6312
 2825TIP3   OH230033   6.604   5.005   7.735 -0.0335 -0.5676  0.0191
 2825TIP3    H130034   6.680   4.962   7.696 -0.4660 -0.3266 -1.1521
 2825TIP3    H230035   6.576   4.947   7.805  0.8596 -0.9546  0.0689
 2826TIP3   OH230036   3.280   0.551   6.885 -0.1548 -0.3141 -0.0599
 2826TIP3    H130037   3.330   0.599   6.951 -1.5558 -1.2095  1.7363
 2826TIP3    H230038   3.316   0.462   6.889 -0.4844 -0.4565 -0.2383
 2827TIP3   OH230039   2.149   4.411   1.494  0.0904 -0.0750 -0.2018
 2827TIP3    H130040   2.068   4.462   1.489  0.1136 -0.1301 -1.3035
 2827TIP3    H230041   2.195   4.431   1.413  0.7288 -0.8038 -0.0307
 2828TIP3   OH230042   4.738   3.570   8.479 -0.7349  1.0440  0.3937
 2828TIP3    H130043   4.782   3.647   8.445 -0.3442  0.3479 -0.7520
 2828TIP3    H230044   4.648   3.576   8.446 -0.5066  0.6459 -0.3017
 2829TIP3   OH230045   6.364   1.123   7.259  0.1538  0.7400 -0.9626
 2829TIP3    H130046   6.373   1.205   7.210 -1.1683  1.4336 -0.0999
 2829TIP3    H230047   6.270   1.111   7.269  0.3636  0.1367  0.5734
 2830TIP3   OH230048   5.457   2.777   7.963 -0.0580 -0.5235 -0.2005
 2830TIP3    H130049   5.400   2.717   7.915  0.1276 -0.7364 -0.1508
 2830TIP3    H230050   5.505   2.824   7.895 -0.9518  0.3126 -0.2852
 2831TIP3   OH230051   5.281   0.387   1.702 -0.3094  0.3430  0.1233
 2831TIP3    H130052   5.323   0.436   1.773 -2.7682  1.9769  0.5671
 2831TIP3    H230053   5.260   0.454   1.636 -0.6149 -0.6992 -0.8643
 2832TIP3   OH230054   4.497   0.437   2.658 -0.7278 -0.1841  0.0077
 2832TIP3    H130055   4.411   0.417   2.694 -1.2076 -0.7921 -1.3740
 2832TIP3    H230056   4.489   0.415   2.565  0.7712  0.2344 -0.2469
 2833TIP3   OH230057   4.785   0.128   0.446 -0.0835 -0.1438  0.0325
 2833TIP3    H130058   4.739   0.045   0.430  0.7305 -0.5272 -0.4594
 2833TIP3    H230059   4.782   0.139   0.541 -0.0297 -0.8495  0.1267
 2834TIP3   OH230060   3.050   3.946   0.299 -0.0838 -0.7635 -0.2167
 2834TIP3    H130061   3.055   3.919   0.391 -0.2884 -2.7963 -0.7514
 2834TIP3    H230062   3.126   3.905   0.258 -0.1536 -0.1062 -1.0247
 2835TIP3   OH230063   4.056   1.616   1.654 -0.1372  0.2204  0.7614
 2835TIP3    H130064   4.127   1.599   1.716 -1.0017  0.1098  1.7557
 2835TIP3    H230065   3.990   1.663   1.706 -1.3880 -0.9084  0.2410
 2836TIP3   OH230066   2.429   1.455   0.868 -0.6065 -0.6387  0.3739
 2836TIP3    H130067   2.476   1.503   0.799 -1.2335  0.8164  0.9124
 2836TIP3    H230068   2.499   1.422   0.925 -0.1396 -0.7761 -0.2611
 2837TIP3   OH230069   6.071   0.428   7.434 -0.0727 -0.1903  0.8386
 2837TIP3    H130070   6.037   0.450   7.521 -0.6067  0.8747  0.3742
 2837TIP3    H230071   6.063   0.509   7.384 -0.5974 -1.0290 -0.4681
 2838TIP3   OH230072   1.244   5.609   7.168  0.0666 -0.0635 -0.2982
 2838TIP3    H130073   1.335   5.612   7.196  0.4534  1.2686 -1.6040
 2838TIP3    H230074   1.223   5.515   7.166  0.1380 -0.3435  3.7224
 2839TIP3   OH230075   4.416   3.837   0.194  0.6765  1.1348  0.5788
 2839TIP3    H130076   4.438   3.913   0.248 -1.4226  0.9294  1.8243
 2839TIP3    H230077   4.337   3.802   0.233  0.7630 -0.8444 -0.8739
 2840TIP3   OH230078   4.813   3.228   7.732  0.2474  0.3245  0.0140
 2840TIP3    H130079   4.854   3.175   7.663  0.7654 -0.0613  0.6091
 2840TIP3    H230080   4.810   3.317   7.696  3.1732  0.7406  0.5843
 2841TIP3   OH230081   1.986   6.129   0.853  0.4374 -0.4223  1.0077
 2841TIP3    H130082   1.901   6.135   0.895  0.3125 -0.0597  0.7147
 2841TIP3    H230083   2.048   6.121   0.925  0.1785 -0.3976  1.2345
 2842TIP3   OH230084   4.439   1.357   1.441  0.0686 -0.5636  0.0748
 2842TIP3    H130085   4.423   1.263   1.449  1.7387 -1.0170 -1.3657
 2842TIP3    H230086   4.355   1.397   1.462 -0.4881 -2.3174  1.4894
 2843TIP3   OH230087   6.226   1.612   2.437  0.1302  0.1884 -0.2583
 2843TIP3    H130088   6.201   1.529   2.396  0.6310 -0.4710  0.7328
 2843TIP3    H230089   6.144   1.661   2.444  0.2061  0.9302 -3.2571
 2844TIP3   OH230090   6.035   4.187   2.684  0.0530  0.7020  0.0829
 2844TIP3    H130091   6.063   4.278   2.688  0.8639  0.5131 -0.7574
 2844TIP3    H230092   5.971   4.184   2.613 -0.6033  0.7672  0.6689
 2845TIP3   OH230093   1.023   4.469   1.057 -0.2693 -0.2811  0.1471
 2845TIP3    H130094   1.040   4.374   1.058  0.0831 -0.2292 -0.3422
 2845TIP3    H230095   1.025   4.494   1.149  0.8904 -0.5437  0.2138
 2846TIP3   OH230096   4.128   6.172   0.227 -0.6178  0.2738 -0.0909
 2846TIP3    H130097   4.131   6.266   0.243 -1.8428  0.6149 -1.6161
 2846TIP3    H230098   4.040   6.156   0.192  0.3683 -1.0389 -2.1575
 2847TIP3   OH230099   2.274   2.806   6.733  0.2954  0.0042  0.0658
 2847TIP3    H130100   2.329   2.884   6.741 -0.3524  0.8645 -2.7180
 2847TIP3    H230101   2.216   2.809   6.809  1.9346  0.8294  1.3393
 2848TIP3   OH230102   2.816   6.391   7.235  0.6059  0.7055  0.1598
 2848TIP3    H130103   2.803   6.438   7.317  1.5203  0.6586  0.3425
 2848TIP3    H230104   2.760   6.436   7.172  0.6580  1.3724  0.5846
 2849TIP3   OH230105   0.543   2.462   7.682 -0.2697  0.2995  0.3532
 2849TIP3    H130106   0.528   2.533   7.620 -0.3589 -1.2136 -1.4604
 2849TIP3    H230107   0.457   2.440   7.716 -0.6791 -0.8516 -1.3407
 2850TIP3   OH230108   4.544   0.732   0.094 -0.3056  0.0707 -0.3567
 2850TIP3    H130109   4.627   0.686   0.077  0.5748  1.5875 -0.3736
 2850TIP3    H230110   4.566   0.824   0.083 -1.6267  0.6173  1.2070
 2851TIP3   OH230111   1.995   0.139   7.573 -0.6216 -0.3163 -0.4893
 2851TIP3    H130112   2.003   0.084   7.494 -0.8141 -1.1829  0.0850
 2851TIP3    H230113   2.081   0.180   7.581 -0.1069 -1.3856 -0.3206
 2852TIP3   OH230114   2.726   3.031   7.595  0.3918  0.2062 -0.2975
 2852TIP3    H130115   2.713   3.079   7.676  0.5542  1.9329 -1.2573
 2852TIP3    H230116   2.724   2.939   7.622  0.3898  0.7215  1.6358
 2853TIP3   OH230117   6.119   1.365   2.738 -0.2059 -0.2110 -0.6438
 2853TIP3    H130118   6.123   1.460   2.744 -0.6179 -0.1284 -1.5090
 2853TIP3    H230119   6.035   1.342   2.779 -0.0410 -0.2175 -0.3064
 2854TIP3   OH230120   4.952   1.819   0.468  0.3718 -0.7118 -0.4332
 2854TIP3    H130121   4.878   1.805   0.526  1.0676  0.0903  0.6714
 2854TIP3    H230122   4.912   1.843   0.384 -0.6276 -1.3456 -0.1561
 2855TIP3   OH230123   2.764   2.500   0.714 -0.2013 -0.1662  0.4969
 2855TIP3    H130124   2.847   2.528   0.751  0.1094 -1.5971  0.9141
 2855TIP3    H230125   2.726   2.442   0.779 -0.2409 -1.7264 -0.8483
 2856TIP3   OH230126   5.683   4.200   2.743 -0.1608 -0.2279  0.9586
 2856TIP3    H130127   5.636   4.204   2.826  1.2067  0.4076  1.7408
 2856TIP3    H230128   5.763   4.152   2.763 -0.5655 -1.5325 -0.4031
 2857TIP3   OH230129   1.046   6.239   2.489  0.3041  0.6430  1.0090
 2857TIP3    H130130   1.116   6.255   2.552  1.5231 -0.2272 -0.0761
 2857TIP3    H230131   1.076   6.164   2.438 -1.9301 -0.4785  1.2174
 2858TIP3   OH230132   0.167   0.010   8.812  0.6922  0.1441  0.0498
 2858TIP3    H130133   0.234  -0.056   8.828  0.7404 -0.1105 -1.0887
 2858TIP3    H230134   0.084  -0.035   8.829  0.7257 -0.2204 -0.7010
 2859TIP3   OH230135   3.158   0.848   8.472  0.2654 -0.3565  0.4463
 2859TIP3    H130136   3.223   0.917   8.485 -1.1960  1.1386  0.1844
 2859TIP3    H230137   3.207   0.767   8.478  2.0707  0.7078  0.6720
 2860TIP3   OH230138   0.362   4.648   1.632 -0.0722 -0.0794 -1.0111
 2860TIP3    H130139   0.352   4.603   1.715  0.3985 -0.5804 -1.2169
 2860TIP3    H230140   0.289   4.710   1.628  1.0058  1.3937  0.6857
 2861TIP3   OH230141   5.871   5.051   0.562  0.2628 -0.4900 -0.0792
 2861TIP3    H130142   5.914   4.977   0.520 -1.5560 -2.0502  0.6406
 2861TIP3    H230143   5.780   5.022   0.573 -0.6817  2.1053 -0.3336
 2862TIP3   OH230144   0.548   3.525   6.993 -0.3110 -0.4817  0.1514
 2862TIP3    H130145   0.504   3.549   7.075  2.1561  0.6887  1.2096
 2862TIP3    H230146   0.476   3.505   6.933 -2.2882  1.3129  1.7643
 2863TIP3   OH230147   5.317   6.458   2.368  0.0639  0.3957 -0.1474
 2863TIP3    H130148   5.345   6.549   2.353  1.7592  0.6140  3.3574
 2863TIP3    H230149   5.376   6.406   2.313  0.6821  1.3179 -0.3816
 2864TIP3   OH230150   0.709   2.702   1.002 -0.6685  0.3371  0.4994
 2864TIP3    H130151   0.770   2.629   1.013 -0.7557  0.2018  0.1040
 2864TIP3    H230152   0.713   2.723   0.909 -0.7527  0.7453  0.5857
 2865TIP3   OH230153   5.022   1.773   0.184  0.0172 -0.3120 -0.1142
 2865TIP3    H130154   5.098   1.741   0.136 -0.6187 -1.8261 -0.1620
 2865TIP3    H230155   5.011   1.863   0.154  2.0304  0.0808  0.2359
 2866TIP3   OH230156   0.542   2.631   0.566  0.1127  0.2390 -0.3378
 2866TIP3    H130157   0.460   2.613   0.612  0.0230 -1.6966 -1.2003
 2866TIP3    H230158   0.600   2.667   0.634 -1.0406  0.5120  0.5376
 2867TIP3   OH230159   2.709   3.476   0.769 -0.2435  0.2883  0.1120
 2867TIP3    H130160   2.780   3.519   0.722  0.6484 -0.4021  0.8125
 2867TIP3    H230161   2.684   3.538   0.838  1.0193 -0.2609  1.0992
 2868TIP3   OH230162   0.762   0.412   2.277  0.1055 -0.5383  0.3671
 2868TIP3    H130163   0.681   0.394   2.228 -1.6943  2.5311  1.8756
 2868TIP3    H230164   0.748   0.372   2.363 -0.2106  0.6228  0.8806
 2869TIP3   OH230165   1.249   4.305   6.884 -0.2879  0.0602  0.4609
 2869TIP3    H130166   1.184   4.251   6.838  0.7062 -0.3888 -0.4437
 2869TIP3    H230167   1.333   4.264   6.863  0.2872  0.5562  1.7266
 2870TIP3   OH230168   0.991   1.936   0.693 -0.2542  0.2870  0.3862
 2870TIP3    H130169   0.938   1.858   0.707  0.5202 -0.3484 -0.1020
 2870TIP3    H230170   1.010   1.969   0.780  0.9845 -1.1703  0.7118
 2871TIP3   OH230171   1.574   3.036   8.030  0.4927 -0.4638 -0.0821
 2871TIP3    H130172   1.639   3.006   7.965  0.4169  0.5206 -0.6421
 2871TIP3    H230173   1.602   2.996   8.112  2.4307  0.7060 -0.0963
 2872TIP3   OH230174   6.754   3.804   1.301  0.2136  0.7628 -0.0446
 2872TIP3    H130175   6.763   3.892   1.264  0.3278  0.8927  0.2899
 2872TIP3    H230176   6.808   3.748   1.245  0.1309  0.9056 -0.2649
 2873TIP3   OH230177   6.208   5.330   1.748  0.4367 -0.1084  0.5363
 2873TIP3    H130178   6.180   5.381   1.672 -0.0948 -0.5818  0.4104
 2873TIP3    H230179   6.294   5.366   1.771  0.5393  0.1307 -0.1981
 2874TIP3   OH230180   4.168   5.293   2.587 -0.3841  0.5279  0.6036
 2874TIP3    H130181   4.192   5.273   2.496 -0.9680 -0.8690  0.7253
 2874TIP3    H230182   4.131   5.381   2.583 -1.8296 -0.0830 -0.8147
 2875TIP3   OH230183   0.452   6.195   0.562 -0.1984 -0.1971  0.0496
 2875TIP3    H130184   0.477   6.109   0.595  1.6238 -0.1231 -1.0386
 2875TIP3    H230185   0.403   6.176   0.482 -0.3250 -0.2236  0.1321
 2876TIP3   OH230186   3.000   3.558   1.372 -0.3818  0.5397 -0.4678
 2876TIP3    H130187   3.079   3.572   1.321  1.9193 -0.2802  2.5836
 2876TIP3    H230188   3.003   3.626   1.440 -1.8687  0.0014  0.1945
 2877TIP3   OH230189   1.290   4.094   0.713 -0.2950  0.0898  0.1048
 2877TIP3    H130190   1.294   4.135   0.626 -0.5935  1.4478  0.7044
 2877TIP3    H230191   1.199   4.069   0.724 -0.5894  1.3459  0.6404
 2878TIP3   OH230192   2.353   0.708   8.360  0.7465  0.0942  0.2384
 2878TIP3    H130193   2.344   0.630   8.416 -0.0783  0.7055  0.9926
 2878TIP3    H230194   2.273   0.709   8.308  0.2347  1.0307  1.0218
 2879TIP3   OH230195   4.673   0.505   2.336 -0.0439 -0.3778  0.2612
 2879TIP3    H130196   4.742   0.553   2.381  0.2950 -0.2794 -0.3555
 2879TIP3    H230197   4.717   0.429   2.299 -0.2530 -0.2809 -0.1876
 2880TIP3   OH230198   0.731   4.229   0.185 -0.4485  0.2876 -0.3798
 2880TIP3    H130199   0.676   4.295   0.227 -0.2111  0.7271 -0.7496
 2880TIP3    H230200   0.674   4.191   0.117 -1.1750 -1.1381  0.9622
 2881TIP3   OH230201   5.447   1.502   8.327  0.3225  0.2119  0.3547
 2881TIP3    H130202   5.414   1.489   8.416  0.5804  1.6118  0.6920
 2881TIP3    H230203   5.526   1.448   8.323 -0.5695 -1.1440  0.4004
 2882TIP3   OH230204   1.344   6.219   8.718 -0.6136 -0.1279 -0.3049
 2882TIP3    H130205   1.392   6.210   8.635 -2.5801 -1.6347 -1.3965
 2882TIP3    H230206   1.311   6.309   8.717  0.1097  0.1421 -0.7183
 2883TIP3   OH230207   5.324   4.547   2.844 -0.3724 -0.8035  0.4853
 2883TIP3    H130208   5.410   4.552   2.886  0.4980 -1.6715 -1.1165
 2883TIP3    H230209   5.309   4.635   2.810  0.2066 -0.8163  0.1778
 2884TIP3   OH230210   1.382   6.198   8.417  0.1669  0.1014  0.1371
 2884TIP3    H130211   1.287   6.185   8.411  0.0730  0.7785  0.0685
 2884TIP3    H230212   1.394   6.292   8.406  1.0273 -0.2215 -2.0591
 2885TIP3   OH230213   6.460   4.969   8.484 -0.6354  0.1612 -0.1921
 2885TIP3    H130214   6.536   4.913   8.500 -0.9370  0.1704  1.5575
 2885TIP3    H230215   6.402   4.916   8.431 -0.2555 -0.6167  0.1478
 2886TIP3   OH230216   3.201   0.824   0.500  0.1985  0.4435 -0.5243
 2886TIP3    H130217   3.263   0.752   0.490  0.5715  0.7035 -0.0892
 2886TIP3    H230218   3.183   0.828   0.594  0.5027  1.1873 -0.4934
 2887TIP3   OH230219   3.628   0.544   2.244 -0.5228 -0.1904 -0.2947
 2887TIP3    H130220   3.559   0.479   2.226 -0.2210 -0.3101 -1.0781
 2887TIP3    H230221   3.668   0.515   2.326  1.3540 -2.5676 -1.9065
 2888TIP3   OH230222   1.760   2.934   7.853 -0.0429  0.0212  0.8116
 2888TIP3    H130223   1.748   2.979   7.769 -3.0749  0.6872  1.4658
 2888TIP3    H230224   1.809   2.997   7.907 -0.5651  0.8032  0.3966
 2889TIP3   OH230225   3.320   3.196   1.186  0.0800  0.3937 -0.4488
 2889TIP3    H130226   3.310   3.102   1.203 -1.1002  0.7158  0.7646
 2889TIP3    H230227   3.233   3.232   1.199  0.4923  1.6556 -1.0391
 2890TIP3   OH230228   4.421   2.757   8.193 -0.2499  0.3316 -0.1615
 2890TIP3    H130229   4.497   2.806   8.225  1.5950 -1.9116 -0.8145
 2890TIP3    H230230   4.409   2.786   8.103  0.0633  0.4548 -0.1631
 2891TIP3   OH230231   3.499   6.525   2.460  0.0539  0.0136  0.0977
 2891TIP3    H130232   3.510   6.492   2.549  0.7422  0.7723  0.3085
 2891TIP3    H230233   3.451   6.607   2.470 -1.4930 -0.7914 -0.4069
 2892TIP3   OH230234   4.561   1.612   0.519  0.5424  0.0339 -0.5281
 2892TIP3    H130235   4.588   1.614   0.427  1.7649  0.0225 -0.1777
 2892TIP3    H230236   4.583   1.699   0.552  0.4946 -0.1040 -0.1341
 2893TIP3   OH230237   4.475   0.218   1.070 -0.2787 -0.1461  0.4537
 2893TIP3    H130238   4.517   0.300   1.094 -1.0027 -0.0026  1.3044
 2893TIP3    H230239   4.406   0.206   1.135 -0.3787 -1.2852  0.1719
 2894TIP3   OH230240   2.745   0.684   6.930 -0.3535  1.0769  0.0509
 2894TIP3    H130241   2.699   0.764   6.952 -0.6715  1.2728 -1.2294
 2894TIP3    H230242   2.773   0.697   6.839  0.5267  0.1715  0.1710
 2895TIP3   OH230243   4.147   2.057   0.742  0.5809  0.2806  0.2407
 2895TIP3    H130244   4.059   2.019   0.743  0.7910 -0.2230  0.1512
 2895TIP3    H230245   4.165   2.078   0.834 -0.3504  2.1295  0.0533
 2896TIP3   OH230246   5.878   2.435   7.152 -0.1726  0.2397  0.2215
 2896TIP3    H130247   5.785   2.434   7.130 -1.3571  0.0011  4.4838
 2896TIP3    H230248   5.910   2.349   7.124 -1.9441 -0.7682  1.1341
 2897TIP3   OH230249   6.310   2.150   7.813 -0.0414 -0.2491 -0.6251
 2897TIP3    H130250   6.250   2.082   7.843  0.7680  0.2076  2.4086
 2897TIP3    H230251   6.378   2.153   7.880 -0.0063  3.4905 -0.6136
 2898TIP3   OH230252   2.925   0.252   0.479  0.0726  0.3732  0.2624
 2898TIP3    H130253   2.925   0.190   0.406  0.2066 -0.8826  1.2789
 2898TIP3    H230254   3.017   0.275   0.490  0.1864 -0.2362  0.6592
 2899TIP3   OH230255   3.138   6.678   0.787 -0.0361 -0.1173  0.2135
 2899TIP3    H130256   3.172   6.753   0.737  0.8343 -0.1134  0.7884
 2899TIP3    H230257   3.139   6.606   0.724  0.0117  0.1321 -0.0801
 2900TIP3   OH230258   6.434   5.286   8.233 -0.3903 -0.2129  0.1775
 2900TIP3    H130259   6.459   5.356   8.294 -1.6907  0.5139 -0.0764
 2900TIP3    H230260   6.373   5.232   8.284  1.3852 -1.8006  0.7098
 2901TIP3   OH230261   3.460   3.464   1.145 -0.4408  0.1831  0.5259
 2901TIP3    H130262   3.432   3.378   1.177  0.7595 -0.7047 -0.6928
 2901TIP3    H230263   3.530   3.490   1.206  1.1697 -1.0614 -0.6898
 2902TIP3   OH230264   2.087   1.533   0.830  0.1828 -0.0150 -0.0581
 2902TIP3    H130265   2.167   1.484   0.810  0.7861  0.8628  0.1652
 2902TIP3    H230266   2.017   1.481   0.791  1.1148  0.6637 -2.8371
 2903TIP3   OH230267   4.227   2.886   7.747 -0.0494 -0.1292  0.4878
 2903TIP3    H130268   4.222   2.980   7.767 -2.2589  0.1600 -1.0986
 2903TIP3    H230269   4.146   2.850   7.782 -0.0714 -1.1063 -0.5335
 2904TIP3   OH230270   3.619   5.789   2.112  0.1093 -0.4367 -0.3021
 2904TIP3    H130271   3.555   5.807   2.043  0.1370 -0.1089 -0.2418
 2904TIP3    H230272   3.704   5.808   2.072  0.1213 -0.1906 -0.1593
 2905TIP3   OH230273   1.460   1.719   1.303 -0.3149  0.1624 -0.0327
 2905TIP3    H130274   1.506   1.799   1.327 -0.3347  0.9031 -2.2722
 2905TIP3    H230275   1.381   1.750   1.257 -0.0228 -1.0989 -1.4660
 2906TIP3   OH230276   3.251   2.992   8.091  0.3410  0.1098 -0.2545
 2906TIP3    H130277   3.293   2.955   8.015 -0.7302  0.1988 -0.9184
 2906TIP3    H230278   3.281   2.939   8.165 -0.6977 -1.7129 -1.0954
 2907TIP3   OH230279   4.422   4.634   8.136  0.3563 -0.2393 -0.1312
 2907TIP3    H130280   4.505   4.666   8.102  0.6778 -1.8652 -0.9797
 2907TIP3    H230281   4.355   4.689   8.095  0.9777  0.7201  0.1337
 2908TIP3   OH230282   1.485   1.195   2.727 -0.1011  0.2130 -0.4161
 2908TIP3    H130283   1.512   1.254   2.657  0.1881  0.5692 -0.0064
 2908TIP3    H230284   1.560   1.137   2.739 -0.2534 -0.0198 -0.5831
 2909TIP3   OH230285   6.484   4.136   7.409  0.2117 -0.7216 -0.0381
 2909TIP3    H130286   6.414   4.073   7.389 -0.7286  0.0628  0.6780
 2909TIP3    H230287   6.487   4.138   7.505  0.4543  0.0761 -0.0555
 2910TIP3   OH230288   1.998   1.968   0.840  0.4983 -0.2378  0.2900
 2910TIP3    H130289   2.024   1.894   0.894  0.4691  0.1148  0.7884
 2910TIP3    H230290   1.985   1.931   0.753  1.2560 -0.6781  0.3605
 2911TIP3   OH230291   3.399   5.984   1.535  0.1925  0.2043 -0.2335
 2911TIP3    H130292   3.309   5.973   1.567 -0.0444 -0.7336 -1.1546
 2911TIP3    H230293   3.453   5.944   1.603 -0.3620 -2.5920 -1.2766
 2912TIP3   OH230294   3.128   0.477   1.305 -0.5508 -0.3686 -0.1081
 2912TIP3    H130295   3.060   0.531   1.263 -2.3483 -2.8976 -0.6668
 2912TIP3    H230296   3.086   0.445   1.385  0.4729 -0.9561  0.2084
 2913TIP3   OH230297   2.779   5.522   0.272 -0.4174 -0.2950  0.2399
 2913TIP3    H130298   2.792   5.438   0.227  0.8587  0.3082 -0.5926
 2913TIP3    H230299   2.706   5.563   0.226  1.0727  0.4559 -1.6151
 2914TIP3   OH230300   2.951   5.753   7.428 -0.3254  0.4467  0.3371
 2914TIP3    H130301   2.929   5.720   7.341 -1.4876 -0.2545  0.8773
 2914TIP3    H230302   2.909   5.839   7.432 -1.0817  0.0810  0.5289
 2915TIP3   OH230303   2.880   5.585   1.080 -0.5335  0.4459  0.1445
 2915TIP3    H130304   2.801   5.561   1.128 -0.1339 -2.2405 -0.4001
 2915TIP3    H230305   2.868   5.677   1.058 -3.5583  0.0966 -0.0214
 2916TIP3   OH230306   5.596   0.177   1.122 -0.1920  0.5662 -0.2931
 2916TIP3    H130307   5.629   0.168   1.211 -1.6294 -1.3825  0.1192
 2916TIP3    H230308   5.603   0.271   1.103 -0.5321  1.1595  2.1507
 2917TIP3   OH230309   2.993   3.323   7.258 -0.1710  0.6107 -0.9473
 2917TIP3    H130310   2.942   3.398   7.228 -0.6602  0.4469 -0.5433
 2917TIP3    H230311   2.931   3.272   7.310 -0.4938 -1.1990 -2.9484
 2918TIP3   OH230312   1.343   4.257   0.200 -0.2927  0.2509 -0.0138
 2918TIP3    H130313   1.266   4.310   0.222  0.1214  0.7980  0.1140
 2918TIP3    H230314   1.369   4.287   0.114  0.3419  0.7202  0.3393
 2919TIP3   OH230315   0.381   2.012   6.840  0.3739 -0.0324  0.0131
 2919TIP3    H130316   0.303   1.980   6.885  0.3107  2.3395  1.8285
 2919TIP3    H230317   0.450   1.949   6.862 -0.6817 -1.4136 -0.4920
 2920TIP3   OH230318   4.408   3.406   1.469  0.3723 -0.0069  0.3890
 2920TIP3    H130319   4.398   3.434   1.378  1.0799  0.7533  0.5382
 2920TIP3    H230320   4.374   3.317   1.470  0.3590 -0.0247 -0.6201
 2921TIP3   OH230321   0.533   6.572   7.742  0.0269  0.0650 -0.2632
 2921TIP3    H130322   0.447   6.537   7.718  0.4218  0.3369 -2.2688
 2921TIP3    H230323   0.529   6.664   7.713  1.0535  0.0137 -0.5942
 2922TIP3   OH230324   2.645   5.617   1.219 -0.6531  0.2374 -0.1319
 2922TIP3    H130325   2.616   5.558   1.290 -0.5565  0.4854  0.1126
 2922TIP3    H230326   2.661   5.701   1.262  1.4922 -0.1547 -0.0563
 2923TIP3   OH230327   2.261   0.769   1.490 -0.7743  0.7870  0.2342
 2923TIP3    H130328   2.323   0.745   1.421 -1.6003  1.2472 -0.7136
 2923TIP3    H230329   2.300   0.846   1.532 -0.9665  1.4507 -0.7606
 2924TIP3   OH230330   6.076   1.943   6.550  0.0769 -0.8107  0.0581
 2924TIP3    H130331   6.071   1.880   6.622  1.6071 -1.2854 -0.2149
 2924TIP3    H230332   6.139   2.008   6.580  0.4376 -0.8104 -0.6852
 2925TIP3   OH230333   6.728   6.053   7.359 -0.4742  0.3771 -0.0244
 2925TIP3    H130334   6.711   5.977   7.303  1.4686 -0.0137 -0.1481
 2925TIP3    H230335   6.663   6.118   7.330 -1.6924 -0.9461 -0.4227
 2926TIP3   OH230336   2.594   2.340   0.099 -0.2332 -0.9052  0.0612
 2926TIP3    H130337   2.526   2.274   0.092 -0.3471 -0.8474  0.5377
 2926TIP3    H230338   2.603   2.354   0.194 -1.2468  0.8311 -0.0678
 2927TIP3   OH230339   5.146   3.525   2.280 -0.6126  0.0066  0.3096
 2927TIP3    H130340   5.060   3.512   2.239  0.6399 -0.8881 -2.2457
 2927TIP3    H230341   5.136   3.488   2.368 -2.8016 -0.1665  0.0491
 2928TIP3   OH230342   0.032   6.378   2.357  0.4900  0.6514  0.1147
 2928TIP3    H130343  -0.002   6.418   2.437  0.9750  0.6429  0.3321
 2928TIP3    H230344   0.122   6.355   2.379  0.1363 -0.8354  0.1002
 2929TIP3   OH230345   0.012   6.453   2.084  0.4101 -0.1994  0.2035
 2929TIP3    H130346  -0.019   6.448   2.175 -1.1260  1.3852 -0.1784
 2929TIP3    H230347   0.075   6.525   2.084  1.3611 -1.0094  0.2311
 2930TIP3   OH230348   6.748   3.188   7.924 -0.2632  0.3844  0.1001
 2930TIP3    H130349   6.727   3.096   7.941 -0.3732  0.6654  1.6922
 2930TIP3    H230350   6.665   3.234   7.935 -0.1765  0.6972 -0.5252
 2931TIP3   OH230351   5.914   1.397   7.897 -0.5161  0.0805 -0.2055
 2931TIP3    H130352   5.889   1.354   7.816 -2.1884 -0.8620  0.7628
 2931TIP3    H230353   5.832   1.421   7.939  0.3293  1.6510  0.6748
 2932TIP3   OH230354   2.030   4.626   1.998  0.0807 -0.1148 -0.1299
 2932TIP3    H130355   2.085   4.575   2.058  0.3391  0.4782  0.1437
 2932TIP3    H230356   2.029   4.714   2.035 -0.6069  0.0128 -0.4365
 2933TIP3   OH230357   5.484   4.168   1.949  0.0376  0.2141  0.3014
 2933TIP3    H130358   5.515   4.246   1.902  0.5387  0.2936  0.7502
 2933TIP3    H230359   5.553   4.103   1.935  0.7493  0.5845  1.8169
 2934TIP3   OH230360   6.604   4.846   1.510  0.9063  0.3355 -0.2690
 2934TIP3    H130361   6.676   4.897   1.473  0.4815 -0.0354 -1.6968
 2934TIP3    H230362   6.572   4.899   1.583  0.5032  2.1568 -1.6864
 2935TIP3   OH230363   6.777   3.179   0.551  0.1982 -0.3142 -0.2087
 2935TIP3    H130364   6.871   3.164   0.560  0.1061  0.1497  1.9235
 2935TIP3    H230365   6.738   3.091   0.556  0.3956 -0.3424  1.1003
 2936TIP3   OH230366   1.448   4.977   1.650  0.5915 -0.4752  0.5682
 2936TIP3    H130367   1.427   5.044   1.585  1.8198  0.4376  1.0601
 2936TIP3    H230368   1.494   4.909   1.600 -0.1920 -0.7093  0.1556
 2937TIP3   OH230369   0.329   0.329   0.958  0.6882 -0.0021  1.0498
 2937TIP3    H130370   0.278   0.251   0.977  0.5064  0.3760  2.1773
 2937TIP3    H230371   0.415   0.296   0.934  0.5204 -0.5649  1.2102
 2938TIP3   OH230372   1.076   3.408   8.266 -0.1089 -0.6303 -0.3657
 2938TIP3    H130373   1.059   3.450   8.182 -0.3228  0.7497  0.3395
 2938TIP3    H230374   1.161   3.443   8.293 -0.6754  0.0237  0.6187
 2939TIP3   OH230375   0.005   5.423   7.782  0.0070  0.4681 -0.3543
 2939TIP3    H130376  -0.021   5.382   7.699  1.4477 -3.5106  0.9363
 2939TIP3    H230377   0.095   5.452   7.767 -0.2513  1.1906 -0.5789
 2940TIP3   OH230378   5.647   1.302   0.662 -0.2164 -0.6119  0.1492
 2940TIP3    H130379   5.692   1.315   0.579 -0.9103 -0.2693 -0.1847
 2940TIP3    H230380   5.618   1.210   0.658 -1.0226 -0.3455 -0.3909
 2941TIP3   OH230381   4.234   3.169   1.210 -0.1260  0.2520  0.7534
 2941TIP3    H130382   4.244   3.197   1.301  0.4467  0.1238  0.7320
 2941TIP3    H230383   4.276   3.083   1.207  0.8903  0.7586  0.1058
 2942TIP3   OH230384   1.533   2.999   0.746  0.4617  0.6430 -0.3998
 2942TIP3    H130385   1.471   3.059   0.787 -1.8373 -0.3749 -2.1689
 2942TIP3    H230386   1.584   3.055   0.686 -2.4295  0.8480 -2.8984
 2943TIP3   OH230387   0.398   5.046   1.502  0.0982 -0.5847  0.0375
 2943TIP3    H130388   0.328   5.007   1.554  1.2059 -2.0782  0.4636
 2943TIP3    H230389   0.421   4.978   1.439 -1.9036  1.4903 -3.2379
 2944TIP3   OH230390   3.461   4.123   1.376 -0.0481 -0.2278  0.2454
 2944TIP3    H130391   3.489   4.185   1.443 -0.0288 -1.8658  1.8447
 2944TIP3    H230392   3.441   4.177   1.299 -0.5628  1.7734  1.7139
 2945TIP3   OH230393   6.144   5.160   8.338  0.4266  0.1181 -0.2324
 2945TIP3    H130394   6.135   5.103   8.414 -1.1065  0.8455  0.1764
 2945TIP3    H230395   6.104   5.242   8.364 -0.5135  0.2585 -1.9407
 2946TIP3   OH230396   2.533   5.018   1.235 -0.5081  0.0512 -0.6577
 2946TIP3    H130397   2.439   5.007   1.248 -0.1120 -2.2075  1.0422
 2946TIP3    H230398   2.558   4.948   1.175  0.0334  0.9904 -1.5601
 2947TIP3   OH230399   0.212   0.989   7.147 -0.4717 -0.2045 -0.4076
 2947TIP3    H130400   0.289   1.006   7.201 -0.6084  0.1270 -0.3124
 2947TIP3    H230401   0.245   0.938   7.073  0.0548  0.8987 -0.9531
 2948TIP3   OH230402   4.618   2.639   0.076 -0.0744 -0.0237  0.0599
 2948TIP3    H130403   4.663   2.724   0.082 -0.1445  0.3820 -3.2165
 2948TIP3    H230404   4.526   2.660   0.088 -0.1361  0.4768 -1.1803
 2949TIP3   OH230405   5.157   5.875   8.841  0.5812 -0.0781 -0.6211
 2949TIP3    H130406   5.245   5.907   8.857  0.0970  1.4827 -0.8756
 2949TIP3    H230407   5.157   5.851   8.748 -0.3214  3.9644 -1.8808
 2950TIP3   OH230408   0.389   5.454   7.452 -0.5599  0.2722  0.4868
 2950TIP3    H130409   0.366   5.409   7.534 -0.7163  1.2822  1.0082
 2950TIP3    H230410   0.446   5.392   7.406  1.0265  0.4144  2.1837
 2951TIP3   OH230411   6.510   3.930   1.058 -0.1318  0.3665 -0.0839
 2951TIP3    H130412   6.534   3.940   0.966 -1.5897 -0.9379 -0.6563
 2951TIP3    H230413   6.550   3.847   1.085 -0.0124  0.5635  0.3580
 2952TIP3   OH230414   3.947   5.327   0.327  0.6656  0.3279  0.3604
 2952TIP3    H130415   3.880   5.391   0.304  1.7078  1.0331 -0.8097
 2952TIP3    H230416   3.936   5.257   0.263  0.2742 -0.1250  0.9192
 2953TIP3   OH230417   5.604   0.441   7.742  0.0063  0.3855  0.3521
 2953TIP3    H130418   5.601   0.374   7.673  2.5767  0.2750  0.2540
 2953TIP3    H230419   5.566   0.519   7.702  0.3884 -0.0018 -0.7970
 2954TIP3   OH230420   6.064   5.020   8.569 -0.0510 -0.1317 -0.2259
 2954TIP3    H130421   5.988   4.962   8.563 -0.5165  0.1773  1.8399
 2954TIP3    H230422   6.028   5.102   8.605  0.9714  0.6408 -0.9059
 2955TIP3   OH230423   3.874   5.457   7.899 -0.3137  0.0831  0.6586
 2955TIP3    H130424   3.915   5.399   7.835 -1.1687  0.4865 -0.2922
 2955TIP3    H230425   3.802   5.405   7.936 -1.0426  0.4839 -0.1503
 2956TIP3   OH230426   0.572   4.253   8.148 -0.0917 -0.1521  0.3418
 2956TIP3    H130427   0.533   4.341   8.142 -0.3163 -0.2608 -4.6981
 2956TIP3    H230428   0.663   4.266   8.122  0.4374 -1.2366  1.5612
 2957TIP3   OH230429   2.162   3.509   8.392  0.2801  0.3833 -0.5007
 2957TIP3    H130430   2.090   3.570   8.411 -0.2387 -0.3469 -0.0805
 2957TIP3    H230431   2.132   3.462   8.314  0.3412  0.1375 -0.3746
 2958TIP3   OH230432   0.081   2.094   0.221  0.7263  0.0323  0.0798
 2958TIP3    H130433   0.036   2.019   0.184  2.1222 -1.4052  1.1857
 2958TIP3    H230434   0.025   2.124   0.292  0.7464 -0.7389  0.4233
 2959TIP3   OH230435   5.872   2.689   7.738  0.1911  0.4592  0.0962
 2959TIP3    H130436   5.831   2.690   7.652  0.0047 -0.6407  0.1563
 2959TIP3    H230437   5.897   2.597   7.752  1.5808  0.8957  0.5762
 2960TIP3   OH230438   4.116   4.049   1.404 -0.5480  0.0214 -0.0233
 2960TIP3    H130439   4.160   4.048   1.320 -2.3923  0.9948 -1.0600
 2960TIP3    H230440   4.184   4.076   1.466  1.2324 -2.1287 -0.8722
 2961TIP3   OH230441   1.687   2.292   0.239 -0.1877 -0.1481  0.0244
 2961TIP3    H130442   1.720   2.202   0.236 -1.5293 -0.6349 -0.6362
 2961TIP3    H230443   1.592   2.283   0.237 -0.3327  1.3119 -1.2611
 2962TIP3   OH230444   5.721   0.816   0.555  0.1195  1.2358  0.3473
 2962TIP3    H130445   5.715   0.881   0.625  0.7039  1.2291  0.4037
 2962TIP3    H230446   5.715   0.732   0.599  1.6920  1.1907  0.5469
 2963TIP3   OH230447   0.587   6.579   1.189  0.9096  0.0084  0.3277
 2963TIP3    H130448   0.635   6.660   1.173 -1.3941  0.8215 -3.9300
 2963TIP3    H230449   0.636   6.512   1.140  0.4321 -0.2163  0.1476
 2964TIP3   OH230450   1.893   4.074   1.700 -0.4450  0.5345 -0.1834
 2964TIP3    H130451   1.892   4.165   1.730  0.5132  1.0386 -1.5642
 2964TIP3    H230452   1.925   4.024   1.775 -0.4842  1.4084  0.4254
 2965TIP3   OH230453   5.476   4.474   2.311 -0.1498 -0.5198  0.1470
 2965TIP3    H130454   5.453   4.510   2.397 -2.4277 -1.3663 -0.0379
 2965TIP3    H230455   5.546   4.411   2.329 -1.6985 -1.9206  1.6990
 2966TIP3   OH230456   2.801   6.364   1.294  0.3731  0.1875  0.4921
 2966TIP3    H130457   2.834   6.454   1.284 -0.4714  0.6623  1.7816
 2966TIP3    H230458   2.846   6.330   1.371  0.5289 -0.4451  0.1319
 2967TIP3   OH230459   0.834   6.622   0.629 -0.6734  0.1836  0.5407
 2967TIP3    H130460   0.786   6.590   0.553 -1.8380 -0.7674  1.6448
 2967TIP3    H230461   0.915   6.571   0.629 -1.3059 -0.8568  0.7292
 2968TIP3   OH230462   2.329   5.463   0.164 -0.5675 -0.2309 -0.2259
 2968TIP3    H130463   2.384   5.538   0.138 -1.4291  0.5343  0.1142
 2968TIP3    H230464   2.343   5.454   0.258  1.3828 -2.0510 -0.6115
 2969TIP3   OH230465   0.478   4.135   7.416 -0.3716 -0.7542 -0.1387
 2969TIP3    H130466   0.489   4.225   7.447  0.1377 -1.6511  2.5540
 2969TIP3    H230467   0.406   4.140   7.353 -0.3632  1.5092 -0.0547
 2970TIP3   OH230468   0.084   2.605   8.130 -0.7217  0.2538  0.3222
 2970TIP3    H130469   0.156   2.651   8.174 -0.5584 -0.1682  0.5028
 2970TIP3    H230470   0.113   2.514   8.127 -0.9423  0.2012 -0.2395
 2971TIP3   OH230471   5.519   1.706   8.610  0.4990 -0.2943  0.3465
 2971TIP3    H130472   5.514   1.769   8.682  0.2967  0.6655 -0.4891
 2971TIP3    H230473   5.586   1.742   8.551 -1.3075  0.4561 -1.3580
 2972TIP3   OH230474   2.431   4.467   0.718  0.2568  0.4729  0.4380
 2972TIP3    H130475   2.381   4.537   0.676 -1.1651 -0.3653  0.6986
 2972TIP3    H230476   2.458   4.505   0.802 -0.4831  0.7193  0.5675
 2973TIP3   OH230477   1.697   0.099   1.008  0.0185  0.5719  0.0737
 2973TIP3    H130478   1.736   0.078   0.924 -0.1605  0.0208  0.1238
 2973TIP3    H230479   1.659   0.016   1.038  1.6198  0.3078  1.5122
 2974TIP3   OH230480   3.186   1.276   1.132  0.0282  0.0053 -0.2533
 2974TIP3    H130481   3.194   1.229   1.215 -0.2445 -0.8228 -0.6953
 2974TIP3    H230482   3.271   1.320   1.122  1.0508 -1.9665 -0.7794
 2975TIP3   OH230483   0.235   3.989   0.697 -0.0335 -0.3118 -0.0976
 2975TIP3    H130484   0.189   3.982   0.780 -2.4490 -0.6306 -1.3615
 2975TIP3    H230485   0.233   4.082   0.675 -1.1551 -0.4512 -0.6706
 2976TIP3   OH230486   2.405   0.092   0.889  0.1217 -0.2549 -0.4506
 2976TIP3    H130487   2.471   0.096   0.820  0.8815  0.1382  0.2945
 2976TIP3    H230488   2.451   0.118   0.969 -0.7477 -0.6974  0.2122
 2977TIP3   OH230489   3.924   2.718   0.308 -0.0753  0.0810 -0.4490
 2977TIP3    H130490   3.885   2.779   0.244  1.4102 -0.0044 -1.4826
 2977TIP3    H230491   3.853   2.656   0.328 -0.7490  0.4523 -1.5878
 2978TIP3   OH230492   0.064   5.043   8.531 -0.4825  0.3779  0.2826
 2978TIP3    H130493   0.034   4.989   8.458  0.4874 -0.8023  0.7182
 2978TIP3    H230494   0.049   5.133   8.503  0.2736 -0.0306 -1.5578
 2979TIP3   OH230495   0.330   2.730   7.911  0.3792 -0.0324  0.6525
 2979TIP3    H130496   0.421   2.707   7.893 -0.2583 -1.6792 -0.7372
 2979TIP3    H230497   0.310   2.684   7.993 -0.5571 -4.0024 -1.5345
 2980TIP3   OH230498   2.186   5.014   1.836  0.2781  0.1516  0.1239
 2980TIP3    H130499   2.270   5.053   1.858  0.5046 -0.3670  0.1949
 2980TIP3    H230500   2.160   4.966   1.915  0.9769 -1.5182 -0.6223
 2981TIP3   OH230501   0.111   3.753   7.688  0.0893  0.2496  0.4299
 2981TIP3    H130502   0.109   3.723   7.597 -1.3381 -1.6072  1.0053
 2981TIP3    H230503   0.189   3.711   7.725 -0.7797 -1.2124  0.6949
 2982TIP3   OH230504   2.552   6.478   1.593 -0.6591 -0.6282 -0.0700
 2982TIP3    H130505   2.581   6.463   1.683 -0.0173  1.7569  0.1667
 2982TIP3    H230506   2.623   6.528   1.552 -1.6638 -0.2266 -1.4097
 2983TIP3   OH230507   0.977   2.581   1.922 -0.5384  0.1200 -0.3971
 2983TIP3    H130508   1.030   2.615   1.850  1.4406 -0.2353  0.8117
 2983TIP3    H230509   1.036   2.584   1.998 -2.0201 -1.0563  0.8549
 2984TIP3   OH230510   2.712   2.327   1.339 -0.4497  0.5425  0.1575
 2984TIP3    H130511   2.744   2.398   1.284 -0.7733  2.2842  2.0950
 2984TIP3    H230512   2.776   2.257   1.327  0.0110  1.2045 -1.6240
 2985TIP3   OH230513   3.797   4.704   3.038 -0.2944  0.1738 -0.0424
 2985TIP3    H130514   3.712   4.661   3.025 -0.2860  0.3743 -0.8328
 2985TIP3    H230515   3.774   4.796   3.052 -0.1066  0.9355 -3.7790
 2986TIP3   OH230516   5.330   0.139   1.148  0.6834  0.3844 -0.1751
 2986TIP3    H130517   5.421   0.154   1.124  1.2204  0.2546  1.6324
 2986TIP3    H230518   5.334   0.098   1.235 -1.0585 -0.6896 -0.5417
 2987TIP3   OH230519   5.573   5.235   2.324 -0.5415 -0.4188  0.4708
 2987TIP3    H130520   5.532   5.233   2.237  0.4460  2.1960 -0.1329
 2987TIP3    H230521   5.503   5.261   2.383 -0.3742  1.8109 -0.2178
 2988TIP3   OH230522   4.216   0.839   8.161  0.1054  0.4660 -0.0014
 2988TIP3    H130523   4.176   0.922   8.135 -0.8186  0.1034  0.2032
 2988TIP3    H230524   4.216   0.787   8.080 -2.1620 -0.4219  0.4750
 2989TIP3   OH230525   6.671   2.270   2.513 -0.4026  0.3202 -0.1422
 2989TIP3    H130526   6.747   2.321   2.484 -0.5910  1.1378  0.7478
 2989TIP3    H230527   6.619   2.332   2.564 -1.1057 -0.5255  0.1865
 2990TIP3   OH230528   2.561   5.050   2.414 -0.0693  0.4925  0.1359
 2990TIP3    H130529   2.602   4.967   2.438 -0.3634  0.5060  0.7024
 2990TIP3    H230530   2.620   5.088   2.348  0.4279  0.1558  0.3790
 2991TIP3   OH230531   4.253   5.315   7.387  0.2261  0.0224  0.4268
 2991TIP3    H130532   4.162   5.342   7.401  0.4905  0.5763  1.1036
 2991TIP3    H230533   4.252   5.272   7.301 -0.5158  0.7740  0.0401
 2992TIP3   OH230534   2.650   2.226   7.961  0.3151 -0.1476 -0.4301
 2992TIP3    H130535   2.688   2.269   7.884  0.8936 -1.7468 -1.1040
 2992TIP3    H230536   2.708   2.251   8.033  1.0350 -0.3308 -0.9302
 2993TIP3   OH230537   1.269   5.741   0.516  0.2233  0.2926 -0.1134
 2993TIP3    H130538   1.198   5.803   0.501  1.1610  1.2253 -0.9350
 2993TIP3    H230539   1.248   5.667   0.459 -0.4134  0.2778  0.1327
 2994TIP3   OH230540   5.300   1.423   1.876  0.4897  0.0992  0.2208
 2994TIP3    H130541   5.329   1.493   1.818 -2.3099  0.9405 -0.2901
 2994TIP3    H230542   5.270   1.467   1.955 -3.7421 -0.0627 -1.0780
 2995TIP3   OH230543   5.542   1.966   3.032  0.0094 -0.0942 -0.3351
 2995TIP3    H130544   5.481   1.915   2.979 -0.0797  0.2803 -0.5992
 2995TIP3    H230545   5.505   1.966   3.120 -1.2818  1.5325 -0.8250
 2996TIP3   OH230546   4.754   2.284   2.715  0.1620 -0.0643  0.0335
 2996TIP3    H130547   4.718   2.365   2.750 -2.0515 -1.1219  0.3952
 2996TIP3    H230548   4.778   2.233   2.792  0.6522 -0.1493 -0.1695
 2997TIP3   OH230549   2.775   5.448   1.803  0.1540  0.0644  0.8776
 2997TIP3    H130550   2.743   5.437   1.893  2.4035 -0.2014  1.7033
 2997TIP3    H230551   2.825   5.529   1.805  0.0305  0.1796 -0.2263
 2998TIP3   OH230552   1.130   4.553   2.158 -0.2211  0.5866 -0.5866
 2998TIP3    H130553   1.176   4.625   2.202  0.8091  1.1974 -2.5132
 2998TIP3    H230554   1.198   4.487   2.144 -1.0222 -0.5318  0.6099
 2999TIP3   OH230555   0.237   1.200   7.996 -0.1789 -0.0133 -0.4467
 2999TIP3    H130556   0.212   1.293   7.996 -1.4569 -0.3109 -2.4245
 2999TIP3    H230557   0.333   1.202   7.994 -0.1655  1.2417  0.1368
 3000TIP3   OH230558   5.224   0.779   0.262 -0.6251  0.4738  0.4103
 3000TIP3    H130559   5.282   0.779   0.338 -0.5610  0.1232  0.3621
 3000TIP3    H230560   5.137   0.759   0.299 -0.4576 -0.5156  0.2928
 3001TIP3   OH230561   2.295   6.554   0.367 -0.7309  0.0633  0.1670
 3001TIP3    H130562   2.384   6.518   0.373 -0.6654  0.0768 -0.5758
 3001TIP3    H230563   2.275   6.552   0.273 -2.2278 -1.6598  0.4728
 3002TIP3   OH230564   0.894   6.717   1.369  0.5623 -0.0065  0.6364
 3002TIP3    H130565   0.891   6.678   1.457 -0.8720  0.7607  0.9586
 3002TIP3    H230566   0.959   6.665   1.322 -0.6013 -2.2046  1.3323
 3003TIP3   OH230567   6.351   6.458   2.471  0.3772  0.4338  0.3867
 3003TIP3    H130568   6.293   6.387   2.499  1.6016  0.0079  1.9727
 3003TIP3    H230569   6.297   6.537   2.478 -0.4853 -0.1160  0.2371
 3004TIP3   OH230570   3.048   5.076   2.363 -0.4785  0.0961 -0.1792
 3004TIP3    H130571   3.103   5.014   2.410  2.9905  0.5249 -3.1615
 3004TIP3    H230572   2.988   5.021   2.312 -1.1650 -0.4918  1.2100
 3005TIP3   OH230573   3.981   4.398   0.160 -0.7931 -0.0317 -0.0279
 3005TIP3    H130574   3.893   4.402   0.123 -1.0990 -2.9377  0.1484
 3005TIP3    H230575   4.026   4.331   0.108  0.5111 -0.3972  1.4846
 3006TIP3   OH230576   6.633   6.160   7.765 -0.0427 -0.1689 -0.4003
 3006TIP3    H130577   6.569   6.227   7.788  1.1774  1.4083 -1.4211
 3006TIP3    H230578   6.706   6.208   7.725  1.9573 -1.8409  1.0071
 3007TIP3   OH230579   1.228   3.548   0.772 -0.0023 -0.3415  0.0978
 3007TIP3    H130580   1.284   3.611   0.818 -0.5885 -0.7416  1.4099
 3007TIP3    H230581   1.180   3.503   0.842 -0.8736 -1.0351 -0.9131
 3008TIP3   OH230582   3.619   3.153   8.565  0.2223 -0.5512 -0.0822
 3008TIP3    H130583   3.620   3.165   8.660 -0.5243  0.9337 -0.2307
 3008TIP3    H230584   3.696   3.203   8.534  0.4548 -1.0166 -0.2576
 3009TIP3   OH230585   4.875   1.378   1.586 -0.6941  0.1115 -0.1036
 3009TIP3    H130586   4.823   1.384   1.506  0.8074 -1.4706 -1.2818
 3009TIP3    H230587   4.914   1.465   1.595 -0.5994  0.2213 -1.3299
 3010TIP3   OH230588   3.130   5.438   8.559 -0.7499  0.0561  0.0738
 3010TIP3    H130589   3.141   5.402   8.471 -2.1615  0.2290 -0.1942
 3010TIP3    H230590   3.083   5.370   8.607  0.6907 -0.3612  0.9461
 3011TIP3   OH230591   2.708   0.999   0.916  0.3175  0.1986  0.0643
 3011TIP3    H130592   2.769   0.955   0.858 -0.4425  1.5210 -1.8310
 3011TIP3    H230593   2.764   1.049   0.977  1.1257  0.0898 -0.5758
 3012TIP3   OH230594   3.137   1.867   2.369 -0.2592  0.3216  0.2430
 3012TIP3    H130595   3.214   1.900   2.323 -0.9291  0.8660 -0.5209
 3012TIP3    H230596   3.166   1.784   2.408  0.8161  0.7188  0.3116
 3013TIP3   OH230597   0.010   0.025   7.240  0.2924  0.4374 -0.0548
 3013TIP3    H130598   0.055  -0.058   7.256  0.6408  1.1336  3.1299
 3013TIP3    H230599  -0.079  -0.001   7.214 -0.1998 -1.0365  2.7143
 3014TIP3   OH230600   4.286   0.632   1.536  0.0957  0.4401 -0.3621
 3014TIP3    H130601   4.269   0.546   1.498 -1.1695  0.8073 -0.6574
 3014TIP3    H230602   4.275   0.619   1.630  0.2714  0.1967 -0.3757
 3015TIP3   OH230603   4.112   4.294   7.589  0.2555 -0.4414 -0.3815
 3015TIP3    H130604   4.032   4.242   7.574  0.8282 -1.0403 -1.5504
 3015TIP3    H230605   4.134   4.278   7.681 -1.4658  0.4774  0.2304
 3016TIP3   OH230606   5.950   0.236   8.361 -0.0679  0.4844 -0.2817
 3016TIP3    H130607   5.920   0.174   8.295  2.5404 -0.6020 -0.5831
 3016TIP3    H230608   5.931   0.322   8.323 -1.5605 -0.1002 -0.9470
 3017TIP3   OH230609   5.061   0.503   0.769  0.2351 -0.3911  0.6575
 3017TIP3    H130610   4.972   0.481   0.797 -0.7653 -0.3579 -2.1600
 3017TIP3    H230611   5.081   0.585   0.815 -2.1393  0.8241 -0.3224
 3018TIP3   OH230612   5.690   1.850   8.458  0.0406 -0.0539 -0.1388
 3018TIP3    H130613   5.757   1.813   8.400  0.3613  2.7537 -1.7195
 3018TIP3    H230614   5.729   1.930   8.491 -2.7910  2.2580 -1.9299
 3019TIP3   OH230615   1.525   2.244   8.292  1.0744  0.2188  0.1457
 3019TIP3    H130616   1.491   2.160   8.260  1.9154  0.0535 -0.3629
 3019TIP3    H230617   1.460   2.308   8.264 -0.3731 -0.4192  1.8896
 3020TIP3   OH230618   4.079   3.548   2.363 -0.0310 -0.0867 -0.3622
 3020TIP3    H130619   4.069   3.513   2.451  0.4573 -1.1404 -0.7058
 3020TIP3    H230620   4.171   3.576   2.358  0.0183 -0.2900 -0.6269
 3021TIP3   OH230621   0.201   2.062   8.225  0.1581  0.0029  0.3110
 3021TIP3    H130622   0.161   2.032   8.143  1.0257  0.9406 -0.4977
 3021TIP3    H230623   0.128   2.078   8.284 -0.4102 -2.0363  0.2128
 3022TIP3   OH230624   2.409   5.328   2.246 -0.3236 -0.0038  0.3451
 3022TIP3    H130625   2.502   5.324   2.269  0.3410 -1.3208 -2.1037
 3022TIP3    H230626   2.365   5.275   2.313  0.5165  1.3299  2.0213
 3023TIP3   OH230627   0.201   4.342   8.120  0.1526 -0.4492  0.1375
 3023TIP3    H130628   0.169   4.290   8.047 -1.5645 -0.2392  0.6868
 3023TIP3    H230629   0.291   4.364   8.097  0.5252 -2.6132 -0.6619
 3024TIP3   OH230630   1.179   6.704   8.879  0.4260  0.2234  0.3781
 3024TIP3    H130631   1.197   6.794   8.853 -0.2728  0.1888 -0.2497
 3024TIP3    H230632   1.246   6.684   8.944  1.6898  0.6068 -0.7552
 3025TIP3   OH230633   6.698   0.460   8.748  0.6540 -0.1386  0.1305
 3025TIP3    H130634   6.698   0.475   8.842  0.4354 -0.9441  0.2568
 3025TIP3    H230635   6.670   0.544   8.711 -1.2140 -0.3948  0.8672
 3026TIP3   OH230636   5.980   2.950   7.397  0.4740 -0.0640 -0.0175
 3026TIP3    H130637   6.022   3.014   7.455 -1.3331 -0.3330  1.7018
 3026TIP3    H230638   5.941   3.003   7.327  1.6669  0.3856 -0.3623
 3027TIP3   OH230639   0.236   1.833   2.669  0.2020  0.1943  0.6060
 3027TIP3    H130640   0.185   1.816   2.749  0.9927  0.4402  1.1801
 3027TIP3    H230641   0.254   1.927   2.673 -1.0571  0.5307 -0.6730
 3028TIP3   OH230642   2.363   1.985   1.762  0.1177 -0.1274 -0.2287
 3028TIP3    H130643   2.404   2.040   1.829  1.1975  0.0837 -1.0371
 3028TIP3    H230644   2.393   1.896   1.781  2.1959  0.1941 -1.6350
 3029TIP3   OH230645   6.705   6.466   8.016 -0.0847 -0.4131  0.3066
 3029TIP3    H130646   6.643   6.501   8.080 -0.1595  0.2590 -0.1319
 3029TIP3    H230647   6.651   6.421   7.952  0.0263 -1.5867  1.0026
 3030TIP3   OH230648   1.984   5.637   0.609 -0.3113 -0.2446  0.2659
 3030TIP3    H130649   1.979   5.731   0.623 -1.1568 -0.2355 -0.0700
 3030TIP3    H230650   2.011   5.601   0.694  2.4620  0.4794 -0.2033
 3031TIP3   OH230651   0.661   6.338   0.032  0.1356 -0.1977  0.1812
 3031TIP3    H130652   0.628   6.376  -0.050 -0.6729  0.0668  0.6136
 3031TIP3    H230653   0.593   6.359   0.097  0.3012 -1.2497  0.7106
 3032TIP3   OH230654   3.667   0.356   8.789 -0.7566  0.1340 -0.1761
 3032TIP3    H130655   3.670   0.452   8.784  1.4101  0.0782 -1.5725
 3032TIP3    H230656   3.711   0.327   8.709  1.2335 -1.9793  1.5376
 3033TIP3   OH230657   2.794   2.675   1.011 -0.2949  0.2027 -0.2881
 3033TIP3    H130658   2.800   2.581   0.995  0.2895  0.4830 -1.8684
 3033TIP3    H230659   2.794   2.683   1.106  0.2059 -1.3541 -0.1298
 3034TIP3   OH230660   5.066   6.635   0.944  0.8959  0.6860  0.6646
 3034TIP3    H130661   5.030   6.716   0.979 -0.6971 -0.3451  1.5049
 3034TIP3    H230662   5.131   6.608   1.009 -1.2988 -0.6634  2.4456
 3035TIP3   OH230663   0.935   6.133   8.816 -0.1395  0.3318 -0.2334
 3035TIP3    H130664   0.917   6.225   8.799  0.4337  0.7275  1.1975
 3035TIP3    H230665   0.848   6.093   8.824 -0.4204  0.4090 -2.3632
 3036TIP3   OH230666   3.552   3.336   6.849 -0.8200  0.1489 -0.0903
 3036TIP3    H130667   3.555   3.246   6.882 -1.4048  0.3437  0.5210
 3036TIP3    H230668   3.534   3.327   6.756  2.7138 -0.4945 -0.8466
 3037TIP3   OH230669   3.871   1.193   8.380 -0.0121 -0.2974  0.1080
 3037TIP3    H130670   3.848   1.129   8.312  1.3840 -1.9525  1.1181
 3037TIP3    H230671   3.794   1.196   8.437  0.1885 -1.7333  0.4994
 3038TIP3   OH230672   2.086   3.240   8.173 -0.6729  1.2250 -0.4015
 3038TIP3    H130673   2.153   3.299   8.140  1.3263 -0.7603 -0.1547
 3038TIP3    H230674   2.135   3.173   8.221 -2.7750 -0.6612 -0.7249
 3039TIP3   OH230675   2.633   3.092   7.117  0.2537 -0.1553  0.0515
 3039TIP3    H130676   2.619   3.067   7.208 -0.8591 -1.5861 -0.4762
 3039TIP3    H230677   2.727   3.078   7.103  0.3435 -0.4029  0.8499
 3040TIP3   OH230678   1.019   4.880   0.015 -0.1586 -0.4516 -0.4291
 3040TIP3    H130679   1.085   4.947  -0.004  1.4593 -0.6450  3.4714
 3040TIP3    H230680   1.064   4.797  -0.003  0.5563 -0.5674  1.6623
 3041TIP3   OH230681   5.353   6.209   7.338 -0.0576  0.8488 -0.2406
 3041TIP3    H130682   5.315   6.124   7.315 -2.2181  1.1809  1.6674
 3041TIP3    H230683   5.441   6.188   7.368 -0.2015 -0.5880 -0.7273
 3042TIP3   OH230684   3.128   6.532   7.368  0.1125  0.0867 -0.2434
 3042TIP3    H130685   3.139   6.467   7.436  0.4590 -1.0658 -1.3627
 3042TIP3    H230686   3.176   6.609   7.400 -0.0591 -0.2897  0.9598
 3043TIP3   OH230687   2.341   2.976   0.524 -0.8297  0.1122 -0.2299
 3043TIP3    H130688   2.431   2.945   0.537 -0.8620  0.2275  0.2956
 3043TIP3    H230689   2.287   2.902   0.551 -0.8985  0.3530  0.3068
 3044TIP3   OH230690   2.793   2.369   0.964  0.0060  0.0895  0.3977
 3044TIP3    H130691   2.730   2.298   0.972 -0.5375  0.7284  2.3357
 3044TIP3    H230692   2.872   2.337   1.006  0.7117 -0.3694 -1.2181
 3045TIP3   OH230693   2.132   2.085   0.521  0.4621 -0.1241  0.1984
 3045TIP3    H130694   2.040   2.112   0.523  0.8081  1.0481  1.7094
 3045TIP3    H230695   2.181   2.164   0.543  1.7173 -1.1472  1.2629
 3046TIP3   OH230696   0.882   5.621   1.212 -0.5255 -0.0272 -0.6413
 3046TIP3    H130697   0.899   5.709   1.177  0.0312 -0.2513 -0.9572
 3046TIP3    H230698   0.797   5.596   1.174 -1.7042  1.1614  1.0594
 3047TIP3   OH230699   2.241   0.332   0.863  0.2401 -0.7791  0.2089
 3047TIP3    H130700   2.206   0.299   0.780  1.8596  0.9906 -1.2760
 3047TIP3    H230701   2.295   0.260   0.896  1.4606 -0.7111 -1.5244
 3048TIP3   OH230702   6.339   5.386   0.469 -0.1525 -0.1115  0.2361
 3048TIP3    H130703   6.368   5.324   0.402 -2.4274 -3.3777  1.9698
 3048TIP3    H230704   6.420   5.428   0.499  1.7584 -3.0447 -0.3730
 3049TIP3   OH230705   5.538   6.442   1.570 -0.0286  0.0956  0.1758
 3049TIP3    H130706   5.577   6.510   1.515 -0.7980 -0.0641 -0.5806
 3049TIP3    H230707   5.500   6.380   1.508 -3.2920  1.2525  0.8207
 3050TIP3   OH230708   6.312   1.079   1.117 -0.4571 -0.0635 -0.3368
 3050TIP3    H130709   6.221   1.087   1.091 -0.6780 -0.4744  0.3032
 3050TIP3    H230710   6.359   1.061   1.035 -1.1772 -1.6233 -0.4281
 3051TIP3   OH230711   3.027   3.991   7.931  0.0942 -0.2151  0.1858
 3051TIP3    H130712   3.052   3.980   7.840 -1.4315 -0.8996 -0.1830
 3051TIP3    H230713   3.080   3.928   7.979  1.9215  1.0883  0.0061
 3052TIP3   OH230714   6.737   3.978   7.537  0.2391 -0.7031 -0.0200
 3052TIP3    H130715   6.647   4.004   7.554  0.5209  0.0234  0.3787
 3052TIP3    H230716   6.731   3.884   7.519 -0.8614 -0.3094 -2.0218
 3053TIP3   OH230717   2.678   4.335   0.052 -0.5568 -0.2321 -0.7329
 3053TIP3    H130718   2.597   4.379   0.028  0.1610  0.9246 -1.1351
 3053TIP3    H230719   2.654   4.278   0.125 -1.5687  0.6450 -0.3519
 3054TIP3   OH230720   5.308   2.156   8.097 -0.5473  0.1128 -0.4080
 3054TIP3    H130721   5.230   2.101   8.096 -0.8152  0.4321 -2.5404
 3054TIP3    H230722   5.367   2.112   8.158 -1.8261 -0.9513  0.1241
 3055TIP3   OH230723   2.856   6.079   8.019  0.8178  0.1303  0.0655
 3055TIP3    H130724   2.799   6.012   8.058  1.0014  1.3093  2.5825
 3055TIP3    H230725   2.797   6.133   7.967  0.4927 -1.3151 -1.1393
 3056TIP3   OH230726   2.641   1.936   1.529  0.5033 -0.0604  0.4367
 3056TIP3    H130727   2.565   1.885   1.556  0.0014  0.1782 -0.4609
 3056TIP3    H230728   2.604   2.019   1.498  1.4440  1.8685  3.9566
 3057TIP3   OH230729   0.031   6.733   1.219  0.6831 -0.3467  0.6383
 3057TIP3    H130730   0.102   6.756   1.279 -0.2617 -0.5686  1.8865
 3057TIP3    H230731  -0.041   6.791   1.244 -0.0769 -1.1825  0.4448
 3058TIP3   OH230732   1.774   3.853   0.934  0.6852  0.0687 -0.0964
 3058TIP3    H130733   1.772   3.923   0.869  1.4717  1.9808  1.8196
 3058TIP3    H230734   1.694   3.864   0.984  0.7154 -0.5444  0.0960
 3059TIP3   OH230735   3.238   4.998   0.756  0.3458  0.5092 -0.3021
 3059TIP3    H130736   3.149   5.030   0.738  0.0663  1.0623  1.7730
 3059TIP3    H230737   3.282   5.073   0.797  1.3602 -0.1610 -0.1377
 3060TIP3   OH230738   5.736   4.945   6.923  0.3390 -0.1712 -0.1432
 3060TIP3    H130739   5.643   4.947   6.945  0.5205  0.3588  0.6064
 3060TIP3    H230740   5.773   4.879   6.981  0.6761  0.6597  0.6136
 3061TIP3   OH230741   5.160   4.881   1.911 -0.2673  0.4740 -0.2606
 3061TIP3    H130742   5.094   4.836   1.963  0.8840 -2.0109 -0.7492
 3061TIP3    H230743   5.169   4.826   1.833  1.5486  1.3555 -0.7244
 3062TIP3   OH230744   6.762   4.927   1.035  0.2057  0.2931  0.4554
 3062TIP3    H130745   6.811   4.909   1.116  0.3284 -0.5860  0.1897
 3062TIP3    H230746   6.700   4.996   1.060  0.1598 -0.0486  1.3324
 3063TIP3   OH230747   0.722   6.055   1.255 -0.3967  0.0089 -0.0872
 3063TIP3    H130748   0.730   5.999   1.333 -0.8803 -0.0504 -0.0731
 3063TIP3    H230749   0.633   6.038   1.223  0.1044 -0.6188 -1.1651
 3064TIP3   OH230750   0.276   1.160   8.260 -0.3845 -0.0180 -0.0163
 3064TIP3    H130751   0.247   1.138   8.171 -0.3855 -0.9700  0.2100
 3064TIP3    H230752   0.201   1.141   8.316 -0.7670  1.6457  0.0819
 3065TIP3   OH230753   4.290   0.427   0.142  0.4777 -0.0043  0.2484
 3065TIP3    H130754   4.285   0.502   0.084 -0.7598 -0.1911  0.1052
 3065TIP3    H230755   4.286   0.464   0.230 -1.0262  0.0576  0.1724
 3066TIP3   OH230756   4.599   3.521   1.622 -0.0294  0.3087  0.3986
 3066TIP3    H130757   4.655   3.451   1.590 -0.4487  0.0603  0.2061
 3066TIP3    H230758   4.512   3.500   1.590  0.2776  2.4703 -2.2629
 3067TIP3   OH230759   1.544   5.159   7.444 -0.3428 -0.3925 -0.0437
 3067TIP3    H130760   1.599   5.228   7.481 -1.3242 -1.0606  2.8822
 3067TIP3    H230761   1.492   5.204   7.377 -0.1845  1.4612  1.0091
 3068TIP3   OH230762   1.848   6.607   7.709 -0.7896  0.1457 -0.0833
 3068TIP3    H130763   1.861   6.653   7.626 -1.2548 -1.2035 -0.9404
 3068TIP3    H230764   1.773   6.550   7.693  1.2818 -2.8554 -0.0108
 3069TIP3   OH230765   6.757   3.220   1.944 -0.5484  0.6537  0.1427
 3069TIP3    H130766   6.800   3.206   1.859 -0.7629 -2.0902  0.3947
 3069TIP3    H230767   6.739   3.314   1.946 -0.4061  0.8499 -2.7711
 3070TIP3   OH230768   3.010   1.715   2.686  0.5552 -0.1550 -0.3895
 3070TIP3    H130769   3.095   1.698   2.647  1.1888  0.0889  0.8286
 3070TIP3    H230770   3.023   1.793   2.741 -0.5954  0.2284 -0.6237
 3071TIP3   OH230771   0.432   1.916   2.097  0.2963 -0.2993 -0.3905
 3071TIP3    H130772   0.451   1.852   2.028 -0.9913 -4.4169  2.6498
 3071TIP3    H230773   0.338   1.928   2.093  0.3848  0.5097 -0.1571
 3072TIP3   OH230774   5.996   1.366   2.463  0.6121 -0.3673  0.1212
 3072TIP3    H130775   5.942   1.292   2.489  1.4498 -0.8367  0.5612
 3072TIP3    H230776   6.013   1.413   2.544  0.0153  0.3641 -0.1690
 3073TIP3   OH230777   4.095   1.276   1.279 -0.8166  0.7645  0.5791
 3073TIP3    H130778   4.147   1.280   1.198  0.4277  2.5286  1.3960
 3073TIP3    H230779   4.030   1.208   1.262  1.7856 -1.6945 -0.4574
 3074TIP3   OH230780   2.876   1.287   6.822 -0.3410 -0.0587  0.0633
 3074TIP3    H130781   2.864   1.282   6.727 -0.2628  1.3287 -0.0402
 3074TIP3    H230782   2.818   1.219   6.857 -0.1919 -0.7461 -0.9799
 3075TIP3   OH230783   2.628   1.805   7.585 -0.0362  0.3443 -0.2013
 3075TIP3    H130784   2.626   1.898   7.605 -0.6743  0.1844  0.5662
 3075TIP3    H230785   2.539   1.774   7.604  0.3841 -0.5724  0.3831
 3076TIP3   OH230786   3.864   1.593   8.645  0.0036  0.9738 -0.1176
 3076TIP3    H130787   3.883   1.612   8.553  1.0860 -0.0778 -0.1389
 3076TIP3    H230788   3.813   1.512   8.643 -0.6113  1.3457  0.1830
 3077TIP3   OH230789   6.538   4.356   1.671 -0.1811  0.5392 -0.4740
 3077TIP3    H130790   6.475   4.284   1.668 -0.0635  0.4618 -1.3572
 3077TIP3    H230791   6.495   4.428   1.625  0.1461  0.6807 -0.5638
 3078TIP3   OH230792   4.045   4.018   2.523  0.2384  0.3158  0.2297
 3078TIP3    H130793   4.127   4.017   2.573  0.4969  0.5633 -0.1822
 3078TIP3    H230794   4.014   4.108   2.528  0.4994  0.4456 -0.4247
 3079TIP3   OH230795   3.229   3.818   7.208  0.1741 -0.5131  0.3938
 3079TIP3    H130796   3.202   3.817   7.300  1.5830  2.2474  0.9448
 3079TIP3    H230797   3.186   3.896   7.171  1.7369 -0.0367 -0.5206
 3080TIP3   OH230798   0.455   4.109   8.345 -0.1627  0.5605  0.4282
 3080TIP3    H130799   0.485   4.163   8.272  0.0433  0.0803  0.1497
 3080TIP3    H230800   0.495   4.023   8.329  0.7785  0.7400  1.6874
 3081TIP3   OH230801   6.084   0.679   2.552  0.2711  0.2770 -0.0263
 3081TIP3    H130802   6.176   0.656   2.537  0.1583 -0.1827 -0.0185
 3081TIP3    H230803   6.077   0.688   2.647  0.3009  0.2931 -0.0253
 3082TIP3   OH230804   2.694   2.234   0.655 -0.3480 -0.1023 -0.2277
 3082TIP3    H130805   2.690   2.238   0.751  0.2031 -2.0514 -0.0973
 3082TIP3    H230806   2.747   2.310   0.631 -1.1279  0.8688  0.9275
 3083TIP3   OH230807   0.692   5.203   8.563 -0.0684 -0.4708  0.1642
 3083TIP3    H130808   0.770   5.149   8.573 -1.3482 -2.8568 -1.7830
 3083TIP3    H230809   0.657   5.211   8.651  1.5461 -0.6098  0.8534
 3084TIP3   OH230810   5.524   3.087   0.468 -0.6020  0.0753 -0.2942
 3084TIP3    H130811   5.514   3.182   0.478 -0.1048  0.1689 -0.6195
 3084TIP3    H230812   5.472   3.050   0.539 -1.5932  0.5594 -0.7500
 3085TIP3   OH230813   6.114   3.376   6.616 -0.1941  0.5237 -0.4774
 3085TIP3    H130814   6.046   3.327   6.661  0.1873 -0.0322 -0.4899
 3085TIP3    H230815   6.132   3.325   6.537 -1.5937  2.0177 -1.8387
 3086TIP3   OH230816   4.428   1.310   0.328 -0.0218 -0.1464 -0.6522
 3086TIP3    H130817   4.411   1.383   0.268 -0.0382  0.0599 -0.3968
 3086TIP3    H230818   4.386   1.235   0.286  1.4678 -0.3935 -1.7939
 3087TIP3   OH230819   2.154   6.386   0.128  0.6455  0.4469 -0.2038
 3087TIP3    H130820   2.178   6.296   0.149  0.4226  0.7158  1.3303
 3087TIP3    H230821   2.103   6.379   0.047  2.1913 -0.5839 -1.1625
 3088TIP3   OH230822   0.253   5.477   2.242  0.2900 -0.2569 -0.1609
 3088TIP3    H130823   0.329   5.534   2.243 -0.2795  0.5255  0.6599
 3088TIP3    H230824   0.282   5.397   2.286  0.2914  0.5445  1.3709
 3089TIP3   OH230825   4.982   0.371   2.094  0.0478 -0.0355 -0.5004
 3089TIP3    H130826   5.025   0.398   2.175 -1.7018  1.9675 -0.1433
 3089TIP3    H230827   4.889   0.367   2.117 -0.3302 -0.8983 -2.0485
 3090TIP3   OH230828   0.859   5.302   1.924 -0.2450  0.6223 -0.2889
 3090TIP3    H130829   0.938   5.279   1.875 -1.7035  0.2123 -2.6099
 3090TIP3    H230830   0.862   5.249   2.003  2.0068  0.9796 -0.0806
 3091TIP3   OH230831   5.045   4.401   0.107 -0.1713  0.0717  0.0612
 3091TIP3    H130832   4.990   4.479   0.099 -0.2408  0.0288  0.1213
 3091TIP3    H230833   5.063   4.375   0.017  0.8517  0.8612  0.0205
 3092TIP3   OH230834   3.130   1.003   1.497 -0.2269 -0.3986  0.2969
 3092TIP3    H130835   3.085   0.952   1.429 -0.1457 -1.4893  1.0288
 3092TIP3    H230836   3.072   0.998   1.573  0.8494 -1.4324  1.1110
 3093TIP3   OH230837   0.326   5.949   0.728  0.0178  0.7269 -0.4365
 3093TIP3    H130838   0.253   5.892   0.704  1.1972 -1.3482  0.6259
 3093TIP3    H230839   0.288   6.037   0.735 -2.1154 -0.1093 -0.9758
 3094TIP3   OH230840   2.180   6.681   0.830  0.3437 -0.6170 -0.9757
 3094TIP3    H130841   2.224   6.606   0.871  1.1836  0.0857 -0.5717
 3094TIP3    H230842   2.214   6.757   0.876 -1.2374 -0.0313 -0.7301
 3095TIP3   OH230843   3.556   1.819   1.804  0.0021  0.3133 -0.0941
 3095TIP3    H130844   3.522   1.751   1.746  1.4579 -1.0759  0.5939
 3095TIP3    H230845   3.480   1.845   1.856 -0.6251 -0.7194 -0.4381
 3096TIP3   OH230846   5.211   3.943   0.835  0.6374  0.3183 -0.4797
 3096TIP3    H130847   5.170   3.859   0.855 -1.1046  1.4736  1.1876
 3096TIP3    H230848   5.162   3.977   0.760  0.5125  0.3873 -0.3674
 3097TIP3   OH230849   4.548   0.891   0.804  0.6728 -0.7110  0.2128
 3097TIP3    H130850   4.522   0.980   0.781 -0.4409 -1.5620 -2.0729
 3097TIP3    H230851   4.470   0.853   0.845  0.4302 -1.2604 -0.7315
 3098TIP3   OH230852   6.394   2.806   7.416  0.5592  0.1600  0.3200
 3098TIP3    H130853   6.376   2.901   7.417  0.5587  0.2517 -2.1410
 3098TIP3    H230854   6.483   2.799   7.383 -0.3171 -0.6843 -2.1358
 3099TIP3   OH230855   0.173   5.387   6.635  0.8740  0.1606  0.3539
 3099TIP3    H130856   0.254   5.433   6.655  0.8493  0.5657 -0.4448
 3099TIP3    H230857   0.201   5.307   6.591  0.9571 -0.9875  2.3413
 3100TIP3   OH230858   6.119   0.946   3.080 -0.2357  0.8122  0.6331
 3100TIP3    H130859   6.136   1.036   3.107  1.6746  1.3794 -2.0864
 3100TIP3    H230860   6.190   0.895   3.119  0.0156  0.8856  0.2737
 3101TIP3   OH230861   3.736   5.709   8.587 -0.1500  0.0556 -0.1939
 3101TIP3    H130862   3.805   5.692   8.651  0.2628  0.7295 -0.4522
 3101TIP3    H230863   3.781   5.754   8.515 -0.9690  1.0967 -0.0772
 3102TIP3   OH230864   3.805   2.297   8.086  0.1278 -0.0971  0.0247
 3102TIP3    H130865   3.729   2.309   8.030  0.3178  1.3187  0.0309
 3102TIP3    H230866   3.847   2.217   8.054 -1.0930 -0.6454 -0.2655
 3103TIP3   OH230867   6.171   3.872   8.228  0.6599  0.1791  0.0683
 3103TIP3    H130868   6.159   3.959   8.192  0.6961  0.7016  1.2750
 3103TIP3    H230869   6.266   3.860   8.231  0.6555 -0.6676 -1.8149
 3104TIP3   OH230870   1.654   0.842   2.288 -0.0903 -0.1758 -0.0288
 3104TIP3    H130871   1.650   0.843   2.383 -0.9314 -1.8554 -0.0191
 3104TIP3    H230872   1.569   0.810   2.260 -0.5674  2.0910 -1.4645
 3105TIP3   OH230873   5.686   5.966   2.828 -0.5402 -0.6988 -0.0522
 3105TIP3    H130874   5.693   5.871   2.840 -2.2635 -1.0329 -1.2754
 3105TIP3    H230875   5.649   5.976   2.740 -0.0758  1.1339 -0.0789
 3106TIP3   OH230876   2.082   0.656   8.714  0.5376 -0.1682 -0.6064
 3106TIP3    H130877   2.068   0.741   8.755  1.2433 -0.8851  1.2303
 3106TIP3    H230878   2.013   0.649   8.648 -0.2624  1.3245  0.0276
 3107TIP3   OH230879   5.793   2.448   8.185 -0.6412 -0.2139  0.4542
 3107TIP3    H130880   5.838   2.373   8.222 -2.2882 -1.4263  0.1453
 3107TIP3    H230881   5.779   2.508   8.259  0.2133 -0.4485  0.8075
 3108TIP3   OH230882   5.400   3.751   8.097 -0.3017  0.0443 -0.4511
 3108TIP3    H130883   5.389   3.786   8.009  0.7065 -1.5366 -1.2594
 3108TIP3    H230884   5.494   3.759   8.115 -0.6042  1.1003  0.8377
 3109TIP3   OH230885   1.518   2.750   6.929  0.4737 -0.0785 -0.0238
 3109TIP3    H130886   1.483   2.691   6.862 -0.2468  0.4793 -0.1598
 3109TIP3    H230887   1.565   2.817   6.879 -0.4694  0.6033 -0.0181
 3110TIP3   OH230888   4.311   0.637   8.865  0.0500 -0.4590  0.7218
 3110TIP3    H130889   4.244   0.705   8.861  1.0679  0.6043  1.1133
 3110TIP3    H230890   4.380   0.675   8.919  1.5508 -0.9994 -0.7403
 3111TIP3   OH230891   4.326   2.909   1.772 -0.2427  0.3570 -0.0990
 3111TIP3    H130892   4.383   2.836   1.798 -0.0056  0.8271  0.7307
 3111TIP3    H230893   4.269   2.872   1.705 -0.2438 -0.6493  0.4336
 3112TIP3   OH230894   6.742   4.261   2.037 -0.0642  0.1452  0.4792
 3112TIP3    H130895   6.775   4.172   2.051  2.3062  0.7440 -0.8251
 3112TIP3    H230896   6.755   4.277   1.944 -1.6424  1.4398  0.4506
 3113TIP3   OH230897   4.088   1.101   8.527  0.6417  0.5360  0.3780
 3113TIP3    H130898   4.019   1.142   8.474 -2.5051 -2.3606  1.8487
 3113TIP3    H230899   4.070   1.130   8.616  1.4528 -0.1400  0.7689
 3114TIP3   OH230900   1.428   4.968   7.900 -0.2776  0.3409  0.3502
 3114TIP3    H130901   1.350   4.912   7.903  0.6591 -1.0612 -0.4298
 3114TIP3    H230902   1.413   5.025   7.826 -0.8920  0.6077  0.6676
 3115TIP3   OH230903   0.597   5.860   0.563  0.0305  0.4544  0.1536
 3115TIP3    H130904   0.672   5.820   0.607 -0.0485 -0.6887 -0.6905
 3115TIP3    H230905   0.531   5.790   0.558 -0.1305  0.6679 -1.3263
 3116TIP3   OH230906   3.298   3.545   7.171 -0.1622 -0.3547 -0.1009
 3116TIP3    H130907   3.244   3.539   7.091 -0.6762  0.5784  0.1559
 3116TIP3    H230908   3.284   3.635   7.202  1.9710  0.0874 -0.3037
 3117TIP3   OH230909   1.168   5.859   2.280  0.0108  0.3626  0.4090
 3117TIP3    H130910   1.076   5.883   2.271  0.1641  0.6250 -0.5177
 3117TIP3    H230911   1.185   5.866   2.374 -0.5391  1.6922  0.4277
 3118TIP3   OH230912   0.349   6.569   1.654  0.9115  0.2585  0.0940
 3118TIP3    H130913   0.412   6.508   1.614 -0.9828 -1.8196  0.0936
 3118TIP3    H230914   0.399   6.610   1.725  2.6382 -0.3267 -0.7102
 3119TIP3   OH230915   2.648   3.269   7.383 -0.0671 -0.3371  0.0367
 3119TIP3    H130916   2.588   3.343   7.393 -0.2903 -0.6122  0.8130
 3119TIP3    H230917   2.716   3.284   7.448  1.9759  1.1196 -2.2308
 3120TIP3   OH230918   0.124   5.754   0.942 -0.2268 -0.4691  0.1228
 3120TIP3    H130919   0.142   5.677   0.888 -0.6421 -0.2091 -0.4005
 3120TIP3    H230920   0.209   5.779   0.977 -0.1078 -1.2643  0.4414
 3121TIP3   OH230921   0.707   3.834   6.845  0.0048  0.1712 -0.0654
 3121TIP3    H130922   0.636   3.897   6.858 -0.9918 -0.8293 -0.4011
 3121TIP3    H230923   0.677   3.780   6.772  1.1820 -0.2087 -0.2829
 3122TIP3   OH230924   0.385   3.002   1.896  0.2429 -0.1736 -0.1114
 3122TIP3    H130925   0.390   3.096   1.882  0.7282  0.0085  1.1756
 3122TIP3    H230926   0.349   2.993   1.984 -3.4283 -1.2526 -1.5077
 3123TIP3   OH230927   5.417   2.487   1.873  0.5843  0.1420 -0.0448
 3123TIP3    H130928   5.466   2.469   1.792  0.2036 -1.6192  0.0909
 3123TIP3    H230929   5.391   2.579   1.864  2.8169  0.8004 -0.6846
 3124TIP3   OH230930   5.043   5.130   1.933 -0.9097  0.2406  0.1182
 3124TIP3    H130931   5.066   5.156   2.022 -2.1326  1.4287  0.1150
 3124TIP3    H230932   5.084   5.044   1.921 -0.4838  0.2054  1.7043
 3125TIP3   OH230933   4.775   6.179   7.809 -0.1678  0.6102  0.4115
 3125TIP3    H130934   4.774   6.144   7.720 -0.6323  1.8484 -0.0831
 3125TIP3    H230935   4.753   6.271   7.799 -1.6837  0.4600  1.9543
 3126TIP3   OH230936   5.016   6.214   7.962  0.6913 -0.3567 -0.0539
 3126TIP3    H130937   5.082   6.283   7.954  2.1534 -1.7987 -1.2464
 3126TIP3    H230938   4.957   6.229   7.888 -0.0190  0.5935  0.6803
 3127TIP3   OH230939   3.119   5.337   1.741 -0.2847  0.2053 -0.5004
 3127TIP3    H130940   3.026   5.331   1.719 -0.3168 -0.5162 -0.1707
 3127TIP3    H230941   3.147   5.247   1.757 -0.0537  0.5932  1.5433
 3128TIP3   OH230942   6.417   6.574   7.636  0.4285 -0.0309  0.2424
 3128TIP3    H130943   6.450   6.490   7.604 -2.0979 -0.8456 -0.4599
 3128TIP3    H230944   6.367   6.609   7.563  1.5850  2.2237  0.4647
 3129TIP3   OH230945   3.515   2.019   7.923  0.1065  0.9874  0.1265
 3129TIP3    H130946   3.450   2.039   7.991 -0.1588 -0.7963  0.4303
 3129TIP3    H230947   3.567   2.099   7.916 -1.1149  1.9018  1.0053
 3130TIP3   OH230948   0.875   1.502   6.996  0.1997  0.6039 -0.2614
 3130TIP3    H130949   0.787   1.535   6.975  0.4619  1.2232 -0.3825
 3130TIP3    H230950   0.907   1.467   6.913 -0.3866 -0.7227  0.0276
 3131TIP3   OH230951   1.259   0.018   7.650 -0.1819 -0.3812 -0.1669
 3131TIP3    H130952   1.264   0.095   7.593 -0.5153 -0.9245 -0.9486
 3131TIP3    H230953   1.275  -0.056   7.591  1.0565 -0.8645  0.7355
 3132TIP3   OH230954   1.272   3.305   1.837  0.2016  1.0025 -0.1128
 3132TIP3    H130955   1.310   3.288   1.750 -0.6562 -0.3932 -0.2490
 3132TIP3    H230956   1.194   3.357   1.819 -0.7007 -0.3705 -0.3462
 3133TIP3   OH230957   6.348   4.467   7.799 -0.3537 -0.4787 -0.2747
 3133TIP3    H130958   6.369   4.408   7.727  0.9414  0.3840 -0.6430
 3133TIP3    H230959   6.334   4.409   7.874  0.3723 -1.2892 -0.7420
 3134TIP3   OH230960   0.405   6.688   8.073 -0.0972  0.6441 -0.1373
 3134TIP3    H130961   0.490   6.699   8.029 -0.1228  1.9827  0.0902
 3134TIP3    H230962   0.383   6.776   8.103 -0.9457  0.0737  0.9664
 3135TIP3   OH230963   5.570   2.146   8.452 -0.0514  0.1085  0.6247
 3135TIP3    H130964   5.629   2.121   8.523  0.5210 -1.4738 -0.3563
 3135TIP3    H230965   5.485   2.158   8.495  0.2169 -1.1089  1.5585
 3136TIP3   OH230966   6.439   3.939   2.447 -0.0933 -0.0316 -0.0230
 3136TIP3    H130967   6.368   3.957   2.508  0.0834  1.8717 -0.3304
 3136TIP3    H230968   6.433   4.008   2.381  0.5178 -1.2859 -1.4666
 3137TIP3   OH230969   5.256   0.513   0.125  0.0130  0.3084 -0.0581
 3137TIP3    H130970   5.228   0.602   0.146  0.3194  0.4071 -0.0619
 3137TIP3    H230971   5.281   0.474   0.209  1.1430  0.6704 -0.2097
 3138TIP3   OH230972   1.884   4.838   7.799 -0.4109  0.1533 -0.0220
 3138TIP3    H130973   1.882   4.791   7.882  0.5837 -0.8146 -0.5208
 3138TIP3    H230974   1.797   4.823   7.762 -0.7424  0.3059  0.6726
 3139TIP3   OH230975   0.914   3.339   0.074 -0.4446 -0.2750  0.3074
 3139TIP3    H130976   0.877   3.252   0.056 -0.3100 -0.0874 -0.9899
 3139TIP3    H230977   0.887   3.392  -0.001  0.9353  0.3315  0.2084
 3140TIP3   OH230978   5.997   5.095   6.970  0.1376 -0.4633  0.1581
 3140TIP3    H130979   5.959   5.182   6.984 -0.2622 -0.3768 -1.3081
 3140TIP3    H230980   5.922   5.035   6.977  0.2220 -0.5788  0.0867
 3141TIP3   OH230981   2.562   1.123   7.435  0.3854  0.4759 -0.2583
 3141TIP3    H130982   2.631   1.153   7.376  0.9950 -1.1066 -0.4159
 3141TIP3    H230983   2.494   1.088   7.377  1.0104 -1.1340 -0.0924
 3142TIP3   OH230984   4.834   3.150   7.374 -0.5401  0.2103 -0.0721
 3142TIP3    H130985   4.905   3.201   7.414 -0.0974  0.7582 -1.4737
 3142TIP3    H230986   4.786   3.214   7.322 -0.0092 -0.7567 -1.8281
 3143TIP3   OH230987   0.078   3.104   7.677  0.7244 -0.4964 -0.1337
 3143TIP3    H130988   0.171   3.126   7.690  0.6923 -0.8850  0.9154
 3143TIP3    H230989   0.035   3.142   7.753  0.3357 -2.1210  0.5019
 3144TIP3   OH230990   2.026   2.547   2.337  0.2049  0.5369  0.0672
 3144TIP3    H130991   2.084   2.531   2.263 -0.1296  2.2125 -0.5959
 3144TIP3    H230992   2.084   2.545   2.414  0.7938  0.2147 -0.3828
 3145TIP3   OH230993   0.315   1.727   7.594  0.0144 -0.0080 -0.1581
 3145TIP3    H130994   0.373   1.713   7.519 -0.6025  1.0403 -0.8565
 3145TIP3    H230995   0.326   1.819   7.617 -2.0140  0.4759 -0.9084
 3146TIP3   OH230996   6.061   4.075   8.509  0.7794 -0.4499 -0.1834
 3146TIP3    H130997   6.129   4.133   8.476 -0.0995 -0.4322 -2.0903
 3146TIP3    H230998   6.108   4.002   8.549  1.8904  0.2827 -0.1141
 3147TIP3   OH230999   1.224   2.871   8.668  0.2405  0.5100 -0.1512
 3147TIP3    H131000   1.314   2.901   8.654  0.8601 -1.1272  0.0045
 3147TIP3    H231001   1.170   2.932   8.618  1.4913  1.1361 -0.7986
 3148TIP3   OH231002   3.222   1.570   1.689 -0.3789  1.0928 -0.0220
 3148TIP3    H131003   3.253   1.628   1.620  1.8803 -0.0373 -0.0471
 3148TIP3    H231004   3.236   1.482   1.655 -0.0117  0.5257  1.5193
 3149TIP3   OH231005   1.614   1.173   0.008  0.0576  0.2220  0.4775
 3149TIP3    H131006   1.636   1.166  -0.084 -0.9886 -0.1657  0.2398
 3149TIP3    H231007   1.690   1.137   0.054  0.0003 -0.9085 -0.2865
 3150TIP3   OH231008   2.324   4.238   1.966 -0.6389  0.1394 -0.1891
 3150TIP3    H131009   2.267   4.227   2.043  0.6254  0.6420  0.8506
 3150TIP3    H231010   2.318   4.331   1.946 -0.4205  0.1386 -0.2586
 3151TIP3   OH231011   2.581   3.726   0.913  0.4529 -0.2403 -0.3432
 3151TIP3    H131012   2.522   3.764   0.848  0.8114  0.1175 -0.4621
 3151TIP3    H231013   2.566   3.777   0.992 -1.9816 -2.3746  0.7198
 3152TIP3   OH231014   6.245   1.739   7.200 -0.2210 -0.2159  0.9504
 3152TIP3    H131015   6.240   1.817   7.144 -0.7910 -0.4649  0.6447
 3152TIP3    H231016   6.337   1.735   7.227  0.1522 -0.2951 -0.2612
 3153TIP3   OH231017   2.318   6.692   7.420  0.2438  0.0986 -0.3350
 3153TIP3    H131018   2.345   6.758   7.356 -0.2525 -0.4119 -1.0907
 3153TIP3    H231019   2.230   6.719   7.446  0.8371  0.9024  0.9670
 3154TIP3   OH231020   6.547   0.925   3.230  0.0935  0.2165 -0.1755
 3154TIP3    H131021   6.556   0.992   3.298  2.0548  1.0519 -1.1756
 3154TIP3    H231022   6.622   0.867   3.244  1.5024  1.3192 -2.5057
 3155TIP3   OH231023   3.564   4.604   1.238 -0.0552  0.0567  0.2679
 3155TIP3    H131024   3.499   4.667   1.269 -2.2735 -1.8853 -0.1622
 3155TIP3    H231025   3.560   4.611   1.142  0.5956  0.1157  0.2397
 3156TIP3   OH231026   4.316   0.860   1.390 -0.2510 -0.4645  0.8978
 3156TIP3    H131027   4.233   0.874   1.345  0.3024  0.4962  0.1521
 3156TIP3    H231028   4.305   0.775   1.434 -1.4086 -0.6244  0.3420
 3157TIP3   OH231029   3.726   4.915   0.931 -0.6821 -0.3831 -0.3584
 3157TIP3    H131030   3.692   4.989   0.980 -0.4560 -0.2695 -0.3726
 3157TIP3    H231031   3.768   4.953   0.854 -0.6746 -0.5320 -0.4295
 3158TIP3   OH231032   5.075   2.452   2.333  0.3731  0.1021 -0.1477
 3158TIP3    H131033   5.049   2.498   2.413 -0.1624  0.9930 -0.8062
 3158TIP3    H231034   5.072   2.360   2.355 -0.4093  0.3142  0.6794
 3159TIP3   OH231035   3.404   1.568   0.871 -0.3517  0.3366  0.4969
 3159TIP3    H131036   3.466   1.639   0.855  0.5013 -0.4594  0.1604
 3159TIP3    H231037   3.399   1.521   0.787  1.0195 -1.4564  1.3626
 3160TIP3   OH231038   4.571   1.993   2.031 -0.5710 -0.4060  0.1058
 3160TIP3    H131039   4.647   2.039   2.069  0.1282 -2.6207  1.5777
 3160TIP3    H231040   4.536   2.055   1.967  2.4840  0.7359 -0.6712
 3161TIP3   OH231041   5.974   1.024   2.822  0.3539  0.4433 -0.2639
 3161TIP3    H131042   6.022   0.962   2.877 -0.7684 -0.2342 -0.0143
 3161TIP3    H231043   5.957   1.099   2.879 -1.6119 -0.6299  0.6922
 3162TIP3   OH231044   0.611   1.157   2.612  0.0302  0.4155 -0.3413
 3162TIP3    H131045   0.553   1.141   2.687  0.7832 -2.4975 -0.2669
 3162TIP3    H231046   0.581   1.096   2.545  3.4140 -1.8978  0.0240
 3163TIP3   OH231047   4.915   6.110   6.779  0.0272 -0.0360 -0.0604
 3163TIP3    H131048   4.840   6.051   6.783 -0.6274  0.5517 -2.4078
 3163TIP3    H231049   4.990   6.055   6.804 -0.8469 -1.2551 -0.0219
 3164TIP3   OH231050   2.223   4.902   3.155 -0.3938 -0.3683  0.6004
 3164TIP3    H131051   2.237   4.997   3.157  2.5292 -0.5284 -2.6254
 3164TIP3    H231052   2.155   4.890   3.089  1.7665 -0.4570 -1.8202
 3165TIP3   OH231053   1.952   0.764   0.698  0.0553  0.0611  0.3908
 3165TIP3    H131054   2.043   0.787   0.679  0.0929 -0.1948  0.2646
 3165TIP3    H231055   1.948   0.669   0.688  0.1217 -0.1106  1.8487
 3166TIP3   OH231056   4.072   0.836   7.440  0.0326 -0.1673 -0.3188
 3166TIP3    H131057   4.028   0.916   7.467 -2.2561 -0.8032 -1.8270
 3166TIP3    H231058   4.145   0.865   7.384 -0.9926  0.8933 -1.1509
 3167TIP3   OH231059   0.296   2.415   7.799  0.4628 -0.1765 -0.5606
 3167TIP3    H131060   0.238   2.479   7.757  1.3102  2.3877  1.8304
 3167TIP3    H231061   0.247   2.384   7.875  0.1287 -2.3763 -1.6101
 3168TIP3   OH231062   2.409   4.801   1.407 -0.1586 -0.2796 -0.1497
 3168TIP3    H131063   2.379   4.825   1.494 -0.0761 -0.0922 -0.1734
 3168TIP3    H231064   2.353   4.850   1.347 -0.0751 -0.2429 -0.1988
 3169TIP3   OH231065   0.598   3.520   6.429  0.9898  0.0898  0.0320
 3169TIP3    H131066   0.534   3.556   6.367 -1.2892  0.5146  2.4378
 3169TIP3    H231067   0.574   3.428   6.437  0.3037  0.3597  1.3113
 3170TIP3   OH231068   0.601   5.294   7.370  0.0024  0.2343  0.4633
 3170TIP3    H131069   0.595   5.229   7.301 -0.0301  1.3646 -0.6368
 3170TIP3    H231070   0.661   5.360   7.336  0.7418  0.3486  1.9250
 3171TIP3   OH231071   4.966   2.967   3.003  0.1367  0.1819  0.3482
 3171TIP3    H131072   4.901   2.918   3.053 -0.2437 -0.8630 -1.1273
 3171TIP3    H231073   4.996   3.035   3.064 -2.9590  1.3022  0.8286
 3172TIP3   OH231074   0.904   1.184   2.240  0.7125 -0.2383 -0.1717
 3172TIP3    H131075   0.823   1.134   2.231  0.3028 -0.0247  1.8760
 3172TIP3    H231076   0.949   1.144   2.314  1.7690  0.5839 -0.3453
 3173TIP3   OH231077   5.835   5.126   8.400 -0.3303  0.4301  0.2905
 3173TIP3    H131078   5.748   5.164   8.415 -0.9254 -0.8440  0.2701
 3173TIP3    H231079   5.834   5.101   8.307 -0.6369 -1.1423  0.6732
 3174TIP3   OH231080   5.747   2.391   7.422  0.2998  0.2656 -0.3518
 3174TIP3    H131081   5.747   2.303   7.385 -0.3011  0.4334 -0.7676
 3174TIP3    H231082   5.832   2.427   7.399 -0.1091  0.4182 -1.7246
 3175TIP3   OH231083   0.698   5.459   1.404  0.1438 -0.0183  0.0831
 3175TIP3    H131084   0.678   5.378   1.450  0.4358 -0.2173 -0.1366
 3175TIP3    H231085   0.673   5.442   1.313  1.3453 -0.3061 -0.2205
 3176TIP3   OH231086   6.349   2.519   8.218  0.0304  0.6039  0.0835
 3176TIP3    H131087   6.345   2.576   8.141  0.1834  0.7040  0.1498
 3176TIP3    H231088   6.427   2.466   8.204 -1.5372 -1.5179 -1.3333
 3177TIP3   OH231089   1.616   2.789   1.706 -0.0468 -0.0753 -0.0511
 3177TIP3    H131090   1.551   2.777   1.775  1.2535  0.5848  1.3557
 3177TIP3    H231091   1.568   2.775   1.625 -1.6613 -0.7747  0.9694
 3178TIP3   OH231092   0.533   2.892   0.794 -0.6181  0.3450 -0.0048
 3178TIP3    H131093   0.451   2.920   0.834 -0.0362  0.6775  0.9754
 3178TIP3    H231094   0.594   2.963   0.812 -0.3624  0.5734 -1.6275
 3179TIP3   OH231095   2.896   2.001   2.397 -0.1348 -0.0703 -0.3263
 3179TIP3    H131096   2.848   2.000   2.480  0.1128  1.0343 -0.1548
 3179TIP3    H231097   2.981   1.963   2.418 -0.7402 -1.6179 -0.5321
 3180TIP3   OH231098   4.047   1.354   0.673  0.1872 -0.2239  0.1055
 3180TIP3    H131099   4.141   1.336   0.676  0.2162 -0.0153  0.9672
 3180TIP3    H231100   4.040   1.444   0.641  0.3337  0.0425  0.8038
 3181TIP3   OH231101   5.514   6.682   0.396 -0.1133  0.2466 -0.3480
 3181TIP3    H131102   5.469   6.598   0.386 -0.0574  0.2769 -0.8817
 3181TIP3    H231103   5.515   6.719   0.308 -0.4190  0.9575 -0.0518
 3182TIP3   OH231104   6.086   6.699   0.998  0.4056 -0.6432  0.2578
 3182TIP3    H131105   6.062   6.690   0.906 -2.2036  2.7291  0.3952
 3182TIP3    H231106   6.006   6.680   1.046  0.0150  2.8472  1.3267
 3183TIP3   OH231107   2.668   0.352   0.440 -0.2551  0.5572 -0.6067
 3183TIP3    H131108   2.637   0.346   0.350  0.1539  0.1169 -0.7154
 3183TIP3    H231109   2.748   0.299   0.443  0.3857  1.5106 -0.2753
 3184TIP3   OH231110   6.664   3.087   8.341  0.2151  0.3278  0.7107
 3184TIP3    H131111   6.606   3.018   8.308  0.7009  0.1757  0.1607
 3184TIP3    H231112   6.623   3.115   8.423  0.9276 -1.8041  1.8611
 3185TIP3   OH231113   0.008   6.573   1.761 -0.2020  0.2043 -0.0618
 3185TIP3    H131114  -0.045   6.524   1.824  1.7955  1.0003  2.4207
 3185TIP3    H231115   0.087   6.520   1.750 -0.3091  0.3178 -1.6069
 3186TIP3   OH231116   1.693   3.606   2.192 -0.3653  0.0587  0.1898
 3186TIP3    H131117   1.680   3.531   2.250  0.7238  0.0008  0.3770
 3186TIP3    H231118   1.605   3.628   2.161 -0.8451 -0.4942  1.1275
 3187TIP3   OH231119   6.543   5.866   8.792  0.1146 -0.0470  0.0354
 3187TIP3    H131120   6.565   5.830   8.878 -0.5139  0.2717  0.3368
 3187TIP3    H231121   6.526   5.958   8.809  0.3564  0.0938 -0.4971
 3188TIP3   OH231122   0.138   0.813   8.492 -0.1195 -0.0507 -0.0392
 3188TIP3    H131123   0.177   0.738   8.447 -0.0069 -0.4718  0.7285
 3188TIP3    H231124   0.158   0.797   8.585  0.3889  1.2099  0.0848
 3189TIP3   OH231125   5.814   1.004   1.021 -0.0874  0.1956 -0.5038
 3189TIP3    H131126   5.788   0.925   0.975 -2.1703 -0.1007  1.0264
 3189TIP3    H231127   5.733   1.053   1.033  0.9473  1.9495 -0.2620
 3190TIP3   OH231128   0.407   5.778   1.610 -0.5032 -0.1883 -0.0288
 3190TIP3    H131129   0.355   5.815   1.539 -1.2018 -2.0804 -0.5792
 3190TIP3    H231130   0.346   5.767   1.683 -0.9388 -2.3028 -0.6379
 3191TIP3   OH231131   0.180   4.060   2.632  0.2920 -0.5275  0.4674
 3191TIP3    H131132   0.119   4.032   2.563  0.1429  0.4772  0.1848
 3191TIP3    H231133   0.175   3.990   2.697 -0.8101 -0.6957  0.2323
 3192TIP3   OH231134   4.047   2.996   2.401 -0.2360 -0.0629  0.3192
 3192TIP3    H131135   4.006   3.071   2.444 -0.5308 -0.8694  1.4898
 3192TIP3    H231136   4.070   2.937   2.473 -0.1623 -1.1740 -0.5971
 3193TIP3   OH231137   0.490   6.029   1.111 -0.2938 -0.6465 -0.7575
 3193TIP3    H131138   0.445   5.946   1.097 -0.5213 -0.4805 -1.0316
 3193TIP3    H231139   0.500   6.066   1.023 -1.9153  0.5007 -0.5121
 3194TIP3   OH231140   1.076   1.302   0.601  0.4891  0.2830  0.5171
 3194TIP3    H131141   1.130   1.245   0.546 -0.4680  0.4753 -0.6813
 3194TIP3    H231142   1.128   1.382   0.612  0.3472  0.5956 -0.8985
 3195TIP3   OH231143   3.590   4.560   8.068 -0.1196  0.5468 -0.1431
 3195TIP3    H131144   3.630   4.486   8.112 -0.0339 -0.1376 -1.3242
 3195TIP3    H231145   3.543   4.522   7.993 -0.8402  1.5872 -0.2445
 3196TIP3   OH231146   0.051   3.833   7.042 -0.4293  0.4028  0.8483
 3196TIP3    H131147  -0.004   3.755   7.039  1.7628 -1.2562 -2.3757
 3196TIP3    H231148   0.048   3.868   6.952  2.8268  0.8288  0.7776
 3197TIP3   OH231149   0.476   5.109   7.908 -0.0305 -0.6434 -0.1439
 3197TIP3    H131150   0.405   5.113   7.845  0.9295 -1.0832 -1.2925
 3197TIP3    H231151   0.439   5.145   7.989 -1.0417  0.7174 -1.1684
 3198TIP3   OH231152   6.587   5.885   1.162  0.1502 -0.5625  0.0540
 3198TIP3    H131153   6.611   5.902   1.071 -0.7998  0.1579 -0.0791
 3198TIP3    H231154   6.646   5.941   1.213  0.1205 -0.3360 -0.1596
 3199TIP3   OH231155   3.755   0.234   7.585 -0.4482 -0.3656 -0.0246
 3199TIP3    H131156   3.831   0.209   7.533  0.2099 -0.3459  0.9012
 3199TIP3    H231157   3.683   0.241   7.522  0.1039 -1.2995 -0.7692
 3200TIP3   OH231158   2.661   5.996   2.103  0.6521  0.9086  0.4072
 3200TIP3    H131159   2.684   5.905   2.084  0.0653  0.5466  1.3449
 3200TIP3    H231160   2.568   6.002   2.078 -0.5312  0.0768  3.9758
 3201TIP3   OH231161   3.957   0.227   8.203 -0.3967 -0.4066 -0.0535
 3201TIP3    H131162   3.985   0.136   8.213 -0.3519 -0.1727  2.5917
 3201TIP3    H231163   3.901   0.226   8.126 -0.6073 -2.7397  0.0561
 3202TIP3   OH231164   5.263   5.555   1.109  0.0619 -0.6087  0.6584
 3202TIP3    H131165   5.314   5.574   1.187 -1.0551  0.8026  1.0961
 3202TIP3    H231166   5.274   5.461   1.094 -0.5713 -1.1392  3.1665
 3203TIP3   OH231167   3.071   2.283   7.551  0.7498 -0.5564  0.1709
 3203TIP3    H131168   2.988   2.235   7.552  2.2120 -3.3912  2.3395
 3203TIP3    H231169   3.079   2.319   7.640  0.3429  2.7771 -1.0066
 3204TIP3   OH231170   3.181   5.958   0.636  0.4702 -0.1986 -0.4508
 3204TIP3    H131171   3.240   6.016   0.684  0.3902 -0.0355 -0.5502
 3204TIP3    H231172   3.229   5.875   0.630  1.0168  0.1570 -1.1994
 3205TIP3   OH231173   4.210   5.746   0.011  0.1157 -0.0394 -0.2884
 3205TIP3    H131174   4.158   5.737   0.090 -1.1231  0.8020 -0.9699
 3205TIP3    H231175   4.155   5.797  -0.049  0.8963 -0.8719 -1.7901
 3206TIP3   OH231176   3.473   0.946   0.912  0.6342  0.1493 -0.1890
 3206TIP3    H131177   3.430   1.021   0.872 -0.3477  0.6033  1.6060
 3206TIP3    H231178   3.467   0.877   0.846  0.7978  1.3802 -1.5358
 3207TIP3   OH231179   5.196   0.599   1.548 -0.3514  0.2094  0.4278
 3207TIP3    H131180   5.190   0.576   1.456  0.4639 -1.4518  0.7358
 3207TIP3    H231181   5.165   0.689   1.553 -1.1068  0.0874 -1.3431
 3208TIP3   OH231182   0.361   1.608   2.335 -0.5222  0.5710 -0.0463
 3208TIP3    H131183   0.314   1.531   2.302  1.6246 -0.6819 -0.3409
 3208TIP3    H231184   0.411   1.639   2.260 -1.1687  2.1615  0.1388
 3209TIP3   OH231185   4.712   2.880   0.193  0.2845 -0.4155 -0.1353
 3209TIP3    H131186   4.725   2.970   0.161  0.6982 -0.9978 -1.7158
 3209TIP3    H231187   4.794   2.836   0.174 -0.3877 -1.4786 -0.6473
 3210TIP3   OH231188   1.428   1.649   0.657  0.1563  0.2999  0.7742
 3210TIP3    H131189   1.458   1.735   0.687 -2.0529  1.2529  0.4416
 3210TIP3    H231190   1.494   1.588   0.690  2.0570  2.1547  0.5806
 3211TIP3   OH231191   1.192   1.371   8.552 -0.3351  0.3368 -0.4839
 3211TIP3    H131192   1.265   1.311   8.569 -0.1849  0.6904  0.1562
 3211TIP3    H231193   1.115   1.314   8.548 -0.1210  0.0395 -0.4470
 3212TIP3   OH231194   2.860   6.691   2.124  0.4149  0.1156 -0.2221
 3212TIP3    H131195   2.828   6.636   2.053 -0.3622 -0.9858  0.9462
 3212TIP3    H231196   2.802   6.672   2.198 -0.1575  2.7846  0.1503
 3213TIP3   OH231197   5.868   2.115   1.907 -0.3370 -0.2409  0.2112
 3213TIP3    H131198   5.818   2.035   1.894  2.0602 -1.8582  0.2309
 3213TIP3    H231199   5.880   2.121   2.002  0.5322 -0.5742  0.1305
 3214TIP3   OH231200   3.304   5.036   2.223  0.3439 -0.1312  0.1623
 3214TIP3    H131201   3.209   5.037   2.228  0.3622 -0.9062  0.9305
 3214TIP3    H231202   3.334   5.051   2.313  0.9541  0.4155 -0.1233
 3215TIP3   OH231203   3.737   6.709   7.693  0.4069  0.1584  0.1939
 3215TIP3    H131204   3.669   6.777   7.685 -0.0427 -0.2800  0.2224
 3215TIP3    H231205   3.806   6.750   7.745 -0.2322  0.3259  0.9407
 3216TIP3   OH231206   5.941   3.471   0.176 -0.2819  0.4746 -0.3011
 3216TIP3    H131207   6.029   3.468   0.215 -0.2858  0.0252 -0.3206
 3216TIP3    H231208   5.907   3.557   0.199  0.3061  0.7901 -0.5947
 3217TIP3   OH231209   3.748   5.499   2.055  0.1615  0.3574 -0.0708
 3217TIP3    H131210   3.720   5.589   2.037 -0.8598  0.4215  1.6494
 3217TIP3    H231211   3.729   5.486   2.147 -1.2722 -2.1888 -0.6237
 3218TIP3   OH231212   1.994   4.088   8.772  0.6448 -0.6662  0.0970
 3218TIP3    H131213   2.051   4.011   8.775  0.8961 -0.4554  0.9081
 3218TIP3    H231214   1.986   4.109   8.679  0.6117 -1.6425 -0.1295
 3219TIP3   OH231215   1.572   6.293   1.396 -0.1875 -0.7967  0.3948
 3219TIP3    H131216   1.605   6.335   1.316  2.1885 -0.3043  1.5464
 3219TIP3    H231217   1.623   6.213   1.404 -0.2193 -0.7164  1.5439
 3220TIP3   OH231218   3.054   3.612   1.024  0.1254  0.4547 -1.2105
 3220TIP3    H131219   3.114   3.649   1.089  0.3169 -0.1727 -1.0210
 3220TIP3    H231220   2.968   3.646   1.049  0.1663  0.0546 -0.4971
 3221TIP3   OH231221   1.625   1.830   2.192 -0.3122  0.1068 -0.2532
 3221TIP3    H131222   1.704   1.835   2.138 -0.2132  1.2346 -0.0315
 3221TIP3    H231223   1.657   1.838   2.282 -0.6004 -0.4019 -0.1002
 3222TIP3   OH231224   3.671   0.254   8.080  0.5666 -0.3506  0.1400
 3222TIP3    H131225   3.649   0.196   8.153  1.6545  0.9406  1.5519
 3222TIP3    H231226   3.593   0.308   8.069  0.5357 -0.2883  0.6192
 3223TIP3   OH231227   3.899   3.944   0.429  0.3645 -0.4082  0.0070
 3223TIP3    H131228   3.809   3.959   0.457  1.0926 -0.7610  2.7788
 3223TIP3    H231229   3.948   4.020   0.461  1.3117 -0.9575 -0.0845
 3224TIP3   OH231230   1.322   5.663   8.784  0.7396 -0.1553 -0.1838
 3224TIP3    H131231   1.292   5.586   8.735  1.4236  0.0475 -0.9466
 3224TIP3    H231232   1.388   5.703   8.728  0.0659  1.2704 -0.0022
 3225TIP3   OH231233   0.931   5.897   1.143 -0.1736  0.2476 -0.2248
 3225TIP3    H131234   0.999   5.913   1.078  0.8258  0.6100  0.8574
 3225TIP3    H231235   0.873   5.973   1.137  0.2186  0.5411 -0.3294
 3226TIP3   OH231236   1.880   6.176   7.650 -0.2791 -0.5898  0.1245
 3226TIP3    H131237   1.839   6.214   7.572 -0.9582 -0.9787  0.2859
 3226TIP3    H231238   1.968   6.153   7.621 -0.8576 -1.7061 -0.8599
 3227TIP3   OH231239   0.603   6.299   2.278 -0.3750 -0.1668  0.5937
 3227TIP3    H131240   0.579   6.385   2.313  1.2592  0.4728  0.2763
 3227TIP3    H231241   0.699   6.300   2.276 -0.3227 -1.9232  0.3642
 3228TIP3   OH231242   4.493   1.610   1.569  0.5242 -0.4987  0.0322
 3228TIP3    H131243   4.468   1.531   1.520 -0.9214 -0.6462  0.9689
 3228TIP3    H231244   4.474   1.682   1.509 -0.1105 -0.7460 -0.0759
 3229TIP3   OH231245   1.137   6.281   1.443  0.2857 -0.0192  0.0589
 3229TIP3    H131246   1.065   6.263   1.383 -0.5849  1.4817  0.6041
 3229TIP3    H231247   1.101   6.343   1.506  1.4960 -0.7325  1.5143
 3230TIP3   OH231248   1.159   2.368   6.916 -0.3315 -0.6184 -0.3650
 3230TIP3    H131249   1.138   2.424   6.990 -1.7821 -0.0999 -1.1449
 3230TIP3    H231250   1.171   2.428   6.843  0.2571 -1.1847 -0.7493
 3231TIP3   OH231251   3.133   2.588   0.450  0.2305 -0.2994  0.2919
 3231TIP3    H131252   3.172   2.508   0.486  1.4017 -0.2934 -0.8856
 3231TIP3    H231253   3.179   2.659   0.495 -0.3054 -0.2782  0.8173
 3232TIP3   OH231254   1.614   1.352   2.549 -0.0614  0.7102 -0.3604
 3232TIP3    H131255   1.572   1.434   2.524 -1.7726  0.8058  2.4192
 3232TIP3    H231256   1.689   1.379   2.602 -0.3417  0.4948  0.1519
 3233TIP3   OH231257   5.543   0.408   0.572  0.3639 -0.9711  0.1782
 3233TIP3    H131258   5.476   0.477   0.573  1.4275  0.0902  0.3859
 3233TIP3    H231259   5.493   0.327   0.564 -0.8666 -0.1206 -1.4217
 3234TIP3   OH231260   4.840   4.563   1.997  0.2293  0.0342 -0.1149
 3234TIP3    H131261   4.780   4.494   2.026  0.1410  0.9471  2.0538
 3234TIP3    H231262   4.789   4.643   2.003  1.1630  0.6226  0.1607
 3235TIP3   OH231263   1.820   3.544   1.000  0.2196  0.2651 -0.3441
 3235TIP3    H131264   1.729   3.565   1.020  1.1522  2.6025  2.0232
 3235TIP3    H231265   1.864   3.629   0.994  2.3661 -0.8043 -0.8579
 3236TIP3   OH231266   6.248   3.662   2.512  0.7289 -0.1262  0.4423
 3236TIP3    H131267   6.293   3.689   2.593 -0.6025  1.1961  0.7775
 3236TIP3    H231268   6.168   3.620   2.542  0.0583  0.6783 -0.1798
 3237TIP3   OH231269   4.003   2.209   0.999 -0.0066  0.0564  0.5646
 3237TIP3    H131270   3.920   2.200   0.954 -0.1931  0.0209  0.9138
 3237TIP3    H231271   3.987   2.273   1.069  0.4692  0.6596  0.1325
 3238TIP3   OH231272   3.850   3.689   8.194  0.6801  0.4643  0.0570
 3238TIP3    H131273   3.861   3.765   8.137  0.4495  0.2635 -0.2620
 3238TIP3    H231274   3.893   3.713   8.276 -1.1693  1.7377  0.7111
 3239TIP3   OH231275   0.173   4.096   7.662  0.0771 -0.0998  0.2115
 3239TIP3    H131276   0.161   4.187   7.634 -1.5015 -0.2840  0.2149
 3239TIP3    H231277   0.101   4.049   7.620  0.7507 -1.3187  0.3894
 3240TIP3   OH231278   0.359   4.407   7.381 -0.0387 -0.1072  0.5758
 3240TIP3    H131279   0.286   4.367   7.428 -0.2051 -2.0388 -1.1316
 3240TIP3    H231280   0.324   4.424   7.293  0.9868  0.8064  0.3235
 3241TIP3   OH231281   2.693   2.382   6.656 -0.0708 -0.8089  0.2804
 3241TIP3    H131282   2.701   2.459   6.712 -0.6879 -2.3338  2.6163
 3241TIP3    H231283   2.604   2.386   6.621  0.6383  0.6666 -1.4867
 3242TIP3   OH231284   6.644   3.780   2.575 -0.2188 -0.0190 -0.3859
 3242TIP3    H131285   6.602   3.744   2.654  0.2640 -1.2706 -0.6767
 3242TIP3    H231286   6.575   3.832   2.533 -1.0377 -0.8476 -0.1005
 3243TIP3   OH231287   2.845   4.014   1.023 -0.2103 -0.3068  0.0395
 3243TIP3    H131288   2.893   3.976   1.097  1.9005  3.0727  0.6148
 3243TIP3    H231289   2.888   4.098   1.007 -3.6298  1.2722 -1.9693
 3244TIP3   OH231290   0.931   6.406   1.556  0.1165 -0.0806 -0.6116
 3244TIP3    H131291   0.884   6.485   1.580  0.0467 -0.3914  0.3461
 3244TIP3    H231292   0.878   6.366   1.487 -0.1165  0.4356 -0.7345
 3245TIP3   OH231293   6.403   6.295   1.356  0.3465  0.2375  0.0465
 3245TIP3    H131294   6.388   6.379   1.398  1.6900  1.3556 -1.5672
 3245TIP3    H231295   6.492   6.300   1.323  1.0243 -2.4387  1.1918
 3246TIP3   OH231296   1.012   1.655   7.591  0.4060 -0.3019 -0.0061
 3246TIP3    H131297   1.039   1.694   7.507 -2.2114 -0.8165 -1.1993
 3246TIP3    H231298   0.921   1.683   7.602 -0.2200 -2.5766  1.2158
 3247TIP3   OH231299   2.102   5.880   8.820  0.1740  0.1309  0.0377
 3247TIP3    H131300   2.161   5.877   8.895 -0.4840 -0.5370  0.5454
 3247TIP3    H231301   2.139   5.816   8.759  0.8746  0.8843 -0.3530
 3248TIP3   OH231302   2.655   4.369   8.373  0.1622 -0.2051 -0.0428
 3248TIP3    H131303   2.576   4.316   8.358 -0.6137  0.7950  0.3470
 3248TIP3    H231304   2.622   4.459   8.376  1.2231  0.1678  0.8781
 3249TIP3   OH231305   4.691   1.453   1.401  0.0032 -0.5127 -0.2348
 3249TIP3    H131306   4.612   1.410   1.368 -0.8712  0.8680 -0.0037
 3249TIP3    H231307   4.673   1.546   1.391  1.8977 -0.1777 -0.8387
 3250TIP3   OH231308   0.822   0.850   8.325  0.1224 -0.6601  0.8228
 3250TIP3    H131309   0.748   0.802   8.362  1.7502 -1.1860  3.6896
 3250TIP3    H231310   0.900   0.804   8.358  1.7426  2.0175  1.0387
 3251TIP3   OH231311   5.752   6.552   0.849  0.1624  0.0510  0.1461
 3251TIP3    H131312   5.703   6.566   0.769 -0.2519  0.6709  0.5007
 3251TIP3    H231313   5.705   6.602   0.916  2.0405  1.8791  0.2145
 3252TIP3   OH231314   2.465   4.173   7.293  0.2465 -0.0730  0.0044
 3252TIP3    H131315   2.470   4.241   7.226  1.5238 -0.7954 -0.6764
 3252TIP3    H231316   2.374   4.143   7.290  0.2862 -0.1153 -1.4590
 3253TIP3   OH231317   0.709   0.251   2.481 -0.1055  0.2225  0.4348
 3253TIP3    H131318   0.783   0.193   2.496 -0.5378 -0.6459 -0.6154
 3253TIP3    H231319   0.651   0.201   2.424 -1.3170  1.0350  0.9173
 3254TIP3   OH231320   4.708   5.997   2.807  0.3421  0.6328  0.1740
 3254TIP3    H131321   4.772   5.939   2.766 -0.3593  0.1244 -0.2282
 3254TIP3    H231322   4.653   5.939   2.859 -2.4208  0.3715 -2.7613
 3255TIP3   OH231323   5.856   0.575   1.393  0.3179  0.2152  0.7675
 3255TIP3    H131324   5.932   0.622   1.427 -0.0096  0.0662  1.7661
 3255TIP3    H231325   5.790   0.583   1.463 -0.7884  0.8413 -0.3052
 3256TIP3   OH231326   4.164   4.606   0.894 -0.0693  0.1261 -0.6663
 3256TIP3    H131327   4.077   4.624   0.928  0.9363  1.2483  1.4974
 3256TIP3    H231328   4.181   4.679   0.834 -0.3601  0.2742 -0.5700
 3257TIP3   OH231329   1.438   2.923   0.420 -0.3581 -0.1875 -0.1766
 3257TIP3    H131330   1.348   2.947   0.396  0.2119  0.6523 -1.5758
 3257TIP3    H231331   1.477   3.005   0.449  0.4170 -0.2325 -1.0800
 3258TIP3   OH231332   1.013   2.357   2.460 -0.3205 -0.2248  0.1985
 3258TIP3    H131333   1.012   2.359   2.364  1.7506 -0.4517  0.1154
 3258TIP3    H231334   1.085   2.297   2.482 -1.4591 -1.0452  1.9182
 3259TIP3   OH231335   4.237   3.050   6.960  0.2901 -0.4182 -0.5670
 3259TIP3    H131336   4.194   2.979   6.911  1.4918 -0.9812 -0.8250
 3259TIP3    H231337   4.327   3.051   6.928  0.2305  1.4325 -0.7639
 3260TIP3   OH231338   5.511   5.621   0.374 -0.2232  0.4972  0.0734
 3260TIP3    H131339   5.529   5.611   0.281 -0.7667 -0.6667  0.0837
 3260TIP3    H231340   5.592   5.592   0.417 -0.5915 -0.6565  0.0048
 3261TIP3   OH231341   5.138   0.265   0.661  0.5623 -0.1826  0.4973
 3261TIP3    H131342   5.094   0.265   0.577 -0.5575 -1.4803  1.0385
 3261TIP3    H231343   5.103   0.341   0.708  0.5012  0.0116  0.1379
 3262TIP3   OH231344   2.935   2.858   7.310  0.0642 -0.0304  0.0788
 3262TIP3    H131345   2.997   2.924   7.279  0.3757 -0.8340 -1.1150
 3262TIP3    H231346   2.955   2.781   7.257 -1.6073 -0.4756  0.0534
 3263TIP3   OH231347   5.890   1.130   2.058 -0.1151 -0.0950 -1.0009
 3263TIP3    H131348   5.981   1.159   2.064  1.0110 -3.4099  0.4724
 3263TIP3    H231349   5.857   1.137   2.148 -1.1563  0.5401 -1.4210
 3264TIP3   OH231350   6.183   6.451   8.588 -0.2623  0.5986  0.2297
 3264TIP3    H131351   6.191   6.546   8.596 -0.2474  0.4905  1.6413
 3264TIP3    H231352   6.091   6.433   8.605 -0.2136  0.3375  0.2162
 3265TIP3   OH231353   4.656   4.826   8.404  0.3297 -0.0427  0.2850
 3265TIP3    H131354   4.562   4.814   8.418 -0.4709  1.7161 -2.7087
 3265TIP3    H231355   4.683   4.751   8.351  0.3444  0.0294  0.1887
 3266TIP3   OH231356   5.604   1.453   8.010  0.1804 -0.1677  0.3551
 3266TIP3    H131357   5.633   1.544   8.012  0.0469 -0.1295  0.6483
 3266TIP3    H231358   5.508   1.458   8.016  0.2292 -0.3641  1.6829
 3267TIP3   OH231359   6.116   6.239   1.073  0.2756 -0.5361 -0.0549
 3267TIP3    H131360   6.053   6.311   1.070 -0.8563 -1.4229  1.3290
 3267TIP3    H231361   6.196   6.276   1.035 -0.3871  1.3154  0.2368
 3268TIP3   OH231362   5.372   6.712   2.397 -0.3899  0.1024 -0.0926
 3268TIP3    H131363   5.332   6.694   2.482  1.0996  0.0440  0.6098
 3268TIP3    H231364   5.461   6.740   2.417  0.5113 -1.4193 -1.6894
 3269TIP3   OH231365   6.588   0.933   7.253 -0.0539 -0.4594 -0.5506
 3269TIP3    H131366   6.576   1.022   7.220 -1.2802 -0.4453 -0.1065
 3269TIP3    H231367   6.502   0.908   7.288  0.2178 -1.8917 -0.8442
 3270TIP3   OH231368   3.202   6.692   1.074 -0.6719  0.1698 -0.0206
 3270TIP3    H131369   3.137   6.761   1.083 -1.5863 -0.4445 -1.6549
 3270TIP3    H231370   3.224   6.690   0.981  2.2096  0.7922  0.5520
 3271TIP3   OH231371   2.458   6.189   1.144 -0.2128  0.0755  0.2309
 3271TIP3    H131372   2.527   6.234   1.095 -0.3424  0.6888  0.5871
 3271TIP3    H231373   2.460   6.231   1.231  0.1321 -1.1066  0.8103
 3272TIP3   OH231374   2.928   1.523   0.018 -0.0003 -0.1175  0.1322
 3272TIP3    H131375   3.009   1.575   0.023  0.0761 -0.2207 -0.0237
 3272TIP3    H231376   2.933   1.479  -0.067 -1.2484  1.5759 -0.8912
 3273TIP3   OH231377   5.374   5.845   0.745 -0.0129 -0.2721  0.0011
 3273TIP3    H131378   5.384   5.751   0.738  2.5885 -0.1142  0.6988
 3273TIP3    H231379   5.428   5.881   0.674  1.3418  0.7053  1.4648
 3274TIP3   OH231380   4.709   2.657   7.720  0.5325  0.3394 -0.5703
 3274TIP3    H131381   4.740   2.607   7.644  1.2575 -0.6401  0.3344
 3274TIP3    H231382   4.627   2.616   7.744  0.4708  0.4345 -0.6164
 3275TIP3   OH231383   1.844   3.190   1.409  0.0450 -0.1764 -0.3988
 3275TIP3    H131384   1.860   3.190   1.503 -0.0522  1.1947 -0.3589
 3275TIP3    H231385   1.878   3.274   1.379 -2.0267  0.4406 -1.1989
 3276TIP3   OH231386   3.912   3.176   1.709  0.3141 -0.1007  0.5402
 3276TIP3    H131387   3.858   3.131   1.774  0.1067 -0.3974  0.1720
 3276TIP3    H231388   4.001   3.150   1.730  0.0527 -3.0033 -1.3155
 3277TIP3   OH231389   5.697   6.665   2.005 -0.1292 -0.0015 -0.1864
 3277TIP3    H131390   5.735   6.578   1.996 -1.0353 -0.4145 -0.1408
 3277TIP3    H231391   5.734   6.699   2.086 -2.7785 -1.9699  2.0588
 3278TIP3   OH231392   2.710   1.613   6.982  0.1281 -0.6744  0.1435
 3278TIP3    H131393   2.761   1.674   7.035 -0.3073  0.1329 -0.3522
 3278TIP3    H231394   2.673   1.552   7.045  0.3379 -0.2601  0.6733
 3279TIP3   OH231395   6.307   2.937   0.028  0.0170 -0.5295  0.1865
 3279TIP3    H131396   6.374   2.927  -0.040 -0.0707  0.5161 -0.0821
 3279TIP3    H231397   6.254   3.011  -0.002  1.7458  1.9812  2.7426
 3280TIP3   OH231398   6.650   5.462   2.881 -0.4773  0.6504  0.4826
 3280TIP3    H131399   6.726   5.518   2.865 -0.5651  0.6830  0.1694
 3280TIP3    H231400   6.681   5.397   2.945 -0.1895  0.6701  0.3651
 3281TIP3   OH231401   1.277   1.807   1.135 -0.2752 -0.5032 -0.4292
 3281TIP3    H131402   1.202   1.750   1.121 -0.2011 -0.7878  0.3106
 3281TIP3    H231403   1.255   1.888   1.087 -0.6756 -0.8892 -0.9091
 3282TIP3   OH231404   0.136   6.194   2.069 -0.0754  0.0170  0.5267
 3282TIP3    H131405   0.215   6.210   2.122 -0.6546 -0.8205  1.6691
 3282TIP3    H231406   0.104   6.282   2.048  1.9665  0.4391 -1.2798
 3283TIP3   OH231407   5.803   0.821   2.005  0.1511  0.9545 -0.0694
 3283TIP3    H131408   5.870   0.756   1.984 -0.7869 -0.2311  0.4752
 3283TIP3    H231409   5.779   0.803   2.096 -3.1436 -0.8104 -1.1271
 3284TIP3   OH231410   1.162   1.241   1.721 -0.4277 -0.1038  0.4146
 3284TIP3    H131411   1.242   1.273   1.680  0.3343 -0.8048  1.3002
 3284TIP3    H231412   1.166   1.146   1.709 -1.2425 -0.1279  0.2755
 3285TIP3   OH231413   1.190   2.784   7.727 -0.4932 -0.0784 -0.6428
 3285TIP3    H131414   1.209   2.701   7.770 -0.8580 -2.2789 -4.3405
 3285TIP3    H231415   1.124   2.825   7.783 -0.7848 -2.5697  1.0001
 3286TIP3   OH231416   0.105   1.364   8.647 -0.1714  0.0702 -0.4015
 3286TIP3    H131417   0.103   1.321   8.561 -0.7519 -0.1785 -0.2712
 3286TIP3    H231418   0.184   1.330   8.689  0.2601  0.3980 -0.9382
 3287TIP3   OH231419   2.615   0.521   8.339 -0.3494 -0.1297  0.9006
 3287TIP3    H131420   2.527   0.515   8.375 -0.3007  1.2644  1.3183
 3287TIP3    H231421   2.602   0.518   8.244 -1.1851  2.7570  0.8294
 3288TIP3   OH231422   0.928   1.348   1.849  0.0599 -0.1611  0.0770
 3288TIP3    H131423   1.006   1.311   1.807 -0.4064  0.3877 -1.3342
 3288TIP3    H231424   0.858   1.286   1.829 -0.2987  0.4249 -0.5138
 3289TIP3   OH231425   5.831   5.179   1.588 -0.0215 -0.3607 -0.0675
 3289TIP3    H131426   5.775   5.176   1.666 -1.2325 -3.3018 -0.9364
 3289TIP3    H231427   5.865   5.269   1.587 -1.0658  0.1870  3.0434
 3290TIP3   OH231428   1.966   4.758   7.002  0.0454 -0.4511  0.6866
 3290TIP3    H131429   2.021   4.719   6.935 -0.3549 -2.2111  1.3437
 3290TIP3    H231430   1.956   4.849   6.974  1.4138 -0.6611 -0.6253
 3291TIP3   OH231431   5.706   4.830   1.604 -0.0740 -0.4490 -0.4299
 3291TIP3    H131432   5.783   4.785   1.638  0.4981 -0.0701 -1.2052
 3291TIP3    H231433   5.688   4.899   1.668  0.3957 -0.3657 -0.3857
 3292TIP3   OH231434   1.389   4.479   1.722  0.0665  0.8775  0.1492
 3292TIP3    H131435   1.314   4.533   1.748 -0.0884  0.8549 -0.2485
 3292TIP3    H231436   1.353   4.417   1.658 -0.0288 -0.5054  1.4824
 3293TIP3   OH231437   4.603   5.529   7.765 -0.3664  0.2789 -0.0236
 3293TIP3    H131438   4.542   5.546   7.837 -0.6768 -0.5853 -0.0692
 3293TIP3    H231439   4.677   5.587   7.782 -0.8289  0.7249  0.5033
 3294TIP3   OH231440   2.785   1.524   8.567  0.6115  0.0536 -0.4921
 3294TIP3    H131441   2.868   1.528   8.520  0.0553  0.5509 -1.4551
 3294TIP3    H231442   2.746   1.610   8.554 -0.0913 -0.2018 -0.1174
 3295TIP3   OH231443   3.564   2.609   1.710 -0.3486 -0.0551  0.1250
 3295TIP3    H131444   3.521   2.528   1.684  0.1672 -0.5364  0.7317
 3295TIP3    H231445   3.563   2.664   1.631  0.1486 -1.0176 -0.5609
 3296TIP3   OH231446   6.463   6.548   1.438 -0.4452  0.3691 -0.0430
 3296TIP3    H131447   6.557   6.557   1.454 -0.8246  1.2578  1.9527
 3296TIP3    H231448   6.423   6.559   1.524 -2.4122  0.3261 -0.9087
 3297TIP3   OH231449   6.763   2.810   8.308  0.5472 -0.3904  0.4717
 3297TIP3    H131450   6.683   2.835   8.263  0.7601 -0.7970 -0.1454
 3297TIP3    H231451   6.783   2.722   8.275  1.5339 -0.0826  0.1995
 3298TIP3   OH231452   2.042   5.274   8.021 -0.2503 -0.4623 -0.5278
 3298TIP3    H131453   2.114   5.222   7.985  2.3579  2.6128 -0.2110
 3298TIP3    H231454   2.021   5.232   8.104  2.4903 -0.5645  0.2381
 3299TIP3   OH231455   2.743   5.861   8.120 -0.0524 -0.0240  0.1446
 3299TIP3    H131456   2.679   5.792   8.104  1.7536 -1.3226 -2.1903
 3299TIP3    H231457   2.780   5.841   8.206  0.6261 -2.2210 -0.5883
 3300TIP3   OH231458   3.495   1.574   8.677  0.0530  0.4607  0.6068
 3300TIP3    H131459   3.566   1.509   8.676 -1.0185 -0.7759 -1.3866
 3300TIP3    H231460   3.473   1.583   8.770  2.2930  0.3467  1.2291
 3301TIP3   OH231461   3.569   0.580   1.879  0.2956  0.2512 -0.5312
 3301TIP3    H131462   3.526   0.524   1.943 -0.9788  1.4964 -0.2305
 3301TIP3    H231463   3.513   0.658   1.875  1.1911  0.8540 -2.0218
 3302TIP3   OH231464   2.956   0.835   7.588 -0.0044  0.1630 -0.2451
 3302TIP3    H131465   2.959   0.755   7.641 -0.7958 -0.2329 -0.7695
 3302TIP3    H231466   2.863   0.845   7.566  0.0994  1.1907 -0.2483
 3303TIP3   OH231467   6.205   0.302   1.324 -0.4139 -0.4130  0.3697
 3303TIP3    H131468   6.141   0.233   1.341 -0.7430 -0.3546 -0.6000
 3303TIP3    H231469   6.275   0.258   1.275 -0.9614  0.0749 -0.8877
 3304TIP3   OH231470   1.396   3.320   0.539 -0.0155  0.0824 -0.1180
 3304TIP3    H131471   1.406   3.302   0.632  2.8461  1.5086 -0.0059
 3304TIP3    H231472   1.416   3.237   0.496 -0.8450 -0.4572  0.5194
 3305TIP3   OH231473   6.303   2.133   6.716  0.5796 -0.2043  0.3497
 3305TIP3    H131474   6.317   2.196   6.645 -1.3309  0.4947  0.5338
 3305TIP3    H231475   6.369   2.155   6.781  0.9527  0.5785 -0.2699
 3306TIP3   OH231476   2.474   3.455   2.418  0.1026  0.0450  0.2562
 3306TIP3    H131477   2.445   3.515   2.350  1.2176  1.3563  0.9082
 3306TIP3    H231478   2.463   3.503   2.500  0.5598 -0.8120  0.8462
 3307TIP3   OH231479   1.078   4.000   1.347 -0.1439  0.2329  0.3182
 3307TIP3    H131480   1.111   4.090   1.340  0.7298  0.0635  1.7526
 3307TIP3    H231481   0.984   4.008   1.332 -0.3221  1.6359  1.8404
 3308TIP3   OH231482   3.076   4.127   2.423 -0.3899 -0.2403  0.5688
 3308TIP3    H131483   3.142   4.065   2.453 -0.4869  0.5174  2.4479
 3308TIP3    H231484   3.083   4.124   2.327 -1.0390 -3.8205  0.4888
 3309TIP3   OH231485   5.342   2.401   2.357  0.0492 -0.0445 -0.4793
 3309TIP3    H131486   5.386   2.368   2.279 -0.7887 -2.0406 -0.1731
 3309TIP3    H231487   5.252   2.418   2.328 -0.0814 -0.1278 -0.1270
 3310TIP3   OH231488   2.955   5.139   8.230 -0.3270 -0.5086  0.4883
 3310TIP3    H131489   3.036   5.092   8.251 -1.3483 -1.9729  1.3993
 3310TIP3    H231490   2.984   5.220   8.189  1.5735 -1.2786  0.1965
 3311TIP3   OH231491   2.105   1.932   8.679  0.1016 -0.0169 -0.4391
 3311TIP3    H131492   2.126   1.919   8.771 -0.4660 -0.7235 -0.3972
 3311TIP3    H231493   2.051   2.011   8.678  0.6654  0.3700 -0.2476
 3312TIP3   OH231494   0.755   2.644   8.247  0.6683  0.0461  0.2149
 3312TIP3    H131495   0.662   2.625   8.237  0.4644  1.0443  0.1137
 3312TIP3    H231496   0.791   2.566   8.290  0.4148 -1.8189 -2.6088
 3313TIP3   OH231497   4.889   2.980   1.133  0.2800 -0.6184  1.0139
 3313TIP3    H131498   4.980   2.962   1.155  0.3497  0.0592  1.2914
 3313TIP3    H231499   4.862   3.049   1.194 -0.2798 -0.4985  0.6412
 3314TIP3   OH231500   5.121   0.752   0.828 -0.5015 -0.4671  0.0403
 3314TIP3    H131501   5.074   0.787   0.751 -1.2830 -0.4837  0.4995
 3314TIP3    H231502   5.068   0.780   0.903 -1.9347 -3.6994  0.3891
 3315TIP3   OH231503   4.976   6.076   7.420  0.3633  0.3354  0.6069
 3315TIP3    H131504   5.006   6.021   7.347  1.4108  0.0383  1.2443
 3315TIP3    H231505   5.052   6.085   7.476  0.3526  2.8051  0.3316
 3316TIP3   OH231506   0.954   3.003   7.179 -0.4549 -0.3488  0.2377
 3316TIP3    H131507   0.911   3.020   7.095 -0.3735  0.1604  0.2944
 3316TIP3    H231508   1.002   2.921   7.166  0.4840  0.3058 -0.5788
 3317TIP3   OH231509   1.956   1.083   2.052  0.6653 -0.2612 -0.6465
 3317TIP3    H131510   1.905   1.010   2.016 -1.1461 -0.4769  2.0409
 3317TIP3    H231511   1.896   1.158   2.046  1.5107  0.3959 -0.9693
 3318TIP3   OH231512   1.969   3.456   0.740 -0.0305 -0.0687  0.1896
 3318TIP3    H131513   1.949   3.447   0.833 -0.8751  0.6422  0.0889
 3318TIP3    H231514   1.972   3.551   0.725 -0.6813 -0.1701 -0.6613
 3319TIP3   OH231515   1.733   2.835   2.873 -0.7218 -0.1558 -0.2883
 3319TIP3    H131516   1.766   2.910   2.921  0.7552 -0.1391 -1.2775
 3319TIP3    H231517   1.736   2.862   2.781 -1.2711 -1.0193 -0.5737
 3320TIP3   OH231518   0.376   3.376   7.870  0.3928 -0.1726  0.3094
 3320TIP3    H131519   0.451   3.436   7.867 -1.0018  1.6389 -0.7772
 3320TIP3    H231520   0.337   3.391   7.956  0.8412 -0.5685  0.5855
 3321TIP3   OH231521   1.220   6.014   2.721 -0.5166 -0.3016  0.1927
 3321TIP3    H131522   1.204   6.108   2.712  1.7573 -0.0029 -1.6836
 3321TIP3    H231523   1.230   5.983   2.631 -1.6971 -2.4850  0.7476
 3322TIP3   OH231524   1.318   2.556   2.320  0.2141  0.2236 -0.3830
 3322TIP3    H131525   1.298   2.645   2.348 -0.3077  0.4215 -1.3366
 3322TIP3    H231526   1.293   2.501   2.394 -1.4268  0.6970 -0.5536
 3323TIP3   OH231527   2.961   1.904   0.412 -0.7463  0.2072 -0.2153
 3323TIP3    H131528   2.871   1.933   0.425 -0.7595  0.8960 -1.7013
 3323TIP3    H231529   2.955   1.808   0.412 -1.2120  0.2127  1.3169
 3324TIP3   OH231530   6.214   3.718   6.446  0.0691  0.6811  0.4253
 3324TIP3    H131531   6.146   3.735   6.511  0.0010  3.0081 -0.1664
 3324TIP3    H231532   6.206   3.790   6.384  1.9954  0.0861 -0.5823
 3325TIP3   OH231533   5.782   3.243   0.344 -0.8031  0.1701  0.9082
 3325TIP3    H131534   5.825   3.246   0.430  1.4027  2.4988 -0.1651
 3325TIP3    H231535   5.778   3.334   0.315  2.0510 -0.7104 -3.0603
 3326TIP3   OH231536   2.606   2.961   0.468  0.4071 -0.2071  0.8098
 3326TIP3    H131537   2.599   3.055   0.488 -1.1581 -0.6720  2.6696
 3326TIP3    H231538   2.610   2.958   0.372  0.1493  1.7369  0.6816
 3327TIP3   OH231539   1.870   2.911   7.375  0.4337 -0.4733  0.1426
 3327TIP3    H131540   1.958   2.876   7.365  0.5937  0.1976 -1.0492
 3327TIP3    H231541   1.838   2.922   7.285 -0.6119 -0.0973  0.5376
 3328TIP3   OH231542   4.701   3.664   2.485  0.2975 -0.1193  0.0242
 3328TIP3    H131543   4.764   3.680   2.415  0.1262  0.7781  0.0677
 3328TIP3    H231544   4.745   3.691   2.565 -0.6082  1.8754 -0.0967
 3329TIP3   OH231545   6.109   0.560   1.685  0.6734 -0.4542  0.1082
 3329TIP3    H131546   6.108   0.488   1.748  1.1437  0.1454  0.8200
 3329TIP3    H231547   6.196   0.555   1.644  0.6856 -0.3230  0.1179
 3330TIP3   OH231548   0.869   4.771   1.007 -0.0414  0.5051  0.6455
 3330TIP3    H131549   0.776   4.772   1.030 -0.1026  0.7163  0.3970
 3330TIP3    H231550   0.913   4.809   1.083 -0.3154  1.9306  0.1185
 3331TIP3   OH231551   3.231   3.891   1.546 -0.9334 -0.0168  0.3502
 3331TIP3    H131552   3.244   3.961   1.482 -1.9053  0.4418  0.6370
 3331TIP3    H231553   3.311   3.892   1.599 -0.9336  0.8822  0.3500
 3332TIP3   OH231554   4.469   2.969   0.948 -0.6654  0.2652  0.0219
 3332TIP3    H131555   4.496   2.920   0.871 -1.9861  1.8638 -1.5270
 3332TIP3    H231556   4.445   3.056   0.915 -0.6846  1.2170  2.3211
 3333TIP3   OH231557   2.135   2.525   0.146 -0.5117 -1.0607  0.0229
 3333TIP3    H131558   2.084   2.558   0.220 -1.6725  1.3105 -1.6823
 3333TIP3    H231559   2.218   2.571   0.151 -0.2438 -1.5615  0.3039
 3334TIP3   OH231560   2.548   0.488   7.810  0.1201 -0.0565 -0.2951
 3334TIP3    H131561   2.551   0.551   7.738  1.1902 -1.2062 -1.3013
 3334TIP3    H231562   2.629   0.438   7.802 -0.8596 -1.8243  0.2145
 3335TIP3   OH231563   3.709   3.029   2.272 -0.1016  0.1610 -0.0146
 3335TIP3    H131564   3.762   2.957   2.236  0.3718  1.2349 -1.5625
 3335TIP3    H231565   3.746   3.044   2.359 -0.4760 -1.7015  0.5173
 3336TIP3   OH231566   6.391   4.316   8.023  0.0166  0.0769  0.4046
 3336TIP3    H131567   6.431   4.382   8.079  1.8160 -1.0281  0.4965
 3336TIP3    H231568   6.465   4.269   7.984 -1.1886 -0.3580 -1.4994
 3337TIP3   OH231569   5.367   4.109   7.649 -0.3710  0.6951 -0.2196
 3337TIP3    H131570   5.433   4.176   7.665 -0.2572  0.8886 -1.4132
 3337TIP3    H231571   5.337   4.125   7.560 -3.0767  1.4981  0.7232
 3338TIP3   OH231572   4.888   2.173   7.393  1.1911 -0.5407  0.2223
 3338TIP3    H131573   4.930   2.255   7.366  0.7310 -0.2244  0.4566
 3338TIP3    H231574   4.961   2.114   7.409  1.5519 -0.0461  0.4552
 3339TIP3   OH231575   4.609   3.567   0.602  0.5609  0.0847  0.4036
 3339TIP3    H131576   4.604   3.578   0.697  0.7974  1.6760  0.2548
 3339TIP3    H231577   4.541   3.624   0.567  3.4895  3.3634 -0.5340
 3340TIP3   OH231578   5.597   5.259   0.365  0.5475 -0.0119  0.1530
 3340TIP3    H131579   5.668   5.202   0.391  0.9945  0.7015  0.5420
 3340TIP3    H231580   5.566   5.299   0.447  0.5309  0.6156 -0.1472
 3341TIP3   OH231581   6.430   3.872   8.156  0.1496 -0.0516  0.1269
 3341TIP3    H131582   6.413   3.778   8.150  0.0842 -0.0499  0.2715
 3341TIP3    H231583   6.525   3.880   8.150  0.1366 -0.1066 -0.1445
 3342TIP3   OH231584   2.174   4.962   7.252  0.3597 -0.0867  0.3126
 3342TIP3    H131585   2.172   5.028   7.183  1.1406 -0.8173 -0.4373
 3342TIP3    H231586   2.258   4.976   7.297  1.0282 -1.2118 -0.5295
 3343TIP3   OH231587   0.220   4.172   1.328  0.4476 -0.1964 -0.3513
 3343TIP3    H131588   0.265   4.243   1.373  1.2854  0.4953 -2.1893
 3343TIP3    H231589   0.269   4.093   1.352 -0.1287 -0.1061  1.2236
 3344TIP3   OH231590   6.142   1.626   1.097 -0.3860  0.1738  0.6443
 3344TIP3    H131591   6.199   1.554   1.069 -0.6974  0.2786 -0.2984
 3344TIP3    H231592   6.180   1.703   1.055 -0.0520  0.5753  1.6521
 3345TIP3   OH231593   4.130   5.019   8.665 -0.0290  0.0741 -0.1430
 3345TIP3    H131594   4.119   4.972   8.748 -1.2614 -0.4223 -0.5711
 3345TIP3    H231595   4.195   5.087   8.685  1.5479 -1.5555  0.5939
 3346TIP3   OH231596   6.742   5.438   2.072  0.1425 -0.5451 -0.7225
 3346TIP3    H131597   6.709   5.528   2.070  0.6494 -0.3743 -1.7916
 3346TIP3    H231598   6.700   5.395   1.998 -0.0345 -1.1775 -0.2633
 3347TIP3   OH231599   1.242   5.707   2.041  0.0386 -0.6605  0.1426
 3347TIP3    H131600   1.150   5.686   2.030 -0.6157  1.1497  1.6496
 3347TIP3    H231601   1.248   5.743   2.129  2.1369 -0.4101 -0.0516
 3348TIP3   OH231602   2.615   5.850   0.496  0.3302 -0.1440  0.4540
 3348TIP3    H131603   2.606   5.945   0.498 -1.3263 -0.2899  1.6234
 3348TIP3    H231604   2.709   5.835   0.508  0.8038  1.3383 -1.0351
 3349TIP3   OH231605   6.556   6.494   2.316 -0.0041 -0.2889 -0.2739
 3349TIP3    H131606   6.475   6.456   2.351 -0.8803  1.7460  0.0549
 3349TIP3    H231607   6.613   6.503   2.392  0.6528 -1.8902 -0.5345
 3350TIP3   OH231608   4.134   2.326   6.971 -0.1322  0.0538  0.3280
 3350TIP3    H131609   4.122   2.312   7.065 -2.3015 -0.3370  0.0532
 3350TIP3    H231610   4.172   2.244   6.940 -1.5181 -0.7202  0.5651
 3351TIP3   OH231611   4.331   4.299   2.046  0.3584  0.1549 -0.2318
 3351TIP3    H131612   4.369   4.212   2.038  1.1970  0.4608  0.3192
 3351TIP3    H231613   4.347   4.340   1.961 -1.6077 -0.8067 -1.1413
 3352TIP3   OH231614   3.566   2.519   8.395 -0.1048  0.2242  0.1203
 3352TIP3    H131615   3.472   2.537   8.402  0.1559  2.0085 -0.4631
 3352TIP3    H231616   3.580   2.497   8.302 -0.0763 -1.0016  0.3989
 3353TIP3   OH231617   5.673   2.409   7.917 -0.2391  0.7805  0.2590
 3353TIP3    H131618   5.718   2.338   7.871 -2.6326 -2.1937  2.0781
 3353TIP3    H231619   5.726   2.424   7.996 -1.5093 -1.7409  1.7141
 3354TIP3   OH231620   6.357   3.373   8.405  0.3025  0.1322  0.3768
 3354TIP3    H131621   6.277   3.425   8.416  0.1403  0.1446 -0.7568
 3354TIP3    H231622   6.332   3.285   8.433 -0.7478 -0.3547 -1.8989
 3355TIP3   OH231623   4.490   5.322   2.243 -0.0504 -0.0079 -0.1792
 3355TIP3    H131624   4.541   5.245   2.266  1.2420  0.1449 -2.2844
 3355TIP3    H231625   4.491   5.324   2.147 -1.3006  1.8154 -0.2118
 3356TIP3   OH231626   0.262   6.075   8.394 -0.2646  0.6286 -0.3382
 3356TIP3    H131627   0.249   6.168   8.377 -1.4047  0.4789 -0.3894
 3356TIP3    H231628   0.175   6.044   8.421  0.0965 -0.4262 -0.3673
 3357TIP3   OH231629   2.748   5.925   1.320 -0.2998 -0.0216 -0.9605
 3357TIP3    H131630   2.725   6.017   1.305 -1.0954  0.0981  0.7497
 3357TIP3    H231631   2.844   5.925   1.323 -0.2888  1.2679  1.5779
 3358TIP3   OH231632   4.174   3.665   1.906  0.3783 -0.6959 -0.0926
 3358TIP3    H131633   4.146   3.632   1.991  0.2752  0.5603  0.3910
 3358TIP3    H231634   4.153   3.595   1.844  0.0611 -1.4549  0.8540
 3359TIP3   OH231635   5.217   3.052   0.667 -0.1790  0.3234 -0.0407
 3359TIP3    H131636   5.154   3.016   0.729  0.8542 -1.8451 -0.1682
 3359TIP3    H231637   5.208   2.998   0.589  1.8382 -0.0650 -0.0496
 3360TIP3   OH231638   0.311   6.711   0.914  0.5381  0.0412 -0.4503
 3360TIP3    H131639   0.250   6.645   0.881 -0.3401  1.0213 -0.8369
 3360TIP3    H231640   0.389   6.701   0.859 -0.0785  0.1699 -1.3846
 3361TIP3   OH231641   1.806   5.049   0.106 -0.1787 -0.1892 -0.0853
 3361TIP3    H131642   1.881   5.053   0.166 -0.4064  1.8204  0.1540
 3361TIP3    H231643   1.753   4.976   0.137  0.2338  0.1688  1.5359
 3362TIP3   OH231644   6.672   0.158   1.299  0.3162 -0.1277  0.8867
 3362TIP3    H131645   6.578   0.140   1.301  0.0882  1.0058  2.1956
 3362TIP3    H231646   6.680   0.246   1.264  1.0186 -0.7435 -0.5737
 3363TIP3   OH231647   6.728   6.603   1.501  0.3374 -0.7080  0.2833
 3363TIP3    H131648   6.813   6.604   1.457  0.1420 -1.9092 -0.1458
 3363TIP3    H231649   6.749   6.582   1.592  0.5430 -0.3834  0.3147
 3364TIP3   OH231650   6.131   1.481   7.632 -0.2825  0.0899 -0.2465
 3364TIP3    H131651   6.171   1.496   7.547 -0.2555 -0.0091 -0.2508
 3364TIP3    H231652   6.196   1.515   7.695 -1.4478  2.7754 -0.3601
 3365TIP3   OH231653   1.750   5.266   0.910  0.2962  0.2608  0.2235
 3365TIP3    H131654   1.754   5.360   0.926 -0.9626  0.2274  0.8206
 3365TIP3    H231655   1.775   5.257   0.818  0.3545  1.1877  0.1360
 3366TIP3   OH231656   6.377   3.909   7.254 -0.1234 -0.5915  0.1653
 3366TIP3    H131657   6.393   3.855   7.332 -0.1139 -1.8493 -0.6870
 3366TIP3    H231658   6.406   3.855   7.181  0.7991  0.9676 -0.6603
 3367TIP3   OH231659   2.602   5.191   1.453 -0.1555 -0.0257 -0.1318
 3367TIP3    H131660   2.693   5.164   1.453 -0.3516 -0.8014  1.4613
 3367TIP3    H231661   2.557   5.126   1.399  0.2107  0.3448 -0.9010
 3368TIP3   OH231662   5.114   1.845   1.900  0.6136 -0.1377 -0.0018
 3368TIP3    H131663   5.144   1.783   1.834 -0.0830 -1.8379  1.1887
 3368TIP3    H231664   5.139   1.805   1.983  0.8212  1.5841  0.8030
 3369TIP3   OH231665   4.346   3.683   2.282 -0.5081 -0.1406  0.2659
 3369TIP3    H131666   4.387   3.714   2.201 -1.0351  0.6887  0.3002
 3369TIP3    H231667   4.392   3.602   2.303  0.7821  0.5169  0.0580
 3370TIP3   OH231668   0.729   0.026   8.467 -0.1263  0.0063  0.2423
 3370TIP3    H131669   0.661  -0.040   8.457  0.4162 -1.0771  2.7917
 3370TIP3    H231670   0.715   0.061   8.555  1.7800  0.7216  0.3193
 3371TIP3   OH231671   4.748   5.841   2.307 -0.2676 -0.0155 -0.4573
 3371TIP3    H131672   4.706   5.903   2.248 -1.0459 -1.4038 -1.4138
 3371TIP3    H231673   4.681   5.775   2.323 -0.1481  0.4097  2.1785
 3372TIP3   OH231674   2.427   1.195   8.398  0.4770 -0.0828 -0.1311
 3372TIP3    H131675   2.453   1.106   8.421  0.8814  0.8142  3.5154
 3372TIP3    H231676   2.510   1.241   8.384  0.3400  0.0980 -0.3506
 3373TIP3   OH231677   0.117   2.564   1.707 -0.1337 -0.1373 -0.4140
 3373TIP3    H131678   0.129   2.573   1.802 -0.4874  0.3091 -0.4104
 3373TIP3    H231679   0.159   2.641   1.670  1.7624 -1.2852 -0.7697
 3374TIP3   OH231680   0.342   6.363   7.580 -0.0778  0.6723  0.7921
 3374TIP3    H131681   0.385   6.318   7.507  1.8574  1.8056  1.1592
 3374TIP3    H231682   0.361   6.308   7.656 -4.2655 -1.9166  0.2492
 3375TIP3   OH231683   1.665   0.040   1.347 -0.0671 -0.0394 -0.2588
 3375TIP3    H131684   1.646   0.010   1.436  3.1371  0.8642  0.8550
 3375TIP3    H231685   1.600  -0.004   1.292 -1.3477 -1.6178  2.3566
 3376TIP3   OH231686   1.405   0.589   0.169  0.6545 -0.0106  0.4392
 3376TIP3    H131687   1.450   0.659   0.217  1.2698 -0.0829 -0.0076
 3376TIP3    H231688   1.477   0.537   0.131  0.1837 -0.0188 -0.4537
 3377TIP3   OH231689   4.808   6.362   1.492  0.4847  0.1364 -0.0318
 3377TIP3    H131690   4.765   6.283   1.526  1.3864 -0.1643  0.4704
 3377TIP3    H231691   4.894   6.362   1.535  0.1580  1.9071  0.7231
 3378TIP3   OH231692   6.777   4.276   1.765  0.1296 -0.1087 -0.2306
 3378TIP3    H131693   6.698   4.301   1.719  0.9415 -0.6389 -2.0229
 3378TIP3    H231694   6.811   4.201   1.715  1.2527 -0.5089  1.0525
 3379TIP3   OH231695   6.448   2.066   1.810  0.3088  0.0688 -0.4995
 3379TIP3    H131696   6.386   2.007   1.768 -0.1737 -0.4573  0.8812
 3379TIP3    H231697   6.483   2.015   1.883 -0.8189  1.7632  1.3163
 3380TIP3   OH231698   4.122   3.752   0.053 -0.2545 -0.3560  0.0885
 3380TIP3    H131699   4.180   3.676   0.058 -1.9256 -1.7288 -0.4008
 3380TIP3    H231700   4.111   3.780   0.145 -1.2867 -2.0729  0.5337
 3381TIP3   OH231701   3.231   2.307   0.513  0.5081 -0.1313 -0.5170
 3381TIP3    H131702   3.151   2.255   0.527  1.5197 -1.3472  1.2118
 3381TIP3    H231703   3.290   2.247   0.466  0.5874  0.6113 -1.3983
 3382TIP3   OH231704   3.830   2.992   8.782  0.2609 -0.0289  0.0597
 3382TIP3    H131705   3.871   3.054   8.722  1.0133  0.6636  1.2627
 3382TIP3    H231706   3.756   3.039   8.819 -0.1509 -0.4238 -0.2634
 3383TIP3   OH231707   2.888   3.627   8.374 -0.0845  0.5353  0.0379
 3383TIP3    H131708   2.917   3.672   8.454  0.5470 -0.5912  0.4672
 3383TIP3    H231709   2.821   3.566   8.405  0.3061 -0.0489 -0.2567
 3384TIP3   OH231710   5.747   6.787   2.336  0.5244  0.2816 -0.0856
 3384TIP3    H131711   5.692   6.804   2.413 -0.1882 -0.4296 -0.4178
 3384TIP3    H231712   5.824   6.743   2.372  0.3310  0.2134  0.2573
 3385TIP3   OH231713   0.060   4.426   7.007 -0.8372  0.3594 -0.6995
 3385TIP3    H131714  -0.019   4.462   6.967 -1.7480  1.0666  1.6204
 3385TIP3    H231715   0.093   4.496   7.062  0.0274 -0.7707  0.2702
 3386TIP3   OH231716   0.022   0.491   8.474 -0.2629  0.1029  0.6375
 3386TIP3    H131717   0.001   0.475   8.566 -0.7033  1.9563  0.8991
 3386TIP3    H231718   0.113   0.520   8.475  0.0775 -0.9081  0.3400
 3387TIP3   OH231719   1.622   4.338   1.658  0.1433  0.0746 -0.8388
 3387TIP3    H131720   1.543   4.391   1.664  0.9100  1.1688  0.2375
 3387TIP3    H231721   1.598   4.255   1.699  0.0511  1.0788  1.2843
 3388TIP3   OH231722   5.625   4.950   8.508  0.1766 -0.0335 -0.1963
 3388TIP3    H131723   5.594   4.958   8.598  3.6159 -1.5014  1.3095
 3388TIP3    H231724   5.601   5.033   8.467 -1.6188  0.6455  1.9811
 3389TIP3   OH231725   2.213   0.416   8.684  0.3812  0.8019  0.1114
 3389TIP3    H131726   2.159   0.495   8.690 -1.6415 -0.2751 -2.2495
 3389TIP3    H231727   2.192   0.366   8.763  1.6678  2.5289  1.6137
 3390TIP3   OH231728   2.667   6.620   2.312 -0.1906  0.9023  0.5780
 3390TIP3    H131729   2.585   6.597   2.269  0.6429 -0.7394 -0.1953
 3390TIP3    H231730   2.644   6.624   2.405 -0.9621 -0.4984  0.4825
 3391TIP3   OH231731   3.347   4.550   2.538 -0.4356 -0.1964 -0.2946
 3391TIP3    H131732   3.353   4.630   2.589 -2.5285  0.2404 -0.6362
 3391TIP3    H231733   3.368   4.576   2.449 -0.3882 -0.1939 -0.2831
 3392TIP3   OH231734   0.775   5.015   7.725  0.1488  0.4046 -0.3745
 3392TIP3    H131735   0.870   5.023   7.723  0.2349  0.5363  2.1053
 3392TIP3    H231736   0.754   4.963   7.647  2.3020 -0.2017 -0.6119
 3393TIP3   OH231737   6.628   4.674   0.834  0.5984 -0.1553 -0.1736
 3393TIP3    H131738   6.589   4.587   0.824  0.9107 -0.3998  0.6089
 3393TIP3    H231739   6.642   4.683   0.928 -1.8390  1.8240  0.1034
 3394TIP3   OH231740   4.240   5.319   7.911 -0.1511 -0.4606  0.0204
 3394TIP3    H131741   4.179   5.250   7.938  1.1483 -1.3252  0.8371
 3394TIP3    H231742   4.248   5.308   7.816 -0.6135 -0.8611  0.0230
 3395TIP3   OH231743   1.099   4.967   1.157  0.3838 -0.2195  0.2149
 3395TIP3    H131744   1.090   5.058   1.129  0.1368 -0.3840 -0.2519
 3395TIP3    H231745   1.146   4.924   1.085  1.6207 -0.1942  0.9819
 3396TIP3   OH231746   5.437   2.552   1.259 -0.5851 -0.1563  0.0425
 3396TIP3    H131747   5.437   2.582   1.168  0.3038  0.8155  0.3358
 3396TIP3    H231748   5.356   2.504   1.269 -1.2782  0.7660 -0.9317
 3397TIP3   OH231749   1.620   0.284   8.733  0.1124 -0.2605  0.8259
 3397TIP3    H131750   1.615   0.285   8.637 -0.5784  0.0284  0.8594
 3397TIP3    H231751   1.626   0.191   8.756  0.1605 -0.3354  0.5126
 3398TIP3   OH231752   4.238   1.440   7.639 -0.9131 -0.2459  0.3708
 3398TIP3    H131753   4.308   1.495   7.673 -0.6683 -2.1084  3.2441
 3398TIP3    H231754   4.157   1.486   7.663 -0.7106  0.6091 -0.5489
 3399TIP3   OH231755   0.537   0.772   0.596 -0.7573 -0.2177  0.1743
 3399TIP3    H131756   0.458   0.782   0.543 -0.7406  1.0165  0.3626
 3399TIP3    H231757   0.588   0.851   0.579 -1.2291  0.7269  2.8113
 3400TIP3   OH231758   0.116   0.016   0.222  0.3710 -0.0639 -0.1959
 3400TIP3    H131759   0.065   0.090   0.189 -0.6529 -1.1500 -1.1105
 3400TIP3    H231760   0.170  -0.013   0.148  1.1539  0.0682  0.3038
 3401TIP3   OH231761   5.792   1.340   1.814  0.2919 -0.2015  0.7097
 3401TIP3    H131762   5.854   1.355   1.743 -2.9268  0.6478 -2.2465
 3401TIP3    H231763   5.766   1.248   1.804 -0.9381  0.1996  0.0368
 3402TIP3   OH231764   6.769   0.596   7.947  0.1688  0.3509 -0.6772
 3402TIP3    H131765   6.778   0.506   7.915 -0.6601  0.5876 -1.6293
 3402TIP3    H231766   6.675   0.606   7.965  0.4732  0.5406  0.9396
 3403TIP3   OH231767   1.344   2.256   1.329  0.2001  0.4383 -0.6254
 3403TIP3    H131768   1.430   2.254   1.372  0.4768 -0.5210 -1.1772
 3403TIP3    H231769   1.357   2.204   1.249 -1.0783 -0.3368 -0.3544
 3404TIP3   OH231770   5.768   2.454   3.020  0.3019 -0.2173 -0.3094
 3404TIP3    H131771   5.845   2.401   3.040  0.9124  0.9589  0.5833
 3404TIP3    H231772   5.797   2.544   3.033 -1.3941  0.2255  0.6794
 3405TIP3   OH231773   4.504   2.709   1.813  0.2615 -0.0684 -0.2401
 3405TIP3    H131774   4.507   2.665   1.729 -0.7895 -1.6206  0.4959
 3405TIP3    H231775   4.496   2.639   1.877  2.0026  0.9930  1.2668
 3406TIP3   OH231776   5.108   0.400   8.180  0.3572 -0.2306 -0.1214
 3406TIP3    H131777   5.162   0.321   8.182  0.6182 -0.0463  0.2343
 3406TIP3    H231778   5.018   0.368   8.190  0.4898 -0.4552  0.3596
 3407TIP3   OH231779   4.614   0.362   0.826  0.0140  0.0633 -0.0353
 3407TIP3    H131780   4.665   0.304   0.770  1.6961  0.8740  0.5817
 3407TIP3    H231781   4.678   0.400   0.886 -1.6402 -0.5316  2.2657
 3408TIP3   OH231782   6.305   5.244   0.705 -0.2084 -0.4530  0.2041
 3408TIP3    H131783   6.297   5.304   0.631 -1.5259  1.6821  1.9500
 3408TIP3    H231784   6.344   5.297   0.775 -0.1426 -2.0297  1.4219
 3409TIP3   OH231785   0.925   6.225   7.713  0.2934 -0.8385  0.6853
 3409TIP3    H131786   0.830   6.216   7.709 -0.1711  2.8733 -2.6564
 3409TIP3    H231787   0.941   6.273   7.795 -1.0848  0.8668  0.0080
 3410TIP3   OH231788   4.905   2.549   2.553  0.1418 -0.3190  0.2986
 3410TIP3    H131789   4.961   2.567   2.628 -0.3574  0.1874  0.5574
 3410TIP3    H231790   4.817   2.574   2.582 -0.2602 -1.2899 -0.0251
 3411TIP3   OH231791   4.187   0.049   2.766  0.4686 -0.7562 -0.2085
 3411TIP3    H131792   4.100   0.038   2.803  0.2038 -0.1927 -0.6634
 3411TIP3    H231793   4.236  -0.027   2.798 -0.3187 -1.3255 -0.3481
 3412TIP3   OH231794   1.877   2.630   7.144 -0.9489 -0.4983  0.2675
 3412TIP3    H131795   1.782   2.643   7.154 -0.5211  3.2092  0.7168
 3412TIP3    H231796   1.891   2.635   7.049 -1.1824 -0.8812  0.2112
 3413TIP3   OH231797   1.010   5.345   8.659  0.1892  0.0273  0.1698
 3413TIP3    H131798   0.937   5.352   8.597 -0.1596 -2.4286  0.1970
 3413TIP3    H231799   1.086   5.375   8.609 -0.6156  1.4056 -0.2756
 3414TIP3   OH231800   3.827   0.202   0.047  0.1553 -0.0927  0.8836
 3414TIP3    H131801   3.814   0.121  -0.002  1.5608 -0.3739  0.9358
 3414TIP3    H231802   3.766   0.265   0.007  1.9004 -0.0185 -1.9157
 3415TIP3   OH231803   6.336   6.079   8.544  0.3662 -0.1862  0.5796
 3415TIP3    H131804   6.391   6.112   8.615  0.9598 -1.0191  0.5104
 3415TIP3    H231805   6.327   6.154   8.485  1.1351  0.0648  0.7673
 3416TIP3   OH231806   3.545   2.681   2.753  0.1246  0.0888  0.3759
 3416TIP3    H131807   3.568   2.703   2.662  3.6947 -1.1183  0.8169
 3416TIP3    H231808   3.484   2.608   2.746 -2.1689  1.9698 -0.9554
 3417TIP3   OH231809   0.827   4.293   1.617 -0.5322 -0.8775  0.0400
 3417TIP3    H131810   0.871   4.234   1.678 -1.1169  0.0785  1.4264
 3417TIP3    H231811   0.873   4.377   1.627 -0.3919 -0.7967 -1.1237
 3418TIP3   OH231812   3.915   2.063   7.956  0.3538 -0.1500 -0.4407
 3418TIP3    H131813   3.880   1.994   8.013  2.5864  0.2634  1.5577
 3418TIP3    H231814   3.974   2.017   7.896  1.5614 -0.0821  0.6549
 3419TIP3   OH231815   4.108   3.312   2.789  0.2258  0.1315 -0.0140
 3419TIP3    H131816   4.203   3.317   2.779  0.4623  0.4112  1.9209
 3419TIP3    H231817   4.081   3.402   2.808 -0.1976 -0.1877  0.9724
 3420TIP3   OH231818   1.408   1.530   3.047  0.4036 -0.7977  0.1741
 3420TIP3    H131819   1.474   1.544   2.979  0.5858 -0.0020  0.5063
 3420TIP3    H231820   1.431   1.446   3.086 -0.5473 -2.0186 -1.6949
 3421TIP3   OH231821   4.563   4.207   8.365  0.1315  0.2613  0.4943
 3421TIP3    H131822   4.501   4.268   8.405 -1.3128 -1.0253  0.3319
 3421TIP3    H231823   4.508   4.150   8.312  1.4498 -1.0346  0.4793
 3422TIP3   OH231824   3.673   4.368   8.270  0.2784 -0.3218  0.1770
 3422TIP3    H131825   3.701   4.409   8.352 -0.2502  1.3414 -0.4334
 3422TIP3    H231826   3.753   4.331   8.233  1.4632  2.7648 -0.6633
 3423TIP3   OH231827   5.294   4.360   0.201 -0.3976 -0.2955  0.1200
 3423TIP3    H131828   5.357   4.356   0.128 -0.0080  1.1348  0.3467
 3423TIP3    H231829   5.208   4.358   0.158 -0.1742  1.8443 -0.5108
 3424TIP3   OH231830   0.466   3.833   0.777 -1.0614 -0.6162 -0.6409
 3424TIP3    H131831   0.526   3.868   0.710 -0.3400 -1.7123 -0.6034
 3424TIP3    H231832   0.392   3.894   0.777  1.3657  2.6787  1.5491
 3425TIP3   OH231833   5.517   3.574   7.422  0.3801 -0.0403 -0.3737
 3425TIP3    H131834   5.519   3.619   7.338 -0.4007 -0.8674 -0.8529
 3425TIP3    H231835   5.523   3.644   7.487 -2.8019  1.0117 -1.0396
 3426TIP3   OH231836   1.972   2.858   0.189 -0.3857 -0.9330 -0.2999
 3426TIP3    H131837   1.892   2.806   0.193 -1.1397  0.2625  1.2237
 3426TIP3    H231838   1.997   2.872   0.281 -1.3267  2.9544 -0.4557
 3427TIP3   OH231839   3.816   4.574   1.527 -0.4858 -0.0178  0.5546
 3427TIP3    H131840   3.728   4.610   1.524 -0.7524 -0.6911 -0.3742
 3427TIP3    H231841   3.854   4.597   1.442  0.2242  0.2267  0.9266
 3428TIP3   OH231842   2.161   1.466   7.739  0.1268 -0.3770 -0.3469
 3428TIP3    H131843   2.117   1.447   7.656 -1.0271  1.3708 -0.1784
 3428TIP3    H231844   2.092   1.495   7.798  1.2528  0.8135  0.4518
 3429TIP3   OH231845   1.805   2.190   1.425 -0.5125  0.5975 -0.3302
 3429TIP3    H131846   1.893   2.217   1.454 -0.0396  0.0336 -1.1996
 3429TIP3    H231847   1.781   2.119   1.484  0.2296 -0.2120 -0.9945
 3430TIP3   OH231848   6.558   0.322   2.048  0.4773  0.0607 -0.1896
 3430TIP3    H131849   6.644   0.301   2.014  0.1888 -1.2265 -0.1847
 3430TIP3    H231850   6.532   0.244   2.097  0.2918  1.2908  1.8259
 3431TIP3   OH231851   1.391   2.100   8.572 -0.1955  0.1412  0.2288
 3431TIP3    H131852   1.457   2.055   8.519 -0.9981  0.6033 -1.2176
 3431TIP3    H231853   1.353   2.031   8.627 -2.0147 -1.2482 -2.5551
 3432TIP3   OH231854   2.952   0.542   1.799 -0.1018  0.4829 -0.3102
 3432TIP3    H131855   2.958   0.637   1.812 -0.1511  0.3244  1.0871
 3432TIP3    H231856   2.883   0.515   1.860 -0.4808 -0.3881 -1.1030
 3433TIP3   OH231857   2.567   5.255   7.751 -0.3187  0.6353 -0.4040
 3433TIP3    H131858   2.492   5.215   7.707 -0.7189  1.5350 -0.5581
 3433TIP3    H231859   2.619   5.292   7.680  1.3318 -1.6481 -0.4995
 3434TIP3   OH231860   3.010   6.653   7.790  0.2261 -0.4366 -0.5215
 3434TIP3    H131861   3.105   6.644   7.797  0.5508  2.1030 -0.8675
 3434TIP3    H231862   2.993   6.654   7.696 -0.2271 -1.3762 -0.4594
 3435TIP3   OH231863   6.228   2.100   8.206 -0.2474 -0.6516 -0.3884
 3435TIP3    H131864   6.151   2.052   8.175 -0.1332 -0.9854 -0.1513
 3435TIP3    H231865   6.242   2.068   8.294  0.0230 -0.4132 -0.3451
 3436TIP3   OH231866   6.473   5.348   1.137 -0.8138  0.1133  0.4916
 3436TIP3    H131867   6.390   5.358   1.184 -0.6319 -0.7945  1.0457
 3436TIP3    H231868   6.530   5.415   1.173 -0.9113 -0.0971  1.0414
 3437TIP3   OH231869   4.583   5.077   0.921 -0.1757  0.1388 -0.0789
 3437TIP3    H131870   4.645   5.054   0.989  0.3204  0.3439 -0.4573
 3437TIP3    H231871   4.603   5.168   0.899 -0.4656  0.1391 -0.3537
 3438TIP3   OH231872   6.445   3.134   1.804 -0.1732 -0.0130 -0.5863
 3438TIP3    H131873   6.502   3.106   1.732  1.3834  3.6637 -1.0122
 3438TIP3    H231874   6.495   3.113   1.883  1.3595  1.9938 -0.9239
 3439TIP3   OH231875   0.720   4.992   0.552  0.1594  0.2602  0.2814
 3439TIP3    H131876   0.802   4.970   0.596  1.1691  0.7289 -1.2789
 3439TIP3    H231877   0.652   4.965   0.614  1.4778  0.3345  1.8333
 3440TIP3   OH231878   0.576   5.914   2.359  0.0799 -0.4136  0.0387
 3440TIP3    H131879   0.496   5.929   2.409  0.2457  1.9556 -0.2946
 3440TIP3    H231880   0.636   5.983   2.388  0.7332  0.0794 -2.2906
 3441TIP3   OH231881   2.540   3.204   1.628 -0.7810 -0.0708  0.1420
 3441TIP3    H131882   2.511   3.143   1.696 -0.4962 -0.5268 -0.1391
 3441TIP3    H231883   2.577   3.148   1.559  1.3791  0.4931  0.7641
 3442TIP3   OH231884   5.547   5.910   0.969 -0.1941 -0.5430 -0.0505
 3442TIP3    H131885   5.479   5.920   0.902 -1.6500 -1.4393  1.2412
 3442TIP3    H231886   5.601   5.989   0.960 -2.1252  0.8047 -0.3105
 3443TIP3   OH231887   6.310   3.349   1.720 -0.3562 -0.9625  0.1626
 3443TIP3    H131888   6.370   3.277   1.740 -0.3064 -1.1475 -0.6167
 3443TIP3    H231889   6.277   3.329   1.632 -1.2329 -0.6383  0.4039
 3444TIP3   OH231890   1.402   0.283   8.484 -0.5657  0.6372 -0.5284
 3444TIP3    H131891   1.328   0.240   8.440  0.4851 -1.3127 -0.5214
 3444TIP3    H231892   1.479   0.235   8.453  0.2107 -1.5077  3.9429
 3445TIP3   OH231893   5.985   4.466   0.038 -0.5737  0.1106  0.0306
 3445TIP3    H131894   5.984   4.428  -0.049 -2.0356  0.4074 -0.1130
 3445TIP3    H231895   6.059   4.526   0.038 -0.6714  0.2442 -1.0793
 3446TIP3   OH231896   6.534   1.210   0.420  0.4557  0.1268  0.4702
 3446TIP3    H131897   6.541   1.243   0.331 -1.2706  0.5277  0.4554
 3446TIP3    H231898   6.547   1.115   0.412  0.8945  0.2297 -0.1080
 3447TIP3   OH231899   0.360   2.970   2.971 -0.9366 -0.2443  0.5017
 3447TIP3    H131900   0.335   2.885   3.007  0.1312 -0.1572  1.5165
 3447TIP3    H231901   0.337   3.033   3.040 -1.7099  0.2930 -0.2377
 3448TIP3   OH231902   3.422   6.398   1.354 -0.1356  0.6725 -0.0569
 3448TIP3    H131903   3.471   6.364   1.279 -0.0604  1.0077 -0.1612
 3448TIP3    H231904   3.335   6.420   1.319 -1.6117 -3.0909  0.7831
 3449TIP3   OH231905   0.281   3.571   8.684 -0.5389  0.0273  0.0315
 3449TIP3    H131906   0.296   3.504   8.750  0.1979 -0.0227 -0.1765
 3449TIP3    H231907   0.325   3.649   8.717 -2.9083  0.9880  1.1453
 3450TIP3   OH231908   0.360   6.460   1.296 -0.1865  0.2217 -0.1011
 3450TIP3    H131909   0.398   6.373   1.308  0.2435  0.3924 -0.2015
 3450TIP3    H231910   0.429   6.509   1.251 -0.2524  0.7461  0.3662
 3451TIP3   OH231911   2.974   3.559   8.128  0.2700  0.1071  0.0766
 3451TIP3    H131912   2.958   3.578   8.220  1.0356  0.7852  0.0882
 3451TIP3    H231913   2.905   3.498   8.103 -0.4293  0.5473  0.8825
 3452TIP3   OH231914   5.028   3.024   7.917 -0.0277 -0.2338 -0.1603
 3452TIP3    H131915   4.996   3.080   7.847 -2.0309 -0.8537  0.1762
 3452TIP3    H231916   5.075   2.954   7.872  1.5694  1.1034 -0.6424
 3453TIP3   OH231917   4.855   0.742   7.773 -0.1401  0.6140 -0.3405
 3453TIP3    H131918   4.834   0.812   7.711  0.2438  2.7799  1.7928
 3453TIP3    H231919   4.950   0.747   7.784  0.0180 -0.8746 -0.7844
 3454TIP3   OH231920   4.655   1.988   7.972 -0.0045  0.0970 -0.0493
 3454TIP3    H131921   4.576   1.953   8.011 -1.1515  3.0741  0.5619
 3454TIP3    H231922   4.716   1.998   8.045  2.1238 -4.4870 -0.8200
 3455TIP3   OH231923   4.964   0.761   0.219 -0.2607  0.2842  0.5653
 3455TIP3    H131924   4.914   0.842   0.218 -0.7779 -0.0226  1.0058
 3455TIP3    H231925   5.041   0.779   0.165 -1.0705  0.6288 -0.5146
 3456TIP3   OH231926   2.685   3.247   0.638  0.5415  0.1560  0.8966
 3456TIP3    H131927   2.709   3.331   0.677 -1.9504  1.0163  0.7370
 3456TIP3    H231928   2.600   3.226   0.676  0.1769 -1.2871 -0.5955
 3457TIP3   OH231929   1.053   5.785   2.733  1.1088  0.1748  0.1825
 3457TIP3    H131930   1.100   5.723   2.789  1.1914  1.1739  1.2773
 3457TIP3    H231931   1.113   5.859   2.723 -0.0192  1.3303  1.3273
 3458TIP3   OH231932   5.878   6.068   7.758  0.2967 -0.2652 -0.1350
 3458TIP3    H131933   5.938   6.109   7.696  1.0030  2.4003  2.1203
 3458TIP3    H231934   5.797   6.119   7.751  0.0891 -0.4903  0.5268
 3459TIP3   OH231935   2.654   6.130   8.290 -0.4356 -0.2705  0.3375
 3459TIP3    H131936   2.702   6.052   8.320 -0.7196 -0.5695  0.0218
 3459TIP3    H231937   2.574   6.095   8.252 -0.3394  0.1436 -0.2554
 3460TIP3   OH231938   2.908   4.719   8.054 -0.1726  0.2070 -0.3471
 3460TIP3    H131939   2.844   4.785   8.079 -0.2356  0.5260 -1.3371
 3460TIP3    H231940   2.980   4.768   8.015 -0.6321 -0.3642 -1.9667
 3461TIP3   OH231941   2.461   0.537   8.816 -0.0387 -0.1539 -0.4807
 3461TIP3    H131942   2.525   0.598   8.781 -0.2577 -0.9073 -2.3095
 3461TIP3    H231943   2.382   0.552   8.764 -1.8445  1.5734  2.4718
 3462TIP3   OH231944   4.304   6.373   8.466 -0.2294  0.3149 -0.1606
 3462TIP3    H131945   4.338   6.357   8.378 -1.9097  0.3158 -0.8513
 3462TIP3    H231946   4.250   6.297   8.486 -0.4403  0.6409  0.5671
 3463TIP3   OH231947   1.803   2.415   1.745  0.1255  0.2338 -0.2829
 3463TIP3    H131948   1.844   2.329   1.733  1.0070  0.3636  1.3890
 3463TIP3    H231949   1.742   2.424   1.672 -2.5913 -3.3025  1.2975
 3464TIP3   OH231950   5.410   0.183   0.605  0.0930  0.1057 -0.1319
 3464TIP3    H131951   5.441   0.124   0.673  0.1725 -0.2042 -0.4312
 3464TIP3    H231952   5.315   0.185   0.615  0.0795 -0.1691 -0.1972
 3465TIP3   OH231953   3.548   3.083   6.940 -0.5521 -0.5163  0.3138
 3465TIP3    H131954   3.490   3.063   7.014 -1.2953  1.2516  0.2506
 3465TIP3    H231955   3.558   2.999   6.895 -1.5256 -1.2545  1.4139
 3466TIP3   OH231956   6.372   3.702   2.170 -0.1695  0.0209  0.0384
 3466TIP3    H131957   6.346   3.770   2.232 -1.4897 -1.6734  1.4494
 3466TIP3    H231958   6.289   3.662   2.142  0.6014 -2.0397  0.5023
 3467TIP3   OH231959   2.093   3.779   1.442  0.4312  0.2539  0.4252
 3467TIP3    H131960   2.125   3.865   1.468  0.7906  0.2724 -0.0582
 3467TIP3    H231961   2.171   3.724   1.441  0.4780  0.3110 -0.8313
 3468TIP3   OH231962   5.540   2.343   8.244  0.4594  0.1654 -0.9083
 3468TIP3    H131963   5.582   2.287   8.310  0.7895  2.2220  0.7352
 3468TIP3    H231964   5.612   2.389   8.202  0.0948  0.9228 -0.7219
 3469TIP3   OH231965   2.991   1.888   1.931 -0.4729 -0.2050  0.4580
 3469TIP3    H131966   3.048   1.950   1.886  0.6525 -0.6860  1.1918
 3469TIP3    H231967   2.902   1.921   1.915  0.0159  0.6907 -0.4882
 3470TIP3   OH231968   0.406   6.241   7.822  0.2107 -0.1714  0.0639
 3470TIP3    H131969   0.379   6.309   7.884 -0.2400  1.5728 -1.9188
 3470TIP3    H231970   0.333   6.180   7.820 -1.0685  1.3112 -0.8270
 3471TIP3   OH231971   6.704   2.913   0.600  0.3887 -0.7299 -0.0063
 3471TIP3    H131972   6.635   2.849   0.585  0.6059 -0.5641 -1.8715
 3471TIP3    H231973   6.755   2.876   0.673 -0.8742 -1.4807  0.5304
 3472TIP3   OH231974   5.050   5.198   2.559  0.4699 -0.2052  0.2040
 3472TIP3    H131975   5.059   5.104   2.574 -1.4393 -0.0861  2.8137
 3472TIP3    H231976   5.020   5.205   2.468  3.2858 -1.8264 -0.9899
 3473TIP3   OH231977   0.138   2.206   1.407  0.4343 -0.1724 -0.3741
 3473TIP3    H131978   0.142   2.214   1.312  0.0132 -0.6605 -0.4369
 3473TIP3    H231979   0.119   2.294   1.438  2.0373  0.3050 -0.6391
 3474TIP3   OH231980   0.643   4.415   2.412  0.1627 -0.0542 -0.2914
 3474TIP3    H131981   0.675   4.496   2.452  0.4768  0.3413 -1.3211
 3474TIP3    H231982   0.671   4.420   2.321  0.9099 -1.7110 -0.1865
 3475TIP3   OH231983   1.611   2.758   0.868  0.1086  0.3632  0.5109
 3475TIP3    H131984   1.671   2.805   0.925  2.5172 -0.3248 -1.2908
 3475TIP3    H231985   1.586   2.822   0.801  0.7796  0.0124 -0.0891
 3476TIP3   OH231986   4.362   4.394   3.076 -0.1025 -0.3191  0.4735
 3476TIP3    H131987   4.274   4.363   3.057  0.8663 -1.7454 -2.2139
 3476TIP3    H231988   4.407   4.319   3.115  0.3788 -0.1068  0.3422
 3477TIP3   OH231989   2.323   6.118   1.434 -0.3031  0.2478 -0.0899
 3477TIP3    H131990   2.395   6.151   1.488 -0.3798  0.9141 -0.3822
 3477TIP3    H231991   2.301   6.192   1.377 -0.8214 -0.1523 -0.4086
 3478TIP3   OH231992   5.418   0.455   1.304  0.7420 -0.7447  0.0615
 3478TIP3    H131993   5.453   0.541   1.326  1.8365 -1.2705  0.4681
 3478TIP3    H231994   5.344   0.473   1.247  1.4495  0.4345 -0.5165
 3479TIP3   OH231995   5.673   1.015   0.728 -0.3096  0.2861  0.5984
 3479TIP3    H131996   5.713   1.082   0.783 -2.1587  0.4351  1.8376
 3479TIP3    H231997   5.598   0.984   0.778 -1.2625 -0.5853 -1.2597
 3480TIP3   OH231998   0.599   6.134   1.579 -0.4493 -0.0376 -0.0338
 3480TIP3    H131999   0.661   6.149   1.508 -1.1436  1.0220 -0.4522
 3480TIP3    H232000   0.610   6.042   1.602  1.2393  0.1166 -0.1079
 3481TIP3   OH232001   4.994   6.094   1.434  0.1120  0.5426  0.4017
 3481TIP3    H132002   5.033   6.096   1.346 -1.8748 -0.5378 -0.5873
 3481TIP3    H232003   5.010   6.004   1.464  2.6739  1.4796  2.1484
 3482TIP3   OH232004   5.212   5.978   7.759 -0.0732 -0.2044 -0.2864
 3482TIP3    H132005   5.222   6.055   7.703  0.4481 -0.6424 -0.8208
 3482TIP3    H232006   5.270   5.995   7.833 -2.2503  1.2703  1.1762
 3483TIP3   OH232007   6.057   5.856   0.217 -0.0062 -0.5281 -0.2721
 3483TIP3    H132008   6.090   5.940   0.185  0.4526 -0.5648  0.0960
 3483TIP3    H232009   6.014   5.877   0.300 -0.1913 -0.6093 -0.3465
 3484TIP3   OH232010   2.562   5.125   2.800 -0.1920  0.2243  0.1632
 3484TIP3    H132011   2.547   5.066   2.875 -0.4968  0.4866  0.3133
 3484TIP3    H232012   2.649   5.102   2.769 -0.1592 -0.0563  0.4487
 3485TIP3   OH232013   4.065   6.332   1.595  0.7685  0.0358 -0.2223
 3485TIP3    H132014   4.063   6.300   1.505  0.9921 -1.6225  0.3389
 3485TIP3    H232015   4.149   6.377   1.602  0.3134  1.0962 -1.1081
 3486TIP3   OH232016   6.200   3.872   2.320 -0.4548 -0.2247  0.1110
 3486TIP3    H132017   6.221   3.834   2.405  2.9496 -0.2489 -0.6176
 3486TIP3    H232018   6.252   3.952   2.316 -1.1210  0.1609 -1.6765
 3487TIP3   OH232019   6.693   6.739   0.850 -0.2964 -0.0171  0.1972
 3487TIP3    H132020   6.687   6.708   0.759  0.0618  0.4243  0.0211
 3487TIP3    H232021   6.744   6.672   0.895 -2.2877 -1.3544  0.5945
 3488TIP3   OH232022   3.053   2.792   8.269 -0.0291 -0.5440  0.7119
 3488TIP3    H132023   3.034   2.726   8.335 -0.2657 -0.9463  0.2460
 3488TIP3    H232024   3.121   2.847   8.309 -0.4601 -0.5343  1.4437
 3489TIP3   OH232025   2.706   1.972   0.466  0.2036  0.3094  0.2104
 3489TIP3    H132026   2.653   2.049   0.447  0.0560  0.1242 -0.1573
 3489TIP3    H232027   2.645   1.899   0.460  0.2754  0.1924  0.8828
 3490TIP3   OH232028   0.493   6.248   0.886 -0.1403  0.1164  0.0108
 3490TIP3    H132029   0.488   6.264   0.792 -0.2570 -0.2093 -0.0416
 3490TIP3    H232030   0.409   6.279   0.921  0.0044  0.4755  0.0484
 3491TIP3   OH232031   3.504   1.821   2.301  0.5882 -0.4699 -0.0179
 3491TIP3    H132032   3.597   1.814   2.279  0.4694 -0.3610 -0.5549
 3491TIP3    H232033   3.504   1.859   2.389  1.0352  0.6717 -0.4872
 3492TIP3   OH232034   1.132   3.651   1.119  0.4447 -0.0115  0.5166
 3492TIP3    H132035   1.177   3.712   1.177  0.7112  0.1436  0.1537
 3492TIP3    H232036   1.092   3.707   1.052  1.2496 -0.2680 -0.1997
 3493TIP3   OH232037   6.007   5.980   2.234  0.2132  0.7614 -0.6396
 3493TIP3    H132038   5.917   5.994   2.264 -0.5955 -0.1947 -2.4372
 3493TIP3    H232039   6.032   5.897   2.273  0.5431  1.2849  0.2977
 3494TIP3   OH232040   6.765   1.076   8.670  0.0000  0.1127  0.1786
 3494TIP3    H132041   6.803   1.110   8.750 -0.0117 -0.2320  0.3331
 3494TIP3    H232042   6.710   1.003   8.699  3.3080 -2.8962 -0.4750
 3495TIP3   OH232043   4.700   6.344   7.181  0.0304 -0.1727  0.1449
 3495TIP3    H132044   4.752   6.353   7.101  0.8789  0.8039  0.7692
 3495TIP3    H232045   4.670   6.253   7.180  0.6148 -0.3755 -0.9252
 3496TIP3   OH232046   1.325   5.244   8.315  0.3744 -0.3241 -0.8021
 3496TIP3    H132047   1.386   5.225   8.244  0.3565 -0.9371 -0.6552
 3496TIP3    H232048   1.306   5.159   8.354 -1.6984 -0.3607 -1.7664
 3497TIP3   OH232049   3.507   5.712   0.023  0.0395  0.0167  0.2847
 3497TIP3    H132050   3.507   5.774   0.095  0.6216 -0.7951  1.0003
 3497TIP3    H232051   3.504   5.767  -0.056  0.8554  0.9569  0.8879
 3498TIP3   OH232052   3.759   2.614   2.935  0.5834  0.5701  0.4106
 3498TIP3    H132053   3.694   2.661   2.882  2.1382 -0.7002 -2.8948
 3498TIP3    H232054   3.711   2.541   2.974 -0.0864 -0.3165 -1.9180
 3499TIP3   OH232055   4.787   2.131   1.794 -0.2582  0.7990  0.2695
 3499TIP3    H132056   4.830   2.216   1.787 -0.1108  0.9686  2.4707
 3499TIP3    H232057   4.700   2.152   1.828  0.1213  0.0644  1.8168
 3500TIP3   OH232058   5.044   2.762   8.684 -0.5034 -0.3473 -0.2032
 3500TIP3    H132059   5.093   2.811   8.750  0.1025 -1.6905  0.3750
 3500TIP3    H232060   5.111   2.726   8.626 -0.9186 -0.6446 -0.5011
 3501TIP3   OH232061   4.128   4.706   7.797 -0.5740  0.0701  0.3120
 3501TIP3    H132062   4.153   4.628   7.846  1.3024  0.7496  0.5030
 3501TIP3    H232063   4.101   4.673   7.711  1.3708 -0.7133 -0.0383
 3502TIP3   OH232064   4.346   2.757   0.142 -0.3203  0.1323  0.0006
 3502TIP3    H132065   4.304   2.748   0.227 -2.7551 -1.0704 -1.2372
 3502TIP3    H232066   4.324   2.845   0.113 -0.3428  0.1873  0.1846
 3503TIP3   OH232067   1.912   2.771   2.472 -0.2940 -0.0370 -0.1643
 3503TIP3    H132068   1.837   2.752   2.530  0.3170 -0.3446  0.5510
 3503TIP3    H232069   1.953   2.685   2.458 -0.1344  0.1150 -0.6282
 3504TIP3   OH232070   3.094   3.018   1.122 -0.2793 -0.1328  0.3736
 3504TIP3    H132071   3.017   3.075   1.119 -0.7812 -0.7777  0.5450
 3504TIP3    H232072   3.084   2.969   1.204  1.5499  1.4273  1.5959
 3505TIP3   OH232073   5.296   0.784   2.690 -0.0611 -0.0689  0.2999
 3505TIP3    H132074   5.224   0.797   2.629  0.0202 -0.6695  0.0641
 3505TIP3    H232075   5.367   0.837   2.655 -0.4169  0.6078  0.5923
 3506TIP3   OH232076   6.440   3.501   8.781 -0.5086 -0.4199 -0.1126
 3506TIP3    H132077   6.494   3.543   8.714  1.0817 -0.3467  1.1699
 3506TIP3    H232078   6.493   3.428   8.813 -1.6474 -1.0549  0.4034
 3507TIP3   OH232079   2.678   5.815   7.626 -0.0936 -0.1213  0.5160
 3507TIP3    H132080   2.648   5.733   7.666 -0.6998  0.3612  1.0607
 3507TIP3    H232081   2.760   5.835   7.671 -1.5188  1.2132  2.6432
 3508TIP3   OH232082   3.459   1.633   2.098 -0.3998 -0.8449  0.1834
 3508TIP3    H132083   3.445   1.696   2.168 -0.6550  1.0809 -1.5165
 3508TIP3    H232084   3.425   1.676   2.019  0.2034 -2.7685 -1.2105
 3509TIP3   OH232085   2.669   5.858   1.864  0.2859  0.6989 -0.3421
 3509TIP3    H132086   2.691   5.816   1.781  3.5800  2.3582 -0.4696
 3509TIP3    H232087   2.644   5.948   1.840  0.2127  0.8914  0.4038
 3510TIP3   OH232088   3.630   3.180   2.500  0.1484 -0.4130 -0.1294
 3510TIP3    H132089   3.620   3.255   2.442  1.3455 -0.7573 -0.8024
 3510TIP3    H232090   3.540   3.149   2.514 -0.6897  2.4876  2.0408
 3511TIP3   OH232091   4.101   2.623   8.005 -0.1177 -0.0051  0.5370
 3511TIP3    H132092   4.058   2.562   8.066  1.2228 -0.6747  0.8478
 3511TIP3    H232093   4.064   2.708   8.028  0.8006 -0.1252  2.7696
 3512TIP3   OH232094   0.772   3.385   8.529  0.5874 -0.3839 -0.3229
 3512TIP3    H132095   0.826   3.439   8.586  1.9596 -1.7471 -0.2775
 3512TIP3    H232096   0.682   3.413   8.548  1.1566  0.8011  0.7793
 3513TIP3   OH232097   5.315   3.703   0.685 -0.5037 -0.3717 -0.2486
 3513TIP3    H132098   5.246   3.704   0.752 -1.0047  2.2883 -0.6906
 3513TIP3    H232099   5.377   3.770   0.714  0.9601 -1.4512 -0.8169
 3514TIP3   OH232100   2.909   5.301   1.576  0.4325 -0.1524  0.4136
 3514TIP3    H132101   2.884   5.260   1.493 -1.8846  4.3202 -1.4602
 3514TIP3    H232102   2.843   5.270   1.638 -0.0230 -0.8369 -0.3865
 3515TIP3   OH232103   3.865   4.272   2.358 -0.2223  0.3727 -0.4304
 3515TIP3    H132104   3.796   4.211   2.334 -1.0659  1.5727 -1.1525
 3515TIP3    H232105   3.871   4.266   2.453 -1.3108  0.2596 -0.3662
 3516TIP3   OH232106   4.049   6.184   0.674 -0.2707  0.1041 -0.0244
 3516TIP3    H132107   4.140   6.168   0.700 -0.0227 -0.9095 -1.4203
 3516TIP3    H232108   4.042   6.279   0.669  1.3005  0.1755 -1.8046
 3517TIP3   OH232109   3.682   5.814   3.045 -0.2447 -0.0238 -0.1638
 3517TIP3    H132110   3.740   5.890   3.035  1.4500 -0.8620  2.2503
 3517TIP3    H232111   3.596   5.852   3.062  0.0418  1.2986 -1.4199
 3518TIP3   OH232112   5.923   4.247   0.753  0.2960  0.6080 -0.1750
 3518TIP3    H132113   5.890   4.320   0.805  3.5413  1.3596  1.0486
 3518TIP3    H232114   5.938   4.284   0.666 -1.2152  0.4486 -0.5305
 3519TIP3   OH232115   2.435   5.926   8.836 -0.7213  0.1160 -0.1140
 3519TIP3    H132116   2.408   6.016   8.857 -0.1449  0.4323 -0.6766
 3519TIP3    H232117   2.525   5.921   8.868 -1.0714 -0.5864  0.7971
 3520TIP3   OH232118   5.454   5.697   1.965  0.4790 -0.5180 -0.1590
 3520TIP3    H132119   5.385   5.631   1.965 -0.2430  0.2056  1.3195
 3520TIP3    H232120   5.426   5.761   1.898 -0.4511 -0.0825  0.6231
 3521TIP3   OH232121   6.540   0.254   3.152 -0.3949  0.1862 -0.2647
 3521TIP3    H132122   6.570   0.295   3.071  0.8530  0.2068  0.1918
 3521TIP3    H232123   6.604   0.281   3.218  0.1035 -1.9098  0.1972
 3522TIP3   OH232124   2.489   1.711   1.591  0.1154  0.0011  0.1194
 3522TIP3    H132125   2.409   1.715   1.643  0.2482  0.0994  0.3219
 3522TIP3    H232126   2.462   1.678   1.506  0.2449 -2.3572  0.9304
 3523TIP3   OH232127   6.575   4.401   0.762  1.0292 -0.4827 -0.5280
 3523TIP3    H132128   6.512   4.354   0.708  0.7542 -1.6819  0.7598
 3523TIP3    H232129   6.630   4.332   0.799 -1.0028 -0.2527  3.5330
 3524TIP3   OH232130   3.955   2.218   1.980  0.0047 -0.0788  0.3418
 3524TIP3    H132131   3.929   2.310   1.981  0.2795  0.0047  1.2306
 3524TIP3    H232132   3.875   2.170   2.000 -0.1951 -0.0527 -0.3863
 3525TIP3   OH232133   4.071   6.271   1.316  0.2626  0.6481  0.4857
 3525TIP3    H132134   4.127   6.311   1.249 -0.0964  1.2348  0.5335
 3525TIP3    H232135   4.064   6.179   1.289  2.5234  0.1697  1.3316
 3526TIP3   OH232136   5.245   5.069   7.404 -0.8326  0.4852 -0.1902
 3526TIP3    H132137   5.271   5.005   7.338 -0.8360 -0.2802  0.5537
 3526TIP3    H232138   5.183   5.023   7.460 -2.2605  1.6753 -0.7298
 3527TIP3   OH232139   3.167   0.787   2.042  0.1430  0.2013 -0.9307
 3527TIP3    H132140   3.121   0.804   1.961  0.9378  1.7977 -1.1048
 3527TIP3    H232141   3.256   0.818   2.026  0.4749 -0.0053  0.3494
 3528TIP3   OH232142   0.298   6.529   2.245 -0.2180 -0.3068  0.3915
 3528TIP3    H132143   0.388   6.517   2.214 -0.0018 -2.8730  1.7844
 3528TIP3    H232144   0.248   6.550   2.166  1.4081  0.0937 -0.5791
 3529TIP3   OH232145   2.365   5.914   0.796  0.0767 -0.4046 -0.6241
 3529TIP3    H132146   2.332   5.922   0.707 -0.6148 -2.5765 -0.6067
 3529TIP3    H232147   2.290   5.884   0.848 -0.1252  2.7524  1.1982
 3530TIP3   OH232148   3.190   4.247   1.425  0.6297 -0.3526  0.0713
 3530TIP3    H132149   3.203   4.321   1.484  0.3835  0.4792 -0.8917
 3530TIP3    H232150   3.276   4.203   1.424  0.8657  0.0835  0.4173
 3531TIP3   OH232151   2.842   1.751   1.516  0.6638  0.6491 -0.0588
 3531TIP3    H132152   2.859   1.706   1.599 -2.8436 -2.6184 -0.8062
 3531TIP3    H232153   2.779   1.819   1.539 -0.4843 -0.4011  0.0103
 3532TIP3   OH232154   0.693   6.615   8.013 -0.0811 -0.3547 -0.1620
 3532TIP3    H132155   0.695   6.554   7.939  2.2297  1.1211 -1.4480
 3532TIP3    H232156   0.744   6.572   8.081 -1.2595 -1.2276  0.2059
 3533TIP3   OH232157   0.742   3.474   7.460  0.1423 -0.0685  0.1346
 3533TIP3    H132158   0.648   3.460   7.472  0.0994  0.2606  0.2078
 3533TIP3    H232159   0.782   3.433   7.537 -0.0135  0.6084  0.5865
 3534TIP3   OH232160   4.780   6.706   0.183  1.0051 -0.5370 -0.1566
 3534TIP3    H132161   4.769   6.707   0.278  0.2294  0.1788 -0.2482
 3534TIP3    H232162   4.866   6.665   0.170  0.9041 -1.1083  0.8235
 3535TIP3   OH232163   4.740   3.073   8.710  0.3235 -0.5129 -0.8272
 3535TIP3    H132164   4.734   2.977   8.705 -0.9383 -0.5839  1.0521
 3535TIP3    H232165   4.649   3.103   8.706  0.6883  0.6034 -1.1063
 3536TIP3   OH232166   3.728   0.517   0.175 -0.1518  0.5243 -0.0648
 3536TIP3    H132167   3.664   0.448   0.193 -0.6359  0.9554 -0.0992
 3536TIP3    H232168   3.812   0.471   0.170 -0.6226 -0.2451 -1.3236
 3537TIP3   OH232169   3.427   1.080   7.676 -0.0656 -0.1047  0.0029
 3537TIP3    H132170   3.339   1.092   7.642 -0.5200 -0.3910  1.0440
 3537TIP3    H232171   3.464   1.168   7.681 -1.2066  0.3248  1.9051
 3538TIP3   OH232172   6.001   3.725   2.653  0.5465  0.3064 -0.0826
 3538TIP3    H132173   5.943   3.779   2.601 -1.9464 -0.5145  1.6615
 3538TIP3    H232174   5.987   3.636   2.621  0.9618  0.1081  0.2662
 3539TIP3   OH232175   3.749   3.422   8.772 -0.3040 -0.3825  0.2563
 3539TIP3    H132176   3.773   3.452   8.684 -0.3940  0.5939  0.5435
 3539TIP3    H232177   3.833   3.413   8.818 -0.1461 -2.3961 -0.3628
 3540TIP3   OH232178   5.918   3.171   6.710 -0.2079 -0.5043 -0.4697
 3540TIP3    H132179   5.992   3.111   6.710  1.2520  1.1949  0.2931
 3540TIP3    H232180   5.905   3.193   6.802 -1.4520 -0.4965 -0.6317
 3541TIP3   OH232181   4.705   4.719   7.897  0.3044  0.6012 -0.4667
 3541TIP3    H132182   4.686   4.811   7.918  2.1900  0.8894  0.1323
 3541TIP3    H232183   4.723   4.719   7.803 -0.8387  0.6083 -0.7066
 3542TIP3   OH232184   5.245   3.771   1.547 -0.4987 -0.4944 -0.3140
 3542TIP3    H132185   5.254   3.846   1.606 -1.2571 -1.0232  0.5031
 3542TIP3    H232186   5.274   3.803   1.462 -1.6324  0.9991 -0.1825
 3543TIP3   OH232187   0.152   6.215   0.278 -0.6881  0.1751  0.5067
 3543TIP3    H132188   0.191   6.141   0.325  0.5433 -0.4257 -1.3255
 3543TIP3    H232189   0.186   6.206   0.189 -2.0879  1.8474 -0.2393
 3544TIP3   OH232190   6.253   4.508   8.389  0.2808 -0.3299  0.2554
 3544TIP3    H132191   6.238   4.490   8.482 -0.5370 -2.1860 -0.1846
 3544TIP3    H232192   6.342   4.476   8.373 -0.1493 -1.4784  0.0826
 3545TIP3   OH232193   4.132   4.375   1.029 -0.0417  0.9707  0.4051
 3545TIP3    H132194   4.127   4.458   0.981  2.9491  2.2714  2.0786
 3545TIP3    H232195   4.153   4.401   1.119  0.3507 -1.5921  1.1349
 3546TIP3   OH232196   5.792   2.757   1.169 -0.3906 -0.1287 -0.3899
 3546TIP3    H132197   5.728   2.697   1.131 -2.1156  0.3952  1.4471
 3546TIP3    H232198   5.810   2.721   1.256  0.5123  0.6461 -0.2361
 3547TIP3   OH232199   6.001   6.563   8.312 -0.1755 -0.0675 -0.4090
 3547TIP3    H132200   5.937   6.616   8.361  0.8207  0.4203  0.4311
 3547TIP3    H232201   5.960   6.477   8.305 -0.8653  0.1836  0.2487
 3548TIP3   OH232202   0.595   6.070   8.511  0.0615 -0.4130 -0.2676
 3548TIP3    H132203   0.581   5.976   8.501  1.6126 -0.6992  0.0320
 3548TIP3    H232204   0.617   6.081   8.603 -2.6590  0.6363  0.3628
 3549TIP3   OH232205   3.582   1.189   8.068  0.2267  0.9719 -0.0637
 3549TIP3    H132206   3.507   1.159   8.016 -0.4087 -0.8320  1.7515
 3549TIP3    H232207   3.557   1.276   8.098 -0.4364  1.0370 -0.7632
 3550TIP3   OH232208   2.803   0.559   2.147 -0.3581  0.7728  0.4591
 3550TIP3    H132209   2.891   0.521   2.143 -0.5069  0.5002 -0.6257
 3550TIP3    H232210   2.811   0.643   2.103 -0.2581  1.5792  1.9655
 3551TIP3   OH232211   3.199   3.975   0.570 -0.1524 -0.2831  0.6358
 3551TIP3    H132212   3.273   4.003   0.517 -1.5210 -0.0975 -1.2976
 3551TIP3    H232213   3.199   3.879   0.563 -0.8181 -0.2244 -0.4833
 3552TIP3   OH232214   0.218   6.683   0.443  0.1568  0.0278  0.0421
 3552TIP3    H132215   0.185   6.710   0.358 -1.6969 -1.0135  0.3704
 3552TIP3    H232216   0.192   6.753   0.503  2.0911  1.1144 -0.3015
 3553TIP3   OH232217   1.037   1.408   2.660 -0.5752 -0.2992  0.1472
 3553TIP3    H132218   1.021   1.500   2.640  0.3819 -0.4987 -1.7715
 3553TIP3    H232219   1.116   1.409   2.714  0.8972 -0.0618 -1.8921
 3554TIP3   OH232220   5.693   4.916   1.002 -0.2232 -0.1390 -0.4858
 3554TIP3    H132221   5.664   4.857   0.932  2.8023  0.8046 -2.7841
 3554TIP3    H232222   5.716   4.997   0.957  1.5605  0.6283  1.6147
 3555TIP3   OH232223   1.740   1.960   0.896 -0.0102 -0.5090  0.0081
 3555TIP3    H132224   1.757   1.915   0.979 -1.7493 -0.1195  0.6303
 3555TIP3    H232225   1.824   1.960   0.850  0.5060 -2.6641  0.8197
 3556TIP3   OH232226   5.309   4.641   8.358 -1.0110  0.4231  0.5996
 3556TIP3    H132227   5.258   4.562   8.340 -1.0196  0.5732 -0.0678
 3556TIP3    H232228   5.249   4.696   8.409 -1.2897  0.3258  0.3829
 3557TIP3   OH232229   0.755   3.270   8.041  0.2712  0.1380  0.5135
 3557TIP3    H132230   0.829   3.216   8.071  0.2777 -0.5840 -0.7505
 3557TIP3    H232231   0.678   3.215   8.057  0.1694  0.2092  0.2658
 3558TIP3   OH232232   5.627   6.357   8.399 -0.3121 -0.1928  0.9963
 3558TIP3    H132233   5.721   6.364   8.381 -0.0265 -1.2397  1.9645
 3558TIP3    H232234   5.621   6.288   8.465 -1.9320 -1.5042 -0.4380
 3559TIP3   OH232235   5.786   0.921   0.330  0.0938  0.3612  0.6589
 3559TIP3    H132236   5.729   0.998   0.321 -0.7836 -0.1557  1.6228
 3559TIP3    H232237   5.768   0.888   0.418  0.6300 -0.8128  0.3406
 3560TIP3   OH232238   2.931   2.380   0.396  0.2363  0.0113 -0.1472
 3560TIP3    H132239   2.999   2.338   0.343  0.7951  0.1700  0.4351
 3560TIP3    H232240   2.952   2.473   0.393 -0.7704  0.2370 -1.1072
 3561TIP3   OH232241   0.364   4.749   8.573  0.4334  0.3130  0.0263
 3561TIP3    H132242   0.368   4.828   8.518  1.4772  0.7603  0.6987
 3561TIP3    H232243   0.420   4.770   8.648  0.5810 -1.0107  0.3076
 3562TIP3   OH232244   4.808   5.687   7.747 -0.5318 -0.3659  0.1767
 3562TIP3    H132245   4.813   5.667   7.653 -1.9824 -1.1750  0.2485
 3562TIP3    H232246   4.864   5.764   7.757 -0.4893 -0.1459 -1.3914
 3563TIP3   OH232247   0.162   4.227   8.864 -0.9291 -0.0479 -0.0481
 3563TIP3    H132248   0.098   4.157   8.850 -0.8029 -0.7508  2.3373
 3563TIP3    H232249   0.226   4.216   8.794 -3.1089  0.3839 -2.2180
 3564TIP3   OH232250   1.592   3.953   1.504 -0.0734 -0.4775 -0.2447
 3564TIP3    H132251   1.647   3.893   1.555 -0.6886 -0.2214  0.7452
 3564TIP3    H232252   1.654   4.012   1.461  0.5903 -2.2095 -1.7968
 3565TIP3   OH232253   5.404   5.148   7.637  0.4493 -0.1696  0.3820
 3565TIP3    H132254   5.420   5.193   7.554 -1.3843  0.0377  0.0859
 3565TIP3    H232255   5.350   5.073   7.613 -1.0563  0.5117  1.4893
 3566TIP3   OH232256   2.534   2.762   0.912 -0.0646 -0.2917 -0.5743
 3566TIP3    H132257   2.598   2.706   0.956 -1.9021 -3.2305 -1.3420
 3566TIP3    H232258   2.527   2.839   0.969  1.0232 -1.8165  1.8110
 3567TIP3   OH232259   4.063   3.840   0.874  0.5401  0.9879 -0.3066
 3567TIP3    H132260   4.010   3.824   0.951 -0.2119  2.3524 -0.4973
 3567TIP3    H232261   4.105   3.924   0.891  2.9700 -0.2048 -0.0172
 3568TIP3   OH232262   2.354   6.385   2.002  0.0562 -0.4148  0.6900
 3568TIP3    H132263   2.412   6.460   2.015 -0.9352  0.8283 -1.4868
 3568TIP3    H232264   2.376   6.352   1.916 -0.5588 -1.7019  1.0002
 3569TIP3   OH232265   5.974   1.308   1.298  0.1444 -0.4782  0.2858
 3569TIP3    H132266   5.972   1.212   1.302  0.5058 -0.6124 -1.5851
 3569TIP3    H232267   6.058   1.328   1.257  0.6343  0.7285  1.7916
 3570TIP3   OH232268   1.312   5.424   1.286  0.7233  0.5821  0.0058
 3570TIP3    H132269   1.389   5.398   1.234 -1.3279 -1.4996 -2.2363
 3570TIP3    H232270   1.263   5.482   1.228 -0.1144  0.6858  0.8036
 3571TIP3   OH232271   0.685   4.735   6.831  0.4464 -0.4092  0.1414
 3571TIP3    H132272   0.616   4.791   6.867  1.7262  0.4129  1.4466
 3571TIP3    H232273   0.743   4.796   6.785  1.4889 -0.7198  0.9924
 3572TIP3   OH232274   3.445   5.068   8.335  0.0639 -0.0232 -0.3165
 3572TIP3    H132275   3.532   5.036   8.313 -0.1521 -1.5706  0.9094
 3572TIP3    H232276   3.455   5.108   8.421 -0.1413  1.1886 -0.8438
 3573TIP3   OH232277   6.489   6.219   7.270 -0.2140  0.2586 -0.0296
 3573TIP3    H132278   6.427   6.242   7.339  0.9354 -0.1382  1.1624
 3573TIP3    H232279   6.469   6.280   7.199 -1.3239  0.7680  0.6967
 3574TIP3   OH232280   4.143   5.956   6.886 -0.0025 -0.1463  0.0533
 3574TIP3    H132281   4.116   5.871   6.921 -2.4830  1.1326  1.4425
 3574TIP3    H232282   4.061   6.001   6.865  1.2754  1.4013 -2.0541
 3575TIP3   OH232283   6.258   6.527   0.716 -0.3631  0.0552 -0.0880
 3575TIP3    H132284   6.191   6.582   0.676  0.7748 -0.4702 -2.8991
 3575TIP3    H232285   6.212   6.481   0.786 -2.2327  1.7490 -0.1076
 3576TIP3   OH232286   1.002   0.528   2.313 -0.6581 -0.1828  0.2058
 3576TIP3    H132287   1.010   0.504   2.406 -0.8854 -3.0539 -0.4264
 3576TIP3    H232288   0.923   0.483   2.284  1.9293 -3.5807 -2.4588
 3577TIP3   OH232289   4.878   0.979   7.555 -0.0606  0.5110 -0.2143
 3577TIP3    H132290   4.927   1.000   7.476  0.9302 -0.5637  0.0937
 3577TIP3    H232291   4.827   1.058   7.574  1.8512  1.8170 -0.3143
 3578TIP3   OH232292   6.574   1.600   7.519  0.5176 -0.1788 -0.2134
 3578TIP3    H132293   6.545   1.510   7.530  1.1557 -0.1147  2.8873
 3578TIP3    H232294   6.535   1.647   7.593  0.1791  2.1306 -1.7628
 3579TIP3   OH232295   6.430   4.005   8.533  1.0005  0.3858 -0.1434
 3579TIP3    H132296   6.407   4.050   8.452  0.8703  0.6063  0.0129
 3579TIP3    H232297   6.446   3.915   8.507  0.9351  0.4501 -0.4104
 3580TIP3   OH232298   1.645   3.436   8.805  0.5621 -0.0246 -0.5033
 3580TIP3    H132299   1.732   3.462   8.776  1.2219 -0.9243  0.5506
 3580TIP3    H232300   1.650   3.439   8.901 -0.6393  0.1135 -0.4270
 3581TIP3   OH232301   4.747   2.011   7.186  0.0370 -0.0103  0.1148
 3581TIP3    H132302   4.808   1.938   7.174 -0.1194 -0.0645 -0.3797
 3581TIP3    H232303   4.799   2.079   7.228  0.1429 -0.4625  0.7360
 3582TIP3   OH232304   3.599   1.384   0.171 -0.5155  0.5467  0.6828
 3582TIP3    H132305   3.619   1.294   0.197  0.8835 -0.0549 -2.1030
 3582TIP3    H232306   3.667   1.437   0.211  0.3806 -0.0720  0.0282
 3583TIP3   OH232307   2.028   1.906   1.757  0.0984  0.0737  0.2684
 3583TIP3    H132308   1.983   1.832   1.715  2.2638 -2.0111  1.3752
 3583TIP3    H232309   1.987   1.912   1.843 -1.1262  1.2520 -0.3581
 3584TIP3   OH232310   4.925   5.875   2.671 -0.4552  0.2562 -0.1670
 3584TIP3    H132311   5.007   5.826   2.660 -1.2235 -0.8975 -1.1020
 3584TIP3    H232312   4.932   5.947   2.609  0.0006  0.3866  0.0292
 3585TIP3   OH232313   5.205   6.679   0.397 -0.3145 -0.4468 -0.4625
 3585TIP3    H132314   5.191   6.676   0.491 -3.9944  1.8029 -0.7270
 3585TIP3    H232315   5.234   6.769   0.380 -0.9500 -0.4356 -1.5642
 3586TIP3   OH232316   6.182   1.037   8.091  0.1624  0.2188 -0.2146
 3586TIP3    H132317   6.138   1.011   8.010 -0.2471  4.2916 -1.5482
 3586TIP3    H232318   6.133   0.993   8.160 -1.7127 -0.6947 -1.9963
 3587TIP3   OH232319   4.517   0.390   1.648 -0.1830  0.1750 -0.6673
 3587TIP3    H132320   4.569   0.466   1.620 -0.7397  0.2413 -1.5667
 3587TIP3    H232321   4.428   0.410   1.619 -0.7416  0.0833  0.9012
 3588TIP3   OH232322   0.249   1.349   1.860  0.6471  0.3313 -0.2431
 3588TIP3    H132323   0.339   1.370   1.837  0.0514  1.1093 -2.0570
 3588TIP3    H232324   0.227   1.410   1.930  2.0219 -1.0250  1.4772
 3589TIP3   OH232325   2.799   1.062   2.495 -0.9595 -0.4053  0.7488
 3589TIP3    H132326   2.741   1.128   2.532 -1.2145 -1.3540  2.1034
 3589TIP3    H232327   2.861   1.042   2.565  0.4123 -0.1388 -0.3364
 3590TIP3   OH232328   2.635   6.187   2.887  0.1961  0.3492 -0.1715
 3590TIP3    H132329   2.592   6.101   2.890  0.0883  0.4110  0.0729
 3590TIP3    H232330   2.716   6.175   2.936 -0.1865  0.5899  0.5292
 3591TIP3   OH232331   6.372   1.305   2.643 -0.0260  0.0767  0.0634
 3591TIP3    H132332   6.282   1.306   2.674  0.1196  0.9963  0.4709
 3591TIP3    H232333   6.424   1.278   2.718 -0.1100 -2.4464 -0.6760
 3592TIP3   OH232334   5.171   2.504   1.680 -0.4414  0.0778  0.2541
 3592TIP3    H132335   5.228   2.446   1.629  0.8577  0.5085  1.1725
 3592TIP3    H232336   5.196   2.592   1.653  0.6580  0.3327  2.0071
 3593TIP3   OH232337   4.851   0.839   2.254 -0.3997 -0.2736 -0.7032
 3593TIP3    H132338   4.861   0.753   2.293 -2.5524 -0.8041 -1.1972
 3593TIP3    H232339   4.913   0.840   2.181 -0.3759 -1.4175 -0.7113
 3594TIP3   OH232340   5.195   5.093   8.109  0.0589  0.4334  0.4888
 3594TIP3    H132341   5.208   5.167   8.168  0.7923  0.3464  0.4472
 3594TIP3    H232342   5.146   5.029   8.162 -0.3495  0.8394  0.6066
 3595TIP3   OH232343   3.483   1.981   2.525  0.0345 -0.0162  0.2515
 3595TIP3    H132344   3.474   1.961   2.619 -0.1153 -2.1154 -0.1514
 3595TIP3    H232345   3.449   2.070   2.516 -0.0965  0.1709  2.1632
 3596TIP3   OH232346   1.687   1.079   1.292 -0.6108  0.1331 -0.4603
 3596TIP3    H132347   1.614   1.053   1.349 -0.7852  0.1910 -0.6564
 3596TIP3    H232348   1.663   1.165   1.260 -0.4664  0.1421 -0.5459
 3597TIP3   OH232349   4.492   6.526   0.827  0.3334  0.5324  0.3535
 3597TIP3    H132350   4.577   6.569   0.814  0.1248  0.7333 -0.4249
 3597TIP3    H232351   4.472   6.538   0.920  0.7903  1.1629  0.3724
 3598TIP3   OH232352   5.488   1.407   2.302  0.1020 -0.0728  0.1248
 3598TIP3    H132353   5.477   1.313   2.287 -0.6085 -0.0653  0.5497
 3598TIP3    H232354   5.428   1.427   2.375  0.7160  0.5871  0.4582
 3599TIP3   OH232355   5.602   5.651   8.557 -0.7024  0.0153  0.8544
 3599TIP3    H132356   5.555   5.568   8.550  0.5465 -0.6866  0.5306
 3599TIP3    H232357   5.685   5.635   8.514  0.1462  0.9921  2.0612
 3600TIP3   OH232358   5.955   2.607   0.121  0.1843 -0.1195  0.2710
 3600TIP3    H132359   5.884   2.668   0.141 -0.8229 -1.5200  1.2275
 3600TIP3    H232360   5.996   2.589   0.206  1.0684 -0.0661 -0.1359
 3601TIP3   OH232361   3.966   1.666   6.930  0.3349 -0.2954  0.0748
 3601TIP3    H132362   4.002   1.748   6.966  0.7080 -0.4647  0.0947
 3601TIP3    H232363   3.880   1.690   6.896  0.3906  0.0793  0.1963
 3602TIP3   OH232364   5.439   3.590   1.688 -0.2667  0.6860 -0.0323
 3602TIP3    H132365   5.381   3.539   1.745  0.8459  0.3413  0.8300
 3602TIP3    H232366   5.381   3.652   1.644 -1.5555 -0.8043 -0.5402
 3603TIP3   OH232367   0.966   4.620   0.814  0.3403 -0.1316 -0.2417
 3603TIP3    H132368   0.931   4.686   0.874 -1.4289  0.1599 -1.5128
 3603TIP3    H232369   0.997   4.549   0.871  1.0783  1.1903  1.0932
 3604TIP3   OH232370   5.795   6.274   0.025 -0.0843  0.1697  0.0993
 3604TIP3    H132371   5.758   6.362   0.033  2.4436  1.2960  0.3841
 3604TIP3    H232372   5.876   6.278   0.076  0.9327 -1.8114 -1.2437
 3605TIP3   OH232373   4.767   5.183   1.452  0.1864  0.2397 -0.1708
 3605TIP3    H132374   4.753   5.199   1.546  0.9237  0.1464 -0.0392
 3605TIP3    H232375   4.855   5.146   1.447 -0.2046 -0.6282 -0.8084
 3606TIP3   OH232376   5.526   1.574   0.540  0.1104 -0.3474 -0.1187
 3606TIP3    H132377   5.460   1.590   0.608 -0.6359 -0.3717 -0.8262
 3606TIP3    H232378   5.501   1.490   0.502 -1.0707  0.8818 -2.2135
 3607TIP3   OH232379   1.234   1.874   2.019  0.3941  0.0302  0.1905
 3607TIP3    H132380   1.191   1.885   2.104  1.0754  1.0398  0.4266
 3607TIP3    H232381   1.264   1.783   2.019  1.3339  0.3057  1.5008
 3608TIP3   OH232382   5.246   6.362   0.112 -0.5900 -0.2924 -0.1554
 3608TIP3    H132383   5.226   6.277   0.073 -0.3656  0.0909 -1.1633
 3608TIP3    H232384   5.255   6.421   0.036  1.1345  0.2169  0.3986
 3609TIP3   OH232385   3.983   1.258   2.693  0.4953  0.5790 -0.1227
 3609TIP3    H132386   4.069   1.251   2.651  0.3146  1.0465 -0.5919
 3609TIP3    H232387   3.987   1.197   2.766  0.9091 -0.0681 -0.6712
 3610TIP3   OH232388   0.990   3.130   8.028 -0.8309 -0.3039 -0.4900
 3610TIP3    H132389   0.975   3.196   7.960  0.3568  0.1163 -0.3716
 3610TIP3    H232390   1.072   3.157   8.070 -2.1153  0.0954  1.8977
 3611TIP3   OH232391   5.830   4.003   0.862  0.4826  0.4431  0.1547
 3611TIP3    H132392   5.869   4.084   0.829  0.9617  0.6497  1.1999
 3611TIP3    H232393   5.902   3.940   0.863  0.3957  0.3445  0.4792
 3612TIP3   OH232394   2.424   4.207   8.294 -0.1107 -0.5699 -0.2599
 3612TIP3    H132395   2.464   4.121   8.282 -1.8114 -1.6150  1.0109
 3612TIP3    H232396   2.343   4.202   8.242 -0.0503  0.4034 -0.4545
 3613TIP3   OH232397   3.802   6.135   1.339 -0.1879 -0.1367 -0.0318
 3613TIP3    H132398   3.842   6.217   1.311 -0.7263 -0.7804 -3.1418
 3613TIP3    H232399   3.736   6.160   1.403 -1.9787  2.2792 -2.5674
 3614TIP3   OH232400   5.407   5.953   0.001  0.4122 -0.4183 -0.2483
 3614TIP3    H132401   5.471   5.893  -0.038  0.0265 -0.2011 -1.2670
 3614TIP3    H232402   5.448   6.039  -0.005  0.4930 -0.4283  0.1508
 3615TIP3   OH232403   2.684   2.566   6.843  0.8646 -0.7142 -0.1542
 3615TIP3    H132404   2.666   2.659   6.860  0.7045 -0.9089  0.7829
 3615TIP3    H232405   2.617   2.519   6.893 -0.3674 -1.3233 -2.2385
 3616TIP3   OH232406   4.404   3.761   2.026 -0.3811  0.8481 -0.6451
 3616TIP3    H132407   4.326   3.725   1.983  0.5492  1.1177 -2.7206
 3616TIP3    H232408   4.475   3.703   1.997  0.5984  2.2705 -1.2024
 3617TIP3   OH232409   4.126   1.407   6.960  0.0605 -0.4129 -0.2074
 3617TIP3    H132410   4.051   1.435   6.906  0.3736  0.9513  0.0260
 3617TIP3    H232411   4.191   1.378   6.896 -0.3758 -0.9044 -0.4457
 3618TIP3   OH232412   2.134   4.183   0.109  0.3347  0.4244  0.4764
 3618TIP3    H132413   2.082   4.166   0.030 -0.9318  0.3626  1.2918
 3618TIP3    H232414   2.069   4.196   0.178  1.4157 -0.5935  1.7366
 3619TIP3   OH232415   2.432   3.891   8.648  0.3376  0.2991  0.5785
 3619TIP3    H132416   2.473   3.833   8.712  0.4172  0.9447  1.1141
 3619TIP3    H232417   2.480   3.974   8.656  1.3389 -0.0280 -1.3231
 3620TIP3   OH232418   4.319   1.757   0.365  0.2256  0.1917 -0.2835
 3620TIP3    H132419   4.304   1.837   0.415  2.5578  1.1701 -1.0036
 3620TIP3    H232420   4.326   1.689   0.431  0.1972  0.9173  0.4932
 3621TIP3   OH232421   0.166   5.705   7.550 -0.0032 -0.1531  0.3021
 3621TIP3    H132422   0.082   5.663   7.569  0.0616 -0.8927 -0.9774
 3621TIP3    H232423   0.170   5.709   7.455  0.5422  1.6872  0.3630
 3622TIP3   OH232424   5.472   3.903   0.839 -0.1019 -0.7637  0.1253
 3622TIP3    H132425   5.378   3.923   0.847 -0.4716 -2.8152  1.7677
 3622TIP3    H232426   5.514   3.964   0.900 -0.6634 -1.4298  1.2220
 3623TIP3   OH232427   1.803   4.962   8.404 -0.2561 -0.1107  0.4641
 3623TIP3    H132428   1.717   4.993   8.376  1.2100  1.8461 -2.3865
 3623TIP3    H232429   1.810   4.991   8.495 -3.0554 -1.5428  1.2642
 3624TIP3   OH232430   1.823   5.775   0.873 -0.3652  0.0088  0.5313
 3624TIP3    H132431   1.827   5.857   0.923  1.6451  0.5171 -0.3669
 3624TIP3    H232432   1.818   5.803   0.782 -1.0836 -0.9029  0.2711
 3625TIP3   OH232433   0.477   4.956   0.663  0.0308  0.4296  0.1116
 3625TIP3    H132434   0.453   4.863   0.663  1.2769  0.0852 -0.5155
 3625TIP3    H232435   0.456   4.986   0.751  1.4367 -0.9680  0.9719
 3626TIP3   OH232436   1.775   2.723   0.297 -0.3884 -0.6465  0.5643
 3626TIP3    H132437   1.691   2.696   0.260  0.2989 -2.2417  0.0738
 3626TIP3    H232438   1.795   2.657   0.363  0.6597 -0.5110  0.4048
 3627TIP3   OH232439   2.963   3.147   2.742 -0.5444 -0.9938  0.1759
 3627TIP3    H132440   3.019   3.078   2.706  1.7194  0.8145 -0.0001
 3627TIP3    H232441   2.961   3.129   2.836  0.4283 -1.0789  0.1965
 3628TIP3   OH232442   1.527   6.354   2.573 -0.1444  0.0625  0.1907
 3628TIP3    H132443   1.510   6.448   2.572 -0.8314 -0.0186  1.5741
 3628TIP3    H232444   1.581   6.340   2.651 -1.2109 -0.8477  0.7949
 3629TIP3   OH232445   5.201   6.586   1.963  0.1128  0.4408  0.0863
 3629TIP3    H132446   5.252   6.665   1.947 -0.8411  1.1487  0.4407
 3629TIP3    H232447   5.144   6.609   2.036 -0.6245 -0.3611 -0.2252
 3630TIP3   OH232448   1.939   1.791   8.512  0.3556 -0.0570 -0.2265
 3630TIP3    H132449   2.014   1.790   8.573  2.2852  0.3654 -2.4568
 3630TIP3    H232450   1.951   1.872   8.462 -2.2884  0.6005  0.0697
 3631TIP3   OH232451   3.255   6.192   8.866 -0.0481 -0.2786  0.6848
 3631TIP3    H132452   3.213   6.131   8.926 -0.7265 -0.4381  0.0580
 3631TIP3    H232453   3.278   6.139   8.789 -1.2313  0.3683 -0.1350
 3632TIP3   OH232454   5.863   6.388   2.068 -0.2393 -0.3754 -0.6881
 3632TIP3    H132455   5.860   6.396   2.163 -0.0674  0.7304 -0.7597
 3632TIP3    H232456   5.945   6.431   2.043 -0.3875 -0.4670 -1.3506
 3633TIP3   OH232457   0.542   6.722   1.787  0.0858 -0.2999 -0.1359
 3633TIP3    H132458   0.601   6.654   1.819 -1.6743 -1.6541  0.3896
 3633TIP3    H232459   0.600   6.790   1.752  2.0137 -0.4486  2.5118
 3634TIP3   OH232460   2.531   4.929   7.837 -0.2519 -0.7421  0.3203
 3634TIP3    H132461   2.605   4.979   7.872 -0.7562 -0.2785  0.7482
 3634TIP3    H232462   2.499   4.983   7.764  0.0518 -1.1229 -0.1034
 3635TIP3   OH232463   5.575   3.498   2.173 -0.8465  0.2409  0.3071
 3635TIP3    H132464   5.577   3.499   2.077 -0.6697 -1.4449  0.2771
 3635TIP3    H232465   5.660   3.532   2.199 -1.5367  2.4488 -0.0690
 3636TIP3   OH232466   5.484   2.349   2.705 -0.4199 -0.0166 -0.0861
 3636TIP3    H132467   5.554   2.305   2.753 -1.4624 -0.2647  1.2637
 3636TIP3    H232468   5.471   2.432   2.752 -0.1923  0.6029 -1.0882
 3637TIP3   OH232469   2.359   6.513   8.774 -0.6316  0.1656 -0.2151
 3637TIP3    H132470   2.414   6.481   8.703 -2.0500 -1.8031 -0.5234
 3637TIP3    H232471   2.416   6.517   8.850 -0.3170 -3.4323 -0.1118
 3638TIP3   OH232472   3.492   2.631   7.598 -0.0878  0.2547  0.2971
 3638TIP3    H132473   3.450   2.582   7.669 -0.6816  1.8537  1.1106
 3638TIP3    H232474   3.442   2.607   7.520 -2.0346  1.4144  1.0971
 3639TIP3   OH232475   4.778   5.937   0.010  0.0134 -0.0842 -0.6128
 3639TIP3    H132476   4.732   5.948  -0.073 -0.5000  0.1327 -0.3024
 3639TIP3    H232477   4.709   5.915   0.073  0.3092  0.4285 -0.1068
 3640TIP3   OH232478   3.647   6.634   1.706 -0.3018 -0.6829  0.0826
 3640TIP3    H132479   3.711   6.603   1.769 -1.2932  0.6439  1.8592
 3640TIP3    H232480   3.686   6.712   1.667 -0.3284 -0.5831  0.2546
 3641TIP3   OH232481   2.867   4.170   2.091  0.1277 -0.7840  0.5739
 3641TIP3    H132482   2.847   4.260   2.067  0.3060 -0.2583  2.2414
 3641TIP3    H232483   2.963   4.168   2.100  0.0479 -0.8082  1.6268
 3642TIP3   OH232484   1.791   0.590   1.152  0.2198 -0.4650  0.8425
 3642TIP3    H132485   1.767   0.539   1.074 -0.7609  1.6426 -0.3196
 3642TIP3    H232486   1.877   0.555   1.177  0.4986 -1.3125 -1.0909
 3643TIP3   OH232487   2.721   2.879   6.919 -0.0094 -0.0765  0.0085
 3643TIP3    H132488   2.642   2.930   6.901  0.1250 -0.7808 -3.1766
 3643TIP3    H232489   2.790   2.945   6.931 -0.3581  0.5483 -1.2407
 3644TIP3   OH232490   1.228   2.798   7.462 -0.0305 -0.4515 -0.6608
 3644TIP3    H132491   1.174   2.852   7.405 -1.8327 -0.2479  1.1060
 3644TIP3    H232492   1.200   2.822   7.551  3.4566  0.1343  0.4336
 3645TIP3   OH232493   3.577   6.208   1.518  0.2586  0.0798  0.0567
 3645TIP3    H132494   3.522   6.132   1.534  2.6326 -2.0912 -1.2982
 3645TIP3    H232495   3.517   6.276   1.489 -2.0070 -1.1251  1.6801
 3646TIP3   OH232496   6.167   1.856   1.923  0.4523  0.3400  0.4916
 3646TIP3    H132497   6.155   1.950   1.935  2.4298  0.7670 -0.4030
 3646TIP3    H232498   6.169   1.820   2.011  0.0735  1.1819  0.8554
 3647TIP3   OH232499   0.160   5.788   1.242 -0.0521  0.0206  0.3590
 3647TIP3    H132500   0.162   5.772   1.147 -0.5288 -1.2518  0.5431
 3647TIP3    H232501   0.074   5.758   1.270  0.2283  0.0233  1.2674
 3648TIP3   OH232502   2.434   0.144   1.691  0.2907  0.3196 -0.0987
 3648TIP3    H132503   2.406   0.220   1.742 -1.0254  0.6312 -1.2134
 3648TIP3    H232504   2.415   0.168   1.600  3.6738  0.2732 -0.9230
 3649TIP3   OH232505   2.870   3.181   2.255 -0.1109 -0.1871 -0.4302
 3649TIP3    H132506   2.895   3.216   2.340 -1.4532  0.7663 -0.3971
 3649TIP3    H232507   2.784   3.142   2.270 -0.3069 -0.1177 -1.3239
 3650TIP3   OH232508   0.300   0.422   1.847  0.3958 -0.5744  0.1319
 3650TIP3    H132509   0.313   0.351   1.785  0.4327 -0.5476  0.1086
 3650TIP3    H232510   0.359   0.491   1.817 -0.5217 -0.0632 -0.5762
 3651TIP3   OH232511   6.386   1.076   7.530 -0.6284  0.1297  0.6487
 3651TIP3    H132512   6.293   1.099   7.526 -0.8024 -0.6535 -0.8076
 3651TIP3    H232513   6.420   1.101   7.444  0.2836 -0.4792  0.8188
 3652TIP3   OH232514   0.848   0.282   1.065 -0.2607 -0.4110 -0.0109
 3652TIP3    H132515   0.776   0.328   1.109 -0.8380 -1.3554  0.0504
 3652TIP3    H232516   0.837   0.303   0.973 -0.3956 -0.2576  0.0394
 3653TIP3   OH232517   0.396   5.784   0.939 -0.2175 -0.8304 -0.3296
 3653TIP3    H132518   0.492   5.784   0.947 -0.2067  0.6254 -0.2400
 3653TIP3    H232519   0.379   5.816   0.851 -0.6283 -0.1036  0.0063
 3654TIP3   OH232520   4.823   2.293   2.429  0.0994  0.0365  0.0880
 3654TIP3    H132521   4.878   2.362   2.467 -0.0181 -1.0940  2.5029
 3654TIP3    H232522   4.827   2.222   2.493 -2.2433 -1.0284 -0.8544
 3655TIP3   OH232523   2.860   0.072   8.791 -0.3739  0.7576  0.0799
 3655TIP3    H132524   2.884   0.121   8.712 -0.2120 -1.8663 -1.6377
 3655TIP3    H232525   2.926   0.003   8.797 -0.6384  0.6409  2.3028
 3656TIP3   OH232526   3.089   4.458   0.238  0.2889  0.2236  0.3622
 3656TIP3    H132527   3.109   4.411   0.318 -1.8890  0.5255  1.1562
 3656TIP3    H232528   3.173   4.463   0.191  1.1467 -1.9661  1.5137
 3657TIP3   OH232529   1.937   1.481   7.229  0.7269 -0.9330  0.0401
 3657TIP3    H132530   1.975   1.540   7.164 -0.9479 -0.9851 -1.0483
 3657TIP3    H232531   1.885   1.420   7.178 -0.8581 -0.8262  1.4509
 3658TIP3   OH232532   5.263   4.383   8.314  0.3060  0.3790  0.7395
 3658TIP3    H132533   5.300   4.334   8.241 -1.9815  1.8474 -1.5297
 3658TIP3    H232534   5.244   4.316   8.380  1.8612 -1.0608 -0.1813
 3659TIP3   OH232535   3.458   3.095   7.836 -0.2458  0.6033 -0.2164
 3659TIP3    H132536   3.462   3.034   7.762  1.4529  0.6348 -0.1853
 3659TIP3    H232537   3.398   3.164   7.807 -1.7080 -0.7408 -0.4945
 3660TIP3   OH232538   0.080   0.805   2.732 -0.5990 -0.0493 -0.1930
 3660TIP3    H132539   0.094   0.712   2.750 -1.8060 -0.3302 -0.6666
 3660TIP3    H232540   0.149   0.849   2.783  0.0379 -1.1890 -0.0232
 3661TIP3   OH232541   0.708   0.822   8.832  0.1736 -0.1323 -0.3954
 3661TIP3    H132542   0.634   0.805   8.773  0.9857 -0.9662 -1.2146
 3661TIP3    H232543   0.669   0.830   8.919 -0.8856 -0.5398 -0.8190
 3662TIP3   OH232544   0.658   2.625   1.277 -0.4984 -0.0627 -0.1228
 3662TIP3    H132545   0.660   2.709   1.324  1.1560  1.0257 -1.9950
 3662TIP3    H232546   0.749   2.595   1.277 -1.1232 -2.1977  0.9580
 3663TIP3   OH232547   4.993   2.186   8.532 -0.1528  0.1853  0.2773
 3663TIP3    H132548   5.012   2.098   8.564 -0.0854 -0.4559 -1.4246
 3663TIP3    H232549   4.899   2.196   8.546 -1.2610 -2.1986 -3.9560
 3664TIP3   OH232550   2.016   1.448   1.726 -0.2316 -0.1683  0.1553
 3664TIP3    H132551   1.925   1.434   1.752 -0.2886 -0.0169  0.0439
 3664TIP3    H232552   2.013   1.449   1.630 -0.0147 -0.8006  0.1374
 3665TIP3   OH232553   5.950   3.349   7.597 -0.1842 -0.6841 -0.0931
 3665TIP3    H132554   5.865   3.384   7.624 -0.3214  0.1779 -1.5537
 3665TIP3    H232555   6.013   3.397   7.651 -0.4738  0.7729 -1.0052
 3666TIP3   OH232556   4.622   0.931   8.437 -0.6632 -0.1420 -0.5501
 3666TIP3    H132557   4.700   0.927   8.382  0.1400  1.5611  0.3675
 3666TIP3    H232558   4.556   0.881   8.390  0.8665 -1.3064 -1.5444
 3667TIP3   OH232559   4.132   1.439   8.547 -0.0702  0.1461 -0.2220
 3667TIP3    H132560   4.212   1.485   8.522 -0.7692  1.7798  0.3957
 3667TIP3    H232561   4.076   1.443   8.469  0.2067 -0.4932 -0.4647
 3668TIP3   OH232562   0.533   2.020   1.627 -0.6849 -0.4443 -0.6687
 3668TIP3    H132563   0.597   1.955   1.656 -0.9515 -0.2309  0.4139
 3668TIP3    H232564   0.584   2.081   1.574  0.2191  0.2248  0.9044
 3669TIP3   OH232565   3.399   4.769   8.453 -0.1883 -0.7488 -0.5944
 3669TIP3    H132566   3.313   4.808   8.464 -0.7973 -2.3437  0.8372
 3669TIP3    H232567   3.433   4.806   8.372 -1.3176  1.4928 -0.1087
 3670TIP3   OH232568   5.248   0.617   2.919 -0.3646  0.0637  0.2100
 3670TIP3    H132569   5.173   0.652   2.967  0.8588  2.2475  0.6801
 3670TIP3    H232570   5.270   0.686   2.857  1.4904 -0.3322  0.3785
 3671TIP3   OH232571   1.722   3.950   7.336 -0.2609 -0.6890  0.3088
 3671TIP3    H132572   1.761   4.032   7.366  0.6315 -1.7479  2.2448
 3671TIP3    H232573   1.669   3.974   7.260  0.7507  1.5016  0.2381
 3672TIP3   OH232574   1.001   4.821   1.601 -0.0322  0.4221 -0.4633
 3672TIP3    H132575   0.962   4.829   1.514  0.8812 -0.2746 -0.9520
 3672TIP3    H232576   1.012   4.912   1.631  0.6339  0.7163 -1.5385
 3673TIP3   OH232577   0.042   2.061   7.970  0.1892  0.0920  0.3230
 3673TIP3    H132578   0.006   2.119   7.903  0.3663  0.6973  0.7440
 3673TIP3    H232579  -0.031   2.043   8.029  0.4138  0.8956  0.8805
 3674TIP3   OH232580   1.880   1.611   7.688  0.4563  0.4195  0.2156
 3674TIP3    H132581   1.892   1.705   7.674  0.0998  0.3542 -0.6192
 3674TIP3    H232582   1.869   1.602   7.782  0.7605  1.1845  0.3331
 3675TIP3   OH232583   1.469   2.438   2.729 -0.1122  0.2846 -0.4155
 3675TIP3    H132584   1.509   2.499   2.791 -0.2509 -1.7612  1.8109
 3675TIP3    H232585   1.511   2.354   2.747 -2.8208 -1.1924 -0.4511
 3676TIP3   OH232586   4.872   2.872   8.389  0.3315  0.0276 -0.3267
 3676TIP3    H132587   4.886   2.784   8.355  1.2988 -0.4084  1.1015
 3676TIP3    H232588   4.925   2.928   8.331 -0.6974 -0.2264 -1.5570
 3677TIP3   OH232589   2.637   1.942   0.760 -0.2754  0.0935 -0.2733
 3677TIP3    H132590   2.660   2.002   0.689 -2.0469  1.8618  0.5622
 3677TIP3    H232591   2.600   1.866   0.715 -0.1081  0.5951 -1.2919
 3678TIP3   OH232592   0.347   3.987   0.345  0.2241  0.1536 -0.3214
 3678TIP3    H132593   0.355   4.056   0.411 -1.8890  2.6677 -2.4927
 3678TIP3    H232594   0.396   4.020   0.270 -0.7726 -0.7317 -1.3902
 3679TIP3   OH232595   0.738   0.130   7.486  0.7137  0.0949  0.3055
 3679TIP3    H132596   0.674   0.075   7.441  0.3002  0.2790  0.6611
 3679TIP3    H232597   0.737   0.099   7.577 -0.5099  1.5205  0.8338
 3680TIP3   OH232598   1.056   6.456   0.570 -0.3360 -0.0084 -0.1992
 3680TIP3    H132599   1.101   6.519   0.514  0.3543 -0.1102  0.2346
 3680TIP3    H232600   1.124   6.394   0.596 -0.7447 -0.2116  0.3954
 3681TIP3   OH232601   3.405   0.845   8.106 -0.1668 -0.1389  0.0993
 3681TIP3    H132602   3.424   0.881   8.193 -0.3395 -1.5339  0.7479
 3681TIP3    H232603   3.424   0.751   8.115  0.1409 -0.2484 -1.4751
 3682TIP3   OH232604   0.423   4.697   0.761 -0.0671 -0.0511  0.1064
 3682TIP3    H132605   0.401   4.653   0.679 -0.0019  1.0676 -0.5212
 3682TIP3    H232606   0.340   4.702   0.808 -0.0534 -0.9467  0.2491
 3683TIP3   OH232607   0.448   5.269   8.143  0.5421 -0.1592 -0.4828
 3683TIP3    H132608   0.517   5.223   8.190  0.4788  0.2247 -0.0138
 3683TIP3    H232609   0.406   5.324   8.208 -1.0765 -1.3448 -0.4512
 3684TIP3   OH232610   6.715   4.172   0.822  0.1044  0.0611  0.4037
 3684TIP3    H132611   6.670   4.098   0.781 -1.7792  0.3046  1.8735
 3684TIP3    H232612   6.769   4.132   0.891 -0.5588 -0.0021  0.8969
 3685TIP3   OH232613   2.585   6.495   8.597  0.0273  0.7461 -0.0279
 3685TIP3    H132614   2.577   6.415   8.545 -1.5369  0.4167  0.6434
 3685TIP3    H232615   2.666   6.484   8.646 -1.5666 -1.8788  2.3097
 3686TIP3   OH232616   0.609   3.641   6.677 -0.5556 -0.1811  0.1832
 3686TIP3    H132617   0.603   3.612   6.586 -1.5349  0.6707 -0.0438
 3686TIP3    H232618   0.531   3.604   6.719 -0.7169  0.3794  0.3880
 3687TIP3   OH232619   2.142   4.104   1.538 -0.2457  0.7332  0.0030
 3687TIP3    H132620   2.170   4.186   1.578 -0.1456  0.0845  1.3114
 3687TIP3    H232621   2.049   4.096   1.560 -0.6723  1.2706 -1.5108
 3688TIP3   OH232622   1.821   2.578   7.884 -0.2479  0.3155 -0.3819
 3688TIP3    H132623   1.837   2.671   7.897 -0.6584  0.4606 -0.8701
 3688TIP3    H232624   1.880   2.553   7.812 -1.3342  0.5957 -1.4099
 3689TIP3   OH232625   2.039   3.094   1.945 -0.0242  0.7788 -0.3685
 3689TIP3    H132626   2.076   3.067   1.861  2.7305 -1.7330  1.4575
 3689TIP3    H232627   2.115   3.100   2.003 -1.5753  4.1553  1.6509
 3690TIP3   OH232628   3.203   4.142   0.177  0.0562  0.5255  0.5524
 3690TIP3    H132629   3.227   4.067   0.232  0.8136  0.3729  0.0228
 3690TIP3    H232630   3.107   4.138   0.173  0.1096 -1.1901 -0.4923
 3691TIP3   OH232631   1.740   3.893   0.201 -0.5314  0.3084  0.0418
 3691TIP3    H132632   1.683   3.821   0.229  0.9295 -0.4223  1.2307
 3691TIP3    H232633   1.799   3.907   0.275  0.5323  1.3646 -0.9756
 3692TIP3   OH232634   0.727   5.150   0.902  0.2774  0.7286  0.1247
 3692TIP3    H132635   0.808   5.190   0.931  2.0053 -1.3271 -1.5541
 3692TIP3    H232636   0.702   5.201   0.824  1.1921  0.0504 -0.6349
 3693TIP3   OH232637   3.277   3.871   2.228  0.0909 -0.6415  0.1217
 3693TIP3    H132638   3.317   3.874   2.141  0.0161  2.6391  0.0632
 3693TIP3    H232639   3.351   3.859   2.288  0.2513 -1.9060 -0.2924
 3694TIP3   OH232640   1.871   0.841   1.855 -0.6026 -0.2339 -0.3331
 3694TIP3    H132641   1.905   0.769   1.908  0.2666 -0.2482 -0.8890
 3694TIP3    H232642   1.949   0.885   1.822 -1.0861 -0.9660 -2.5962
 3695TIP3   OH232643   4.588   4.255   2.469  0.2558 -0.6518 -0.1824
 3695TIP3    H132644   4.557   4.259   2.379  0.1781  0.3400 -0.1149
 3695TIP3    H232645   4.515   4.287   2.522  0.5688 -0.5025  0.1660
 3696TIP3   OH232646   0.972   2.190   8.344 -0.2060 -0.6156  0.1741
 3696TIP3    H132647   0.987   2.106   8.387 -0.1700 -1.5159 -1.4967
 3696TIP3    H232648   1.002   2.177   8.254 -0.0173  1.2577 -0.0858
 3697TIP3   OH232649   4.869   0.621   7.484  0.6001 -0.2044  0.2269
 3697TIP3    H132650   4.778   0.611   7.456 -0.0206  4.6441 -0.4908
 3697TIP3    H232651   4.864   0.634   7.579  0.3532  0.8463  0.0870
 3698TIP3   OH232652   3.934   0.481   2.474 -0.1149 -0.5033  0.1794
 3698TIP3    H132653   3.839   0.486   2.476 -0.1326 -0.3693 -0.7342
 3698TIP3    H232654   3.956   0.408   2.533 -0.8438 -1.2354 -0.4297
 3699TIP3   OH232655   1.331   4.356   2.109 -0.0283  0.0698 -0.7299
 3699TIP3    H132656   1.316   4.291   2.177  0.9914 -0.3352 -0.8790
 3699TIP3    H232657   1.390   4.313   2.047  2.9214  1.9932  0.5101
 3700TIP3   OH232658   6.106   6.761   0.552 -0.0828 -0.3007 -0.3341
 3700TIP3    H132659   6.104   6.821   0.478 -0.7863  2.9222  2.0984
 3700TIP3    H232660   6.159   6.806   0.618 -1.0971 -2.1241  1.8640
 3701TIP3   OH232661   2.838   6.288   7.678 -0.1302 -0.1811 -0.0517
 3701TIP3    H132662   2.861   6.318   7.766  1.2264 -0.0069 -0.4477
 3701TIP3    H232663   2.755   6.242   7.689 -0.6913  1.0362  1.0923
 3702TIP3   OH232664   0.727   0.049   3.109 -0.2093  0.6556  0.9207
 3702TIP3    H132665   0.690   0.129   3.147 -0.2261  1.7021 -1.1465
 3702TIP3    H232666   0.666   0.025   3.039  1.1353  0.3671 -0.2164
 3703TIP3   OH232667   2.600   5.818   0.913  0.2737  0.1070  0.7812
 3703TIP3    H132668   2.527   5.850   0.860  0.6426 -0.0281  0.1848
 3703TIP3    H232669   2.578   5.846   1.002  0.0037  0.9725  0.4603
 3704TIP3   OH232670   0.108   1.828   7.007  0.0505  0.0909  0.0259
 3704TIP3    H132671   0.117   1.766   6.935 -0.7336  1.4802 -1.3220
 3704TIP3    H232672   0.130   1.777   7.085 -0.3369 -1.8020 -1.0445
 3705TIP3   OH232673   5.756   2.145   7.770  0.6072 -0.1638  0.1143
 3705TIP3    H132674   5.686   2.159   7.706  0.3244 -0.8363  0.2695
 3705TIP3    H232675   5.818   2.217   7.754  1.3395 -1.1686 -1.9866
 3706TIP3   OH232676   2.209   0.926   0.885 -0.3368  0.1708  0.4914
 3706TIP3    H132677   2.241   0.845   0.844 -2.6218  0.3558 -1.9435
 3706TIP3    H232678   2.256   0.996   0.840 -0.2184  0.2716  0.7717
 3707TIP3   OH232679   0.940   4.550   1.309 -0.3471 -0.1307 -0.4979
 3707TIP3    H132680   0.967   4.513   1.393  0.9248 -0.8109 -1.1862
 3707TIP3    H232681   0.937   4.644   1.325 -2.5377 -0.3671  0.9724
 3708TIP3   OH232682   5.064   1.264   0.923 -0.4001  0.0635  0.1564
 3708TIP3    H132683   4.983   1.312   0.943 -0.0560  1.8843 -2.3409
 3708TIP3    H232684   5.119   1.277   1.001 -0.7809  2.8753  0.0720
 3709TIP3   OH232685   1.559   3.159   1.300 -0.1371 -0.2914  0.1407
 3709TIP3    H132686   1.520   3.073   1.282  1.7877 -1.0492 -0.7027
 3709TIP3    H232687   1.605   3.147   1.383  1.5288 -0.6255 -0.7909
 3710TIP3   OH232688   0.075   5.609   2.799  0.4824  0.6470  0.3275
 3710TIP3    H132689   0.129   5.579   2.726  0.1864  0.0731  0.3377
 3710TIP3    H232690   0.060   5.702   2.781  0.7347  0.6036 -0.1369
 3711TIP3   OH232691   4.075   3.976   8.335 -0.2188  0.1657 -0.1243
 3711TIP3    H132692   4.106   4.038   8.402  2.2086 -1.5646  0.4708
 3711TIP3    H232693   4.016   3.918   8.382  1.0125 -0.6765  0.4215
 3712TIP3   OH232694   3.642   6.288   1.799 -0.2465  0.2751  0.8905
 3712TIP3    H132695   3.712   6.351   1.784  0.1854 -0.3325  0.2866
 3712TIP3    H232696   3.643   6.232   1.721 -0.9563 -0.1576  1.1811
 3713TIP3   OH232697   5.899   6.484   8.679  0.3738 -0.0521 -0.4817
 3713TIP3    H132698   5.944   6.527   8.753  0.7903 -2.0902  0.5193
 3713TIP3    H232699   5.806   6.498   8.697  0.4936  1.1260 -0.6533
 3714TIP3   OH232700   6.379   4.820   0.864  0.5837  0.2970  0.1217
 3714TIP3    H132701   6.405   4.791   0.952 -0.3584 -0.7851  0.0477
 3714TIP3    H232702   6.452   4.793   0.808  0.2329 -0.9515  0.2357
 3715TIP3   OH232703   2.610   1.061   8.655  0.1019  0.5339 -0.2753
 3715TIP3    H132704   2.664   1.121   8.604 -0.8244  0.1599 -1.7500
 3715TIP3    H232705   2.670   1.023   8.719  1.4468  0.5564 -1.4807
 3716TIP3   OH232706   4.422   4.850   0.966 -0.1312  0.2680 -0.1798
 3716TIP3    H132707   4.460   4.934   0.941  0.2507  0.3013  0.4617
 3716TIP3    H232708   4.331   4.869   0.986 -0.9097 -0.0638 -3.0866
 3717TIP3   OH232709   1.504   5.302   1.159 -0.0885  0.0708 -0.0211
 3717TIP3    H132710   1.466   5.257   1.084  1.2646 -1.8643  0.3538
 3717TIP3    H232711   1.595   5.272   1.160  0.3356  1.3069  1.4525
 3718TIP3   OH232712   0.338   1.344   0.764 -0.3086  0.3591  0.2927
 3718TIP3    H132713   0.375   1.425   0.728 -1.3690  1.1597  0.9541
 3718TIP3    H232714   0.391   1.274   0.725  0.2937  1.3379 -0.7058
 3719TIP3   OH232715   2.515   4.378   1.747  0.5823  0.6976  0.4715
 3719TIP3    H132716   2.544   4.453   1.696 -1.3756  1.3725  0.2578
 3719TIP3    H232717   2.546   4.302   1.699 -1.2339  1.3037 -1.8461
 3720TIP3   OH232718   5.727   0.193   0.001  0.0990  0.0114  0.3079
 3720TIP3    H132719   5.664   0.214  -0.068 -1.3830 -0.9038  1.3240
 3720TIP3    H232720   5.799   0.255  -0.013  0.5568 -1.0503 -2.9017
 3721TIP3   OH232721   4.552   5.410   8.829  0.5903  0.1362 -0.1047
 3721TIP3    H132722   4.469   5.441   8.864  1.9045  3.5252  0.4199
 3721TIP3    H232723   4.535   5.397   8.736 -0.9076 -0.9105  0.2833
 3722TIP3   OH232724   6.686   3.005   1.069 -0.2249  0.0611  0.3305
 3722TIP3    H132725   6.738   2.945   1.123 -0.5401 -0.6559 -0.1453
 3722TIP3    H232726   6.750   3.056   1.020  0.0427 -0.0500  0.5660
 3723TIP3   OH232727   0.492   5.306   1.568  0.1068 -0.5088  0.0228
 3723TIP3    H132728   0.580   5.291   1.601 -0.5039 -3.0982  0.6661
 3723TIP3    H232729   0.453   5.219   1.559 -1.5572  0.3600 -2.6857
 3724TIP3   OH232730   2.858   4.746   0.592  0.4760  0.6597 -0.0785
 3724TIP3    H132731   2.828   4.836   0.604  0.2244  0.6721 -0.7010
 3724TIP3    H232732   2.851   4.706   0.678  2.6985  1.8369  0.7031
 3725TIP3   OH232733   2.529   6.304   0.255  0.1233  0.2756 -0.1629
 3725TIP3    H132734   2.610   6.337   0.293  0.7174 -0.4168 -0.8195
 3725TIP3    H232735   2.478   6.275   0.331  1.0398 -0.5061  0.1778
 3726TIP3   OH232736   4.252   5.224   2.331 -0.3459 -0.5143 -0.8868
 3726TIP3    H132737   4.277   5.133   2.321  0.4970 -0.3138 -0.6350
 3726TIP3    H232738   4.330   5.274   2.306  0.2004  0.0860  1.7065
 3727TIP3   OH232739   5.987   4.066   1.285  0.0978  0.7096 -0.1385
 3727TIP3    H132740   5.977   4.081   1.191 -1.9049 -0.5564 -0.2030
 3727TIP3    H232741   6.017   3.975   1.292  1.4887  1.1932  0.4409
 3728TIP3   OH232742   3.290   0.841   1.231  0.0980  0.0960  0.5612
 3728TIP3    H132743   3.340   0.765   1.262  0.5609 -0.1380 -0.6863
 3728TIP3    H232744   3.343   0.917   1.256  0.0426 -0.0339  1.0816
 3729TIP3   OH232745   4.888   1.531   0.298 -0.2899  0.5772 -0.1874
 3729TIP3    H132746   4.917   1.486   0.377  2.2920  1.5043 -0.5126
 3729TIP3    H232747   4.948   1.605   0.289 -1.0124  0.9646 -2.5691
 3730TIP3   OH232748   0.172   4.681   8.223 -0.1868 -0.2411  0.7093
 3730TIP3    H132749   0.255   4.689   8.270 -0.8014 -0.2772  1.8434
 3730TIP3    H232750   0.195   4.696   8.132  1.3481 -1.9645  0.7499
 3731TIP3   OH232751   1.640   4.409   1.024 -0.0717  0.3060  0.1674
 3731TIP3    H132752   1.730   4.411   0.992  0.4468 -0.8216  1.4607
 3731TIP3    H232753   1.613   4.501   1.027  1.2317  0.7044  0.3100
 3732TIP3   OH232754   1.219   1.384   1.141  0.1423 -0.0275 -0.2353
 3732TIP3    H132755   1.226   1.377   1.045  0.2442 -2.0251 -0.1321
 3732TIP3    H232756   1.290   1.329   1.174 -0.9839 -0.8476  0.9567
 3733TIP3   OH232757   3.223   0.638   0.997 -0.0892  0.7796  0.1000
 3733TIP3    H132758   3.269   0.702   1.050  0.9280 -0.3671  0.6596
 3733TIP3    H232759   3.136   0.675   0.984  1.3156  3.7441 -2.2346
 3734TIP3   OH232760   4.086   3.950   2.248 -0.0790 -0.4097 -0.0013
 3734TIP3    H132761   4.038   3.984   2.323  0.3627  1.9216 -0.6867
 3734TIP3    H232762   4.077   3.855   2.254 -0.8768 -0.2364  2.4183
 3735TIP3   OH232763   6.791   1.359   2.490 -0.5092  0.6033  0.1344
 3735TIP3    H132764   6.823   1.447   2.508  0.8796  0.6654 -2.2002
 3735TIP3    H232765   6.838   1.303   2.552  2.6169  0.9724 -1.7032
 3736TIP3   OH232766   3.404   0.944   0.291 -0.7958 -0.1201 -0.4174
 3736TIP3    H132767   3.317   0.927   0.326 -0.9995  0.1592 -0.7935
 3736TIP3    H232768   3.459   0.957   0.369 -0.8242 -1.5257 -0.1334
 3737TIP3   OH232769   2.062   5.354   0.202 -0.0471 -0.0486  0.1766
 3737TIP3    H132770   2.137   5.407   0.226  0.0938 -0.6256  1.0443
 3737TIP3    H232771   2.100   5.276   0.161 -0.2580  0.5678 -1.2539
 3738TIP3   OH232772   5.481   6.494   2.023  0.1719  0.6752  0.2359
 3738TIP3    H132773   5.397   6.526   1.993  1.0749  2.6099 -0.3829
 3738TIP3    H232774   5.538   6.571   2.024  1.9787 -0.5844  0.5155
 3739TIP3   OH232775   2.872   0.298   7.580  0.3437  0.7457 -0.0814
 3739TIP3    H132776   2.846   0.336   7.663 -1.0210  2.0134 -1.0299
 3739TIP3    H232777   2.855   0.368   7.516 -1.9545 -1.2900 -1.8644
 3740TIP3   OH232778   1.062   0.470   8.173 -0.2654 -0.4655  0.4501
 3740TIP3    H132779   1.119   0.500   8.103  0.6743  1.1419  1.8287
 3740TIP3    H232780   0.980   0.446   8.130  0.9443 -1.4564 -1.4025
 3741TIP3   OH232781   3.948   3.457   2.599 -0.0122 -0.3367  0.0623
 3741TIP3    H132782   3.955   3.486   2.690  2.3255 -0.7782  0.0928
 3741TIP3    H232783   3.935   3.362   2.605 -0.3836 -0.2955 -0.0685
 3742TIP3   OH232784   4.233   2.591   6.961  0.4798  0.1680  0.0516
 3742TIP3    H132785   4.262   2.630   7.044  1.4959  0.4182 -0.4081
 3742TIP3    H232786   4.209   2.501   6.984  0.6519  0.2659  0.6296
 3743TIP3   OH232787   4.826   5.157   8.878  0.1242 -0.2998 -0.1488
 3743TIP3    H132788   4.850   5.122   8.964 -1.4973 -0.0761  0.4274
 3743TIP3    H232789   4.875   5.239   8.871 -0.1975 -0.0175  0.8343
 3744TIP3   OH232790   0.019   2.214   1.991 -0.1442 -0.0019 -0.1336
 3744TIP3    H132791  -0.055   2.228   2.051 -0.2389 -0.2939 -0.1821
 3744TIP3    H232792   0.023   2.295   1.940 -1.3788 -0.5429 -1.1593
 3745TIP3   OH232793   2.159   1.671   7.404  0.0286 -0.3617 -0.4209
 3745TIP3    H132794   2.164   1.679   7.309  1.7295 -0.4866 -0.3780
 3745TIP3    H232795   2.196   1.753   7.437 -2.4110  0.5678  0.1902
 3746TIP3   OH232796   2.685   3.825   7.672  0.3174 -0.1779 -0.5969
 3746TIP3    H132797   2.744   3.896   7.648  0.5561  0.0035  0.4763
 3746TIP3    H232798   2.742   3.748   7.681 -0.0731 -0.8115 -2.8178
 3747TIP3   OH232799   1.064   5.268   7.736  0.3033 -0.1651  0.3630
 3747TIP3    H132800   1.023   5.220   7.664  0.6675  0.8953 -0.5734
 3747TIP3    H232801   1.044   5.360   7.718  0.1450  0.1022  1.7888
 3748TIP3   OH232802   1.019   2.518   1.242  0.1891  0.2000  0.1498
 3748TIP3    H132803   0.964   2.448   1.277  0.5416 -0.8178 -1.2134
 3748TIP3    H232804   1.012   2.509   1.147 -0.5684  2.6907 -0.1184
 3749TIP3   OH232805   3.754   1.811   0.640  0.2103 -0.0016 -0.1883
 3749TIP3    H132806   3.746   1.719   0.614  0.9686  0.2406 -1.3829
 3749TIP3    H232807   3.843   1.818   0.674 -0.2528  0.0399  1.0445
 3750TIP3   OH232808   3.159   1.796   7.974 -0.3895 -0.5873  0.1707
 3750TIP3    H132809   3.231   1.749   7.931 -0.0336 -0.8337  1.0198
 3750TIP3    H232810   3.096   1.812   7.903  1.3679  1.4240 -1.0558
 3751TIP3   OH232811   2.021   2.863   1.453  0.1621  0.2258 -0.3728
 3751TIP3    H132812   2.068   2.881   1.534 -0.9240  0.0879  0.3125
 3751TIP3    H232813   2.017   2.947   1.407 -1.2495  0.8824  0.8416
 3752TIP3   OH232814   4.087   1.123   2.140  0.6945 -0.0328  0.1724
 3752TIP3    H132815   4.136   1.181   2.081  0.2571 -0.5938 -0.7654
 3752TIP3    H232816   4.073   1.176   2.219 -0.1196  1.3499 -0.8404
 3753TIP3   OH232817   0.140   2.490   1.455  0.0672 -0.5069  0.4250
 3753TIP3    H132818   0.067   2.524   1.403 -0.3480 -2.3855 -0.3317
 3753TIP3    H232819   0.108   2.492   1.545 -0.7447 -0.8073  0.1596
 3754TIP3   OH232820   6.723   3.905   8.116  0.5192 -1.0686  0.0795
 3754TIP3    H132821   6.808   3.915   8.158  0.4739  1.4090 -0.2640
 3754TIP3    H232822   6.741   3.907   8.022 -0.0120  1.9676 -0.0615
 3755TIP3   OH232823   6.617   6.359   1.886  0.1335 -0.1098  0.4974
 3755TIP3    H132824   6.549   6.314   1.937  0.0477 -0.2340  0.2755
 3755TIP3    H232825   6.695   6.357   1.941 -0.5304  1.7287  1.5908
 3756TIP3   OH232826   1.996   3.334   6.861  0.4986  0.0416 -0.1595
 3756TIP3    H132827   1.928   3.276   6.895  1.1083  0.4547  1.8920
 3756TIP3    H232828   2.059   3.276   6.819 -0.0604 -0.5503 -0.1833
 3757TIP3   OH232829   2.666   2.061   8.778  0.5405  0.2335 -0.0153
 3757TIP3    H132830   2.717   2.065   8.697 -0.3990 -1.3214 -0.7420
 3757TIP3    H232831   2.575   2.052   8.748  0.3992 -4.2000  1.0104
 3758TIP3   OH232832   1.896   1.619   2.573  0.8972 -0.4176  0.3183
 3758TIP3    H132833   1.839   1.610   2.650  1.4506 -0.2026  0.7646
 3758TIP3    H232834   1.935   1.533   2.562  0.4238 -0.5885 -0.0409
 3759TIP3   OH232835   5.546   4.107   8.487 -0.0828 -0.1156  0.3649
 3759TIP3    H132836   5.507   4.147   8.565 -0.4033 -0.4088  0.3563
 3759TIP3    H232837   5.472   4.095   8.427  0.1286 -0.0894  0.0984
 3760TIP3   OH232838   1.285   4.396   8.107  0.4568 -0.7984  0.0156
 3760TIP3    H132839   1.263   4.379   8.015  0.0777 -1.4721  0.2248
 3760TIP3    H232840   1.331   4.317   8.135  2.6152  0.3172 -0.2279
 3761TIP3   OH232841   3.111   4.687   8.503  0.4935  0.4472  0.2426
 3761TIP3    H132842   3.143   4.705   8.415  0.3930 -0.4254  0.0241
 3761TIP3    H232843   3.016   4.682   8.493  0.5947 -2.4091 -0.1638
 3762TIP3   OH232844   5.449   3.119   8.795 -0.3699  0.1687  0.1359
 3762TIP3    H132845   5.482   3.160   8.875  0.3952 -0.3298  0.0899
 3762TIP3    H232846   5.442   3.026   8.817 -1.4219  0.2021  0.0236
 3763TIP3   OH232847   3.779   5.901   0.989  0.5861  0.4359 -0.7048
 3763TIP3    H132848   3.727   5.981   0.997  2.3658  1.8670 -2.2916
 3763TIP3    H232849   3.751   5.862   0.906  0.2154 -0.2216 -0.2767
 3764TIP3   OH232850   2.993   5.801   0.159 -0.0713 -0.1326  0.3225
 3764TIP3    H132851   3.025   5.748   0.232 -0.4444  1.2621  1.5357
 3764TIP3    H232852   2.934   5.742   0.111 -0.7401 -0.7477  1.8271
 3765TIP3   OH232853   4.947   2.092   2.593 -0.3570  0.1915 -0.1840
 3765TIP3    H132854   4.945   1.996   2.596 -0.5473  0.1841 -0.5923
 3765TIP3    H232855   4.944   2.118   2.685  1.6118 -0.2247  0.0507
 3766TIP3   OH232856   4.668   4.026   7.775 -0.2587  0.5172  0.0195
 3766TIP3    H132857   4.708   4.089   7.835  1.3046 -0.2560 -0.1297
 3766TIP3    H232858   4.730   4.020   7.703 -1.9777  1.2260 -1.5809
 3767TIP3   OH232859   5.870   0.420   7.886 -0.2641  0.2071  0.1168
 3767TIP3    H132860   5.794   0.440   7.830  0.9130  2.1086 -0.9229
 3767TIP3    H232861   5.928   0.496   7.875  0.3913  0.3024  3.3683
 3768TIP3   OH232862   2.991   1.441   8.413  0.1129 -0.0545  0.1043
 3768TIP3    H132863   2.935   1.455   8.336 -0.8127 -2.0535  0.3521
 3768TIP3    H232864   3.072   1.405   8.376 -0.0374 -0.2880 -0.0023
 3769TIP3   OH232865   5.456   2.054   2.084 -0.6061 -0.0645 -0.2755
 3769TIP3    H132866   5.531   2.090   2.132 -0.6812 -0.9532  0.5430
 3769TIP3    H232867   5.460   2.096   1.998  0.4020  0.4470  0.0041
 3770TIP3   OH232868   5.387   1.952   8.498  0.3194 -0.3725 -0.2357
 3770TIP3    H132869   5.412   1.947   8.590 -1.3317 -1.8277  0.1947
 3770TIP3    H232870   5.463   1.991   8.454  0.6308  1.6123  1.9065
 3771TIP3   OH232871   2.548   0.479   2.052 -0.3179 -0.2656  0.1672
 3771TIP3    H132872   2.506   0.512   2.131 -0.0857  0.1234  0.1296
 3771TIP3    H232873   2.636   0.518   2.053 -0.3246 -0.2348 -0.2988
 3772TIP3   OH232874   0.200   0.971   7.661  0.0982  0.4126  0.6591
 3772TIP3    H132875   0.282   0.935   7.626  0.8888  1.4958  1.3424
 3772TIP3    H232876   0.132   0.932   7.607  1.1251  0.1470 -0.4831
 3773TIP3   OH232877   3.159   4.829   2.409  0.0077 -0.1737  0.0280
 3773TIP3    H132878   3.234   4.771   2.393 -1.0174 -1.8980  1.2200
 3773TIP3    H232879   3.161   4.845   2.503 -0.9934 -0.0722  0.0364
 3774TIP3   OH232880   5.675   5.570   2.022  0.0828 -0.4759 -0.8514
 3774TIP3    H132881   5.700   5.571   2.114  1.4597 -2.0195 -1.1395
 3774TIP3    H232882   5.590   5.614   2.019  0.8284  1.2345  0.8648
 3775TIP3   OH232883   2.334   3.161   0.319  0.5110 -0.0612 -0.1867
 3775TIP3    H132884   2.428   3.172   0.306  0.5391 -0.2510 -0.1475
 3775TIP3    H232885   2.327   3.089   0.381  0.3552  0.2629  0.1797
 3776TIP3   OH232886   0.482   2.943   8.492  0.0676 -0.3853 -0.5436
 3776TIP3    H132887   0.475   2.932   8.397  1.0247 -0.3222 -0.6328
 3776TIP3    H232888   0.487   2.854   8.526  1.8250 -0.4031 -0.7512
 3777TIP3   OH232889   2.541   1.721   2.633 -0.0066 -0.6948 -0.3417
 3777TIP3    H132890   2.507   1.721   2.722 -0.2749 -1.0195 -0.4386
 3777TIP3    H232891   2.467   1.692   2.580 -0.2238  0.6279 -0.8170
 3778TIP3   OH232892   0.800   6.431   8.436 -0.2526 -0.0534  0.6892
 3778TIP3    H132893   0.709   6.401   8.429  0.1587 -1.1483 -0.3124
 3778TIP3    H232894   0.815   6.480   8.355  0.3923 -0.8907  0.2856
 3779TIP3   OH232895   1.798   0.875   0.341 -0.0870 -0.1251 -0.5871
 3779TIP3    H132896   1.772   0.860   0.250  0.9163  0.3351 -0.9659
 3779TIP3    H232897   1.810   0.787   0.377 -0.8393 -0.3142 -0.7866
 3780TIP3   OH232898   1.868   4.419   7.519  0.1504  0.5156  0.5384
 3780TIP3    H132899   1.946   4.450   7.564  0.5045 -1.0104  1.0351
 3780TIP3    H232900   1.795   4.452   7.571  0.3805  2.7129 -0.4259
 3781TIP3   OH232901   5.718   0.698   1.170  0.4042  0.2889 -0.4161
 3781TIP3    H132902   5.668   0.759   1.224 -0.6937 -1.0760  0.1591
 3781TIP3    H232903   5.774   0.651   1.233  0.1683 -0.3100 -0.6511
 3782TIP3   OH232904   3.649   6.218   7.185  0.2329  0.6094  0.7518
 3782TIP3    H132905   3.610   6.202   7.099  2.1203  1.4272 -0.3052
 3782TIP3    H232906   3.578   6.254   7.238 -0.6027  1.4742 -0.9145
 3783TIP3   OH232907   0.353   4.388   7.087  0.6559 -0.1969 -0.0222
 3783TIP3    H132908   0.343   4.300   7.122  1.6976 -0.0884  0.5758
 3783TIP3    H232909   0.291   4.392   7.014 -1.4899 -0.4924  1.6686
 3784TIP3   OH232910   0.333   2.332   0.781  0.0329  0.2145  0.4787
 3784TIP3    H132911   0.308   2.267   0.715 -1.5315  1.0782  0.1544
 3784TIP3    H232912   0.416   2.301   0.815  0.7913 -0.3942 -1.7363
 3785TIP3   OH232913   3.875   2.035   8.443  0.1391  0.0310  0.0638
 3785TIP3    H132914   3.815   2.100   8.405  1.8286  2.1456  0.7776
 3785TIP3    H232915   3.825   1.995   8.514 -0.7982  0.9284 -0.0625
 3786TIP3   OH232916   2.071   5.973   8.561 -0.5758  0.2292 -0.3027
 3786TIP3    H132917   2.155   6.007   8.590  0.6742 -2.8710  0.0745
 3786TIP3    H232918   2.035   5.928   8.638 -2.5496  1.3586 -0.5004
 3787TIP3   OH232919   2.852   2.788   1.287  0.9254 -0.3274 -0.1250
 3787TIP3    H132920   2.900   2.824   1.361 -0.4437  0.7819  0.2681
 3787TIP3    H232921   2.821   2.865   1.239 -2.1264 -0.8948  0.7527
 3788TIP3   OH232922   3.794   4.827   1.856  0.1390 -0.4069  0.2938
 3788TIP3    H132923   3.781   4.922   1.868 -0.1938 -0.6509  2.4163
 3788TIP3    H232924   3.855   4.820   1.784  1.2031  1.5137  0.9252
 3789TIP3   OH232925   6.590   0.356   0.942 -0.5752 -0.0726  0.3616
 3789TIP3    H132926   6.500   0.371   0.913 -0.0349  1.5288 -0.6272
 3789TIP3    H232927   6.586   0.358   1.037 -1.5556  0.1616  0.3238
 3790TIP3   OH232928   0.141   5.528   1.705  0.0505  0.2454 -0.0503
 3790TIP3    H132929   0.131   5.573   1.789 -1.1914 -0.5488  0.2622
 3790TIP3    H232930   0.231   5.496   1.705  1.2913  3.3690 -0.6561
 3791TIP3   OH232931   0.188   6.763   8.471  0.1280 -0.3013 -0.1513
 3791TIP3    H132932   0.213   6.702   8.541  1.0960  0.4228  0.1720
 3791TIP3    H232933   0.165   6.707   8.397  0.1588 -1.0714  0.4078
 3792TIP3   OH232934   4.965   2.620   7.540 -0.3408 -0.1863 -0.0943
 3792TIP3    H132935   5.007   2.548   7.492 -0.6967 -0.1613 -0.4558
 3792TIP3    H232936   4.943   2.684   7.472 -1.4314 -0.4323  0.0071
 3793TIP3   OH232937   0.900   6.647   3.172  0.6076 -0.3228 -0.5955
 3793TIP3    H132938   0.828   6.710   3.163 -0.2743 -0.8150  1.9521
 3793TIP3    H232939   0.881   6.579   3.107 -0.5353  0.1853 -0.8235
 3794TIP3   OH232940   3.532   1.066   8.703  0.0396  0.2060  0.2212
 3794TIP3    H132941   3.494   1.057   8.790 -2.9130  0.1919 -0.9731
 3794TIP3    H232942   3.574   1.153   8.705 -1.4081  0.9248  1.1669
 3795TIP3   OH232943   5.682   2.137   1.610 -0.0593  0.0048  0.2684
 3795TIP3    H132944   5.625   2.065   1.635 -0.1427 -0.3685 -0.9206
 3795TIP3    H232945   5.736   2.102   1.539 -0.9337  1.4387 -1.1705
 3796TIP3   OH232946   6.391   2.537   7.302 -0.4980  0.7344  0.4865
 3796TIP3    H132947   6.404   2.620   7.347  1.5235  0.8094 -0.1265
 3796TIP3    H232948   6.451   2.541   7.227 -0.9494 -0.9452 -0.0023
 3797TIP3   OH232949   3.480   3.983   1.637  0.0104  0.1262  0.5302
 3797TIP3    H132950   3.546   4.024   1.581 -1.2973  0.1879 -1.0375
 3797TIP3    H232951   3.526   3.909   1.679  1.0440  0.1200 -0.5757
 3798TIP3   OH232952   5.926   3.003   1.193 -0.1303  0.5208 -0.1297
 3798TIP3    H132953   6.018   2.980   1.176  0.0165 -0.5996  1.8878
 3798TIP3    H232954   5.881   2.919   1.201 -1.0405  1.0284  0.3333
 3799TIP3   OH232955   3.242   5.309   7.773  0.3539 -0.1210 -0.4090
 3799TIP3    H132956   3.278   5.332   7.859 -0.3927  2.1023 -0.6377
 3799TIP3    H232957   3.177   5.241   7.792  1.0909 -0.5781  0.6076
 3800TIP3   OH232958   2.371   0.122   0.202  0.0816 -0.1717 -0.1053
 3800TIP3    H132959   2.447   0.179   0.215  0.2403 -0.7912  2.0963
 3800TIP3    H232960   2.406   0.045   0.157  1.0191 -0.8913  1.7604
 3801TIP3   OH232961   1.877   4.577   1.783 -0.3839 -0.4558 -0.5010
 3801TIP3    H132962   1.934   4.579   1.859 -2.0860 -2.0293  0.9263
 3801TIP3    H232963   1.793   4.609   1.816 -0.4805  1.5103 -2.4564
 3802TIP3   OH232964   5.540   0.634   2.353  0.2312  0.2383  0.5351
 3802TIP3    H132965   5.499   0.720   2.355  0.5376  0.3949  0.2121
 3802TIP3    H232966   5.573   0.620   2.442 -0.2799  0.2275  0.7229
 3803TIP3   OH232967   3.537   2.813   7.237  0.4964  0.0122 -0.1971
 3803TIP3    H132968   3.482   2.887   7.212 -0.1478 -0.2858  0.2823
 3803TIP3    H232969   3.475   2.748   7.269  1.0931 -0.5549 -0.1752
 3804TIP3   OH232970   1.334   4.577   8.315  0.1612  0.4290  0.0768
 3804TIP3    H132971   1.378   4.659   8.294  3.1702 -0.7025  1.3959
 3804TIP3    H232972   1.335   4.527   8.233  0.1372  0.9181 -0.2243
 3805TIP3   OH232973   0.372   6.185   8.658  0.0816 -0.5537 -0.6860
 3805TIP3    H132974   0.355   6.256   8.596 -0.9650 -0.2652 -0.0846
 3805TIP3    H232975   0.390   6.109   8.602 -1.6539 -0.4997 -1.3762
 3806TIP3   OH232976   0.167   3.027   1.402  0.3259 -0.0474 -0.0613
 3806TIP3    H132977   0.114   3.103   1.378  1.9417  0.3520 -2.8490
 3806TIP3    H232978   0.107   2.953   1.397 -0.6771  0.7332  0.0286
 3807TIP3   OH232979   5.413   6.537   0.884  0.2900  0.4754 -0.0596
 3807TIP3    H132980   5.474   6.598   0.927 -0.0061  0.2836  0.6488
 3807TIP3    H232981   5.348   6.518   0.951  0.0733 -0.1998 -0.4586
 3808TIP3   OH232982   4.124   0.463   0.635  0.1430 -0.2310 -0.0908
 3808TIP3    H132983   4.149   0.537   0.580 -0.3936 -0.2870 -0.4140
 3808TIP3    H232984   4.167   0.480   0.719 -0.5276  0.7910  0.0573
 3809TIP3   OH232985   5.292   1.492   2.487  0.6254 -0.0048  0.3992
 3809TIP3    H132986   5.222   1.504   2.423  1.4091  1.1972 -0.2669
 3809TIP3    H232987   5.247   1.485   2.571 -0.5006 -2.5715 -0.3046
 3810TIP3   OH232988   0.844   6.051   0.434  0.0319  0.4980 -0.0850
 3810TIP3    H132989   0.833   6.005   0.351 -0.1580  0.1032  0.1545
 3810TIP3    H232990   0.765   6.105   0.442 -1.2143 -1.3567  1.0180
 3811TIP3   OH232991   1.829   2.680   6.883 -0.7996 -0.0960  0.1795
 3811TIP3    H132992   1.833   2.657   6.790  0.0152  0.6663  0.0088
 3811TIP3    H232993   1.769   2.754   6.887 -2.3337 -1.2927  0.5444
 3812TIP3   OH232994   6.662   2.098   7.551 -0.7087  0.2521  0.1153
 3812TIP3    H132995   6.635   2.153   7.477 -1.8175 -1.2455 -0.6354
 3812TIP3    H232996   6.749   2.130   7.574 -1.0185  1.8311 -0.7638
 3813TIP3   OH232997   4.807   3.728   2.733  0.1891 -0.2112  0.0375
 3813TIP3    H132998   4.805   3.816   2.769  0.6357 -0.0601 -0.2915
 3813TIP3    H232999   4.807   3.670   2.809  0.2745  0.0825  0.2601
 3814TIP3   OH233000   3.851   2.830   1.518 -0.4680 -0.0367  0.6537
 3814TIP3    H133001   3.847   2.754   1.460  2.0008 -0.0981  0.4252
 3814TIP3    H233002   3.848   2.905   1.458  0.4132 -0.0691  0.5445
 3815TIP3   OH233003   2.930   4.307   1.045 -0.0942 -0.6158 -0.3290
 3815TIP3    H133004   2.920   4.334   1.136  0.2244 -1.6350  0.0144
 3815TIP3    H233005   3.025   4.301   1.032 -0.0536  1.1609 -1.2410
 3816TIP3   OH233006   6.111   4.557   1.300 -0.1357  0.2390 -0.1429
 3816TIP3    H133007   6.140   4.534   1.212  1.6959  0.2043  0.4168
 3816TIP3    H233008   6.106   4.473   1.346 -1.3839  0.2254 -0.2788
 3817TIP3   OH233009   1.446   1.356   0.106  0.0778 -0.1304  0.5763
 3817TIP3    H133010   1.510   1.290   0.079 -0.6670 -0.9122  0.6591
 3817TIP3    H233011   1.486   1.399   0.181  0.6593 -0.3604  0.4080
 3818TIP3   OH233012   3.474   4.299   0.590 -0.1926 -0.1570 -0.1196
 3818TIP3    H133013   3.403   4.340   0.541 -0.3134 -0.7683 -0.4724
 3818TIP3    H233014   3.546   4.294   0.527 -0.4468 -1.2270 -0.3459
 3819TIP3   OH233015   2.712   3.428   2.273 -0.2026  0.2170 -0.8697
 3819TIP3    H133016   2.641   3.402   2.331  0.0922  1.3267  0.0225
 3819TIP3    H233017   2.743   3.346   2.235  0.5138 -0.7606  1.6151
 3820TIP3   OH233018   4.993   4.913   1.119 -0.7162  0.7515 -0.2209
 3820TIP3    H133019   4.978   4.938   1.027  0.2345  1.0276 -0.3138
 3820TIP3    H233020   5.060   4.845   1.114 -0.3221  1.0968  0.2945
 3821TIP3   OH233021   5.315   0.123   0.262  0.2788  0.6540  0.0543
 3821TIP3    H133022   5.390   0.096   0.209  0.1189  0.0235  0.1381
 3821TIP3    H233023   5.246   0.142   0.199  0.5762  1.4753 -0.0360
 3822TIP3   OH233024   3.332   3.658   7.576 -0.1354 -0.3172 -0.2138
 3822TIP3    H133025   3.258   3.716   7.563  0.4133  0.5925  0.5562
 3822TIP3    H233026   3.375   3.653   7.491  0.5685  1.5203 -0.0205
 3823TIP3   OH233027   1.679   2.720   1.252 -0.9835 -0.2807  0.1402
 3823TIP3    H133028   1.673   2.640   1.200 -0.6283 -0.8447  0.9417
 3823TIP3    H233029   1.743   2.699   1.321 -1.4315  0.4392  0.7909
 3824TIP3   OH233030   2.750   1.961   1.816 -0.5528 -0.0131 -0.1441
 3824TIP3    H133031   2.728   1.965   1.723  0.1357  1.5999 -0.2756
 3824TIP3    H233032   2.690   2.022   1.858 -1.0913 -0.9874  0.5468
 3825TIP3   OH233033   6.518   1.334   1.004 -0.0769  0.0416 -0.3264
 3825TIP3    H133034   6.468   1.404   0.961  0.6472 -0.2158 -1.6356
 3825TIP3    H233035   6.469   1.254   0.984  1.2080 -0.3168 -2.2879
 3826TIP3   OH233036   0.537   0.819   2.656  0.0136  0.1417  0.7684
 3826TIP3    H133037   0.546   0.892   2.594  0.2489 -0.0392  0.5892
 3826TIP3    H233038   0.627   0.800   2.683  0.0281 -0.5774  0.2420
 3827TIP3   OH233039   6.506   3.567   1.187 -0.1603 -0.4485 -0.4761
 3827TIP3    H133040   6.440   3.619   1.233  1.7700 -0.1083  2.1264
 3827TIP3    H233041   6.472   3.477   1.192 -1.7669  0.0293 -1.8068
 3828TIP3   OH233042   0.144   1.652   0.753  0.4205 -0.5412 -0.1678
 3828TIP3    H133043   0.201   1.591   0.707  0.1751 -0.3282 -0.7644
 3828TIP3    H233044   0.200   1.726   0.774  1.0700 -1.4959  1.7427
 3829TIP3   OH233045   0.440   5.849   8.404  0.2507 -0.0523 -0.3979
 3829TIP3    H133046   0.369   5.907   8.374  0.7113 -0.2063 -1.8378
 3829TIP3    H233047   0.430   5.769   8.352  1.6148  0.0130 -0.7972
 3830TIP3   OH233048   0.728   3.599   8.311  0.0020 -0.4499  0.4023
 3830TIP3    H133049   0.822   3.591   8.294 -0.2150 -1.8578 -0.3106
 3830TIP3    H233050   0.717   3.571   8.402  0.2871 -0.0889  0.5506
 3831TIP3   OH233051   4.955   3.931   1.578  0.1606 -0.0849  0.4032
 3831TIP3    H133052   4.869   3.973   1.582  0.8517  1.4444  0.1105
 3831TIP3    H233053   4.939   3.848   1.533 -1.2124  0.0023  0.6814
 3832TIP3   OH233054   1.555   2.776   8.344  0.2973  0.2812  0.0255
 3832TIP3    H133055   1.484   2.712   8.340 -1.0377  1.7704 -1.4651
 3832TIP3    H233056   1.531   2.835   8.416  0.4059  0.3744 -0.0133
 3833TIP3   OH233057   3.130   2.266   0.201  0.1004  0.0646 -0.1041
 3833TIP3    H133058   3.122   2.171   0.191 -1.1610  0.0426  0.8515
 3833TIP3    H233059   3.223   2.284   0.186  0.1927 -1.1812 -1.2756
 3834TIP3   OH233060   5.183   1.262   1.191 -0.1869 -0.1917 -0.1598
 3834TIP3    H133061   5.095   1.299   1.188  0.0884  0.6553  1.1272
 3834TIP3    H233062   5.239   1.336   1.212  0.6824 -0.9357  0.2152
 3835TIP3   OH233063   5.678   3.930   8.652 -0.3123 -0.1270  0.1808
 3835TIP3    H133064   5.641   4.001   8.599  1.8375  0.1345 -1.1116
 3835TIP3    H233065   5.630   3.852   8.623  1.3296 -0.1558 -2.9805
 3836TIP3   OH233066   5.203   5.311   0.947 -0.3989  0.1205  0.6094
 3836TIP3    H133067   5.223   5.250   0.876 -0.5184 -0.0910  0.7551
 3836TIP3    H233068   5.132   5.366   0.913  0.0370  0.4968  0.3014
 3837TIP3   OH233069   5.515   0.814   8.132 -0.6216  0.4195  0.2480
 3837TIP3    H133070   5.553   0.792   8.048  0.6079  1.8556  0.3912
 3837TIP3    H233071   5.442   0.751   8.143  1.0209 -1.7424 -0.5012
 3838TIP3   OH233072   5.686   4.724   0.588 -0.3679 -0.0756 -0.2515
 3838TIP3    H133073   5.689   4.644   0.535  0.8865  0.2871 -0.7665
 3838TIP3    H233074   5.778   4.746   0.603 -0.7041  0.9108  0.4492
 3839TIP3   OH233075   1.012   0.782   2.227  0.3326  0.2577 -0.3228
 3839TIP3    H133076   0.923   0.811   2.250  1.3199  2.9916  0.4467
 3839TIP3    H233077   1.025   0.702   2.277 -0.5827  1.5784  2.1660
 3840TIP3   OH233078   3.162   0.265   0.663 -0.2537 -0.2374 -0.2447
 3840TIP3    H133079   3.154   0.231   0.752 -0.8278 -0.2920 -0.3118
 3840TIP3    H233080   3.212   0.199   0.616  3.0731  1.3057  0.8395
 3841TIP3   OH233081   3.424   1.134   7.314  0.3438  0.0202  0.1958
 3841TIP3    H133082   3.506   1.171   7.282  1.1829 -0.3504  1.8052
 3841TIP3    H233083   3.383   1.205   7.362 -0.4667  0.3033 -0.8790
 3842TIP3   OH233084   0.789   0.779   2.696  0.3697  0.3543 -0.1383
 3842TIP3    H133085   0.851   0.726   2.746  0.4258  2.0326  1.6993
 3842TIP3    H233086   0.835   0.800   2.615  1.0130 -0.8800 -0.1208
 3843TIP3   OH233087   2.265   2.690   7.516  0.2648 -0.1369  0.1980
 3843TIP3    H133088   2.202   2.725   7.452  0.2014  0.9058  0.8113
 3843TIP3    H233089   2.346   2.681   7.466 -0.4581 -1.9519 -0.7282
 3844TIP3   OH233090   5.456   3.514   1.185  0.0672 -0.3221  0.5221
 3844TIP3    H133091   5.392   3.517   1.257 -0.1064  1.2002  0.3326
 3844TIP3    H233092   5.404   3.492   1.108 -0.0425 -0.1381  0.5447
 3845TIP3   OH233093   4.524   1.012   0.094 -0.0080 -0.1352 -0.6796
 3845TIP3    H133094   4.608   1.052   0.073  1.1901 -0.8153  2.3920
 3845TIP3    H233095   4.498   1.051   0.178 -1.7728 -1.4145 -0.5624
 3846TIP3   OH233096   1.912   5.849   8.241  0.0146 -0.6194 -0.1995
 3846TIP3    H133097   1.868   5.794   8.177  0.5060 -0.5616 -0.5973
 3846TIP3    H233098   1.884   5.938   8.219 -1.1244 -0.7211  0.7151
 3847TIP3   OH233099   0.713   3.722   8.075 -0.2121  0.5110  0.5536
 3847TIP3    H133100   0.683   3.684   8.158 -0.1207 -0.6313  0.0707
 3847TIP3    H233101   0.740   3.811   8.099  0.3613  0.0140  1.8721
 3848TIP3   OH233102   5.297   4.653   7.463  0.5820 -0.2435 -0.3027
 3848TIP3    H133103   5.299   4.559   7.481  0.6737 -0.1341  0.2696
 3848TIP3    H233104   5.341   4.693   7.538 -0.6898  0.3527  0.1535
 3849TIP3   OH233105   2.011   5.616   2.313 -0.2364  0.1830 -0.1670
 3849TIP3    H133106   2.055   5.563   2.247 -1.0974 -0.8101  0.0304
 3849TIP3    H233107   2.034   5.576   2.396  0.0221  0.8170  0.0727
 3850TIP3   OH233108   2.265   3.486   8.868  0.2107  0.0185 -0.0517
 3850TIP3    H133109   2.320   3.423   8.914  0.4357  1.0424  1.1226
 3850TIP3    H233110   2.179   3.478   8.908 -0.1502 -0.5509 -0.9016
 3851TIP3   OH233111   4.540   5.017   2.314  0.4322  0.7329  0.1875
 3851TIP3    H133112   4.628   4.983   2.331 -0.0397  0.3160  1.9199
 3851TIP3    H233113   4.501   5.029   2.400 -0.9677  1.6228 -0.5238
 3852TIP3   OH233114   1.302   0.533   1.772  0.6222  0.5679 -0.2773
 3852TIP3    H133115   1.308   0.461   1.834 -0.4932  0.8752  0.2057
 3852TIP3    H233116   1.356   0.506   1.698 -0.0317 -0.9008 -0.2411
 3853TIP3   OH233117   1.652   1.789   1.844 -0.6192 -0.1546 -0.2557
 3853TIP3    H133118   1.728   1.799   1.901 -0.1193 -0.2458 -0.8948
 3853TIP3    H233119   1.577   1.813   1.899 -0.1197  0.0548  0.3405
 3854TIP3   OH233120   3.874   3.681   7.156  0.2654 -0.2898 -0.0806
 3854TIP3    H133121   3.933   3.755   7.144 -0.0286  0.2594  1.6641
 3854TIP3    H233122   3.931   3.604   7.152  0.8014  0.1155 -0.3068
 3855TIP3   OH233123   6.464   2.581   7.022 -0.0543  0.6487  0.2394
 3855TIP3    H133124   6.451   2.593   6.928 -1.6142  2.0701  0.6021
 3855TIP3    H233125   6.558   2.598   7.035  0.0836  0.9046 -0.9732
 3856TIP3   OH233126   2.330   3.211   1.204  0.1784  0.0925 -0.6407
 3856TIP3    H133127   2.394   3.184   1.270 -0.2498  2.2885  0.7528
 3856TIP3    H233128   2.380   3.215   1.122  0.6770 -2.8872 -0.5986
 3857TIP3   OH233129   1.962   3.963   8.480  0.3921 -0.5301 -0.0862
 3857TIP3    H133130   1.961   3.872   8.450 -1.0984 -2.0663  3.9688
 3857TIP3    H233131   2.055   3.984   8.490  0.8066 -1.0311 -2.3576
 3858TIP3   OH233132   4.670   3.391   0.241  0.0442 -0.0948  0.1774
 3858TIP3    H133133   4.692   3.346   0.322 -0.1361 -0.8853 -0.2036
 3858TIP3    H233134   4.660   3.483   0.266 -2.0004 -0.6037  1.4428
 3859TIP3   OH233135   2.368   5.388   1.248  0.5365  0.1227 -0.1441
 3859TIP3    H133136   2.442   5.344   1.205  0.5277 -0.1175  0.0853
 3859TIP3    H233137   2.350   5.464   1.192 -0.0904 -0.7076 -1.1088
 3860TIP3   OH233138   1.867   4.742   0.233 -0.4441 -0.1672  0.6880
 3860TIP3    H133139   1.786   4.776   0.195  0.6954  1.2739 -0.6017
 3860TIP3    H233140   1.877   4.654   0.197  0.4345  1.0309 -2.2853
 3861TIP3   OH233141   0.396   0.496   8.828  0.0717  0.2450  0.2449
 3861TIP3    H133142   0.397   0.556   8.902 -3.2044  0.4860  0.2053
 3861TIP3    H233143   0.364   0.413   8.864 -1.1921  0.2528 -0.7872
 3862TIP3   OH233144   4.983   0.302   0.410 -0.1672  0.1372 -0.5068
 3862TIP3    H133145   4.933   0.382   0.396 -1.0703 -0.0279  1.4398
 3862TIP3    H233146   4.916   0.235   0.426  0.5988 -0.1582  1.8262
 3863TIP3   OH233147   0.357   5.524   1.483 -0.1413 -0.1038  0.2630
 3863TIP3    H133148   0.406   5.445   1.505  0.5792 -0.0110 -0.9101
 3863TIP3    H233149   0.393   5.591   1.541 -1.2526 -0.7528  1.7682
 3864TIP3   OH233150   2.450   3.626   1.287  0.2247 -0.1722 -0.7309
 3864TIP3    H133151   2.370   3.580   1.260 -0.0205 -1.2406  1.6050
 3864TIP3    H233152   2.480   3.578   1.364  2.0189  1.4516 -0.3544
 3865TIP3   OH233153   2.890   6.255   8.609  0.2741 -0.3023  0.1213
 3865TIP3    H133154   2.915   6.186   8.671 -0.1270 -0.9160 -0.3960
 3865TIP3    H233155   2.944   6.238   8.531  1.9855  1.4168  0.8313
 3866TIP3   OH233156   6.174   0.861   0.370 -0.1326  0.1183  0.8386
 3866TIP3    H133157   6.114   0.794   0.404  1.1374 -1.4849  0.0893
 3866TIP3    H233158   6.262   0.826   0.390  0.5805  2.3788  1.9020
 3867TIP3   OH233159   6.253   2.834   0.546  0.0456 -0.0377 -0.1638
 3867TIP3    H133160   6.240   2.817   0.453 -0.5708 -1.0000  0.0776
 3867TIP3    H233161   6.348   2.827   0.559 -0.0980 -3.7892 -0.0732
 3868TIP3   OH233162   4.630   3.632   1.914  0.6111  0.6581  0.6285
 3868TIP3    H133163   4.694   3.607   1.980  0.5195  1.0422  0.8690
 3868TIP3    H233164   4.602   3.550   1.874  1.7285  0.5350  0.0819
 3869TIP3   OH233165   2.833   5.014   1.468 -0.2610  0.7708  0.1258
 3869TIP3    H133166   2.763   4.972   1.517 -0.0359 -0.8447 -0.8284
 3869TIP3    H233167   2.879   4.941   1.426  0.8954  1.9208 -0.6907
 3870TIP3   OH233168   1.865   5.374   1.619  0.1180  0.1599 -0.4723
 3870TIP3    H133169   1.806   5.299   1.626 -0.5204  0.6592 -0.3990
 3870TIP3    H233170   1.807   5.449   1.608  0.7623  0.6101 -0.8601
 3871TIP3   OH233171   4.563   0.648   1.535 -0.1361 -0.5930 -0.5393
 3871TIP3    H133172   4.471   0.673   1.543  0.3398  0.7566  1.2849
 3871TIP3    H233173   4.586   0.670   1.444 -1.1039  0.8855 -0.4521
 3872TIP3   OH233174   6.024   4.237   6.559 -0.4736 -0.1352  0.3079
 3872TIP3    H133175   6.021   4.195   6.473 -2.2942 -0.7134  0.6053
 3872TIP3    H233176   6.080   4.180   6.611  0.7883  0.3129 -0.5133
 3873TIP3   OH233177   2.608   0.204   8.495  0.1663  0.1889 -0.0778
 3873TIP3    H133178   2.643   0.124   8.456  1.6903  0.7920  0.0103
 3873TIP3    H233179   2.553   0.242   8.425  0.9889  0.0529 -0.8158
 3874TIP3   OH233180   4.752   1.172   7.675  0.9446  0.0977 -0.3439
 3874TIP3    H133181   4.811   1.245   7.694  0.8247 -0.0031  0.4432
 3874TIP3    H233182   4.665   1.205   7.696  0.9187 -0.3605  0.3077
 3875TIP3   OH233183   6.461   2.760   2.206 -0.2382 -0.2474 -0.5068
 3875TIP3    H133184   6.386   2.703   2.223 -0.0746 -0.2028  0.3787
 3875TIP3    H233185   6.425   2.831   2.152 -0.7759 -0.3751 -0.3211
 3876TIP3   OH233186   2.979   1.762   2.180  0.2008 -0.2711  0.0418
 3876TIP3    H133187   3.029   1.802   2.250  2.7066  0.8583 -2.2082
 3876TIP3    H233188   2.984   1.825   2.108  2.6826 -3.6251 -3.0608
 3877TIP3   OH233189   6.328   2.259   0.155  0.2768  0.3170 -0.2716
 3877TIP3    H133190   6.258   2.298   0.102 -1.1503 -0.1570  1.1786
 3877TIP3    H233191   6.335   2.317   0.231  0.1639 -0.6200  0.4749
 3878TIP3   OH233192   3.430   6.518   0.861 -0.3872  0.1122  0.4878
 3878TIP3    H133193   3.410   6.486   0.773  0.3943 -0.9108  0.6524
 3878TIP3    H233194   3.363   6.478   0.917 -0.0163 -0.4467  0.5475
 3879TIP3   OH233195   4.999   2.838   0.174  0.0037 -0.1009  0.3311
 3879TIP3    H133196   5.023   2.911   0.116  0.5248  0.7076  1.5028
 3879TIP3    H233197   5.046   2.763   0.138 -0.0248  0.2821 -0.5383
 3880TIP3   OH233198   5.983   6.186   1.933  0.2787  0.7674 -0.2988
 3880TIP3    H133199   5.996   6.242   1.857 -0.6986  0.9206 -0.3703
 3880TIP3    H233200   5.917   6.231   1.986 -0.6945 -0.3764 -0.4642
 3881TIP3   OH233201   0.896   4.511   2.019  0.0110 -0.1543 -0.3871
 3881TIP3    H133202   0.867   4.599   1.993 -0.4327  0.0056  0.6168
 3881TIP3    H233203   0.979   4.525   2.063  0.3992 -0.3477 -1.0435
 3882TIP3   OH233204   1.604   3.239   7.634 -0.5845  0.1132  0.0571
 3882TIP3    H133205   1.614   3.154   7.592 -0.9462  0.6764 -1.2247
 3882TIP3    H233206   1.587   3.300   7.562 -1.4942  1.0818  1.0401
 3883TIP3   OH233207   0.209   3.549   7.067  0.1350 -0.1751  0.0949
 3883TIP3    H133208   0.200   3.547   6.972  0.7272 -2.8035  0.0115
 3883TIP3    H233209   0.150   3.481   7.098 -0.9670  1.4489  1.7629
 3884TIP3   OH233210   6.025   0.099   1.346  0.0152 -0.5144 -0.7854
 3884TIP3    H133211   5.954   0.138   1.397  0.6393  0.3961 -0.5896
 3884TIP3    H233212   5.983   0.029   1.297 -1.1398  0.3366 -1.0735
 3885TIP3   OH233213   5.505   4.652   8.727  0.1487 -0.0857 -0.0674
 3885TIP3    H133214   5.557   4.664   8.807 -0.5373 -1.7303  0.6623
 3885TIP3    H233215   5.570   4.642   8.658  0.7932 -0.5495  0.5907
 3886TIP3   OH233216   0.507   6.725   0.351  0.1104 -0.0318 -0.3869
 3886TIP3    H133217   0.531   6.784   0.422  1.3044 -1.8773  0.8506
 3886TIP3    H233218   0.414   6.708   0.365  0.2743 -0.1868  0.6152
 3887TIP3   OH233219   3.657   3.392   7.120  0.0000 -0.1416 -1.0466
 3887TIP3    H133220   3.662   3.402   7.025 -0.2519  1.3836 -0.9280
 3887TIP3    H233221   3.596   3.461   7.148  2.4963  1.5749  0.5105
 3888TIP3   OH233222   4.182   3.743   7.959  0.2961  0.1051 -0.0691
 3888TIP3    H133223   4.274   3.769   7.957  0.8172 -1.5343  0.6103
 3888TIP3    H233224   4.184   3.650   7.983 -1.5668  0.2662  0.9141
 3889TIP3   OH233225   2.211   5.750   8.166  0.7285 -0.4115 -0.2173
 3889TIP3    H133226   2.299   5.744   8.129  0.7882  0.1939 -0.1871
 3889TIP3    H233227   2.163   5.676   8.128  1.6626 -1.6569  0.9190
 3890TIP3   OH233228   0.366   6.029   2.559 -0.1744 -0.1315 -0.0117
 3890TIP3    H133229   0.285   6.012   2.510  0.6021 -0.6530 -1.1362
 3890TIP3    H233230   0.385   6.121   2.544  0.5069 -0.4740 -1.4236
 3891TIP3   OH233231   5.484   4.221   8.717 -0.2710 -0.3635 -0.6121
 3891TIP3    H133232   5.460   4.311   8.695 -1.5244 -0.3624  0.6318
 3891TIP3    H233233   5.570   4.229   8.758  0.1166  0.1157 -1.4845
 3892TIP3   OH233234   0.514   6.535   8.730  0.0578 -0.4893  0.4817
 3892TIP3    H133235   0.560   6.613   8.762 -0.7603 -0.1428  0.8413
 3892TIP3    H233236   0.545   6.524   8.640  1.1337 -0.4978  0.8481
 3893TIP3   OH233237   6.138   3.047   1.859 -0.1979  0.3636 -0.3124
 3893TIP3    H133238   6.225   3.075   1.831 -0.7694  1.4639 -1.0454
 3893TIP3    H233239   6.155   2.982   1.927  1.2065 -0.9687 -1.8644
 3894TIP3   OH233240   2.194   2.837   1.191  0.0861  0.1697  0.0906
 3894TIP3    H133241   2.147   2.920   1.202  1.9889  1.2176  0.8618
 3894TIP3    H233242   2.229   2.818   1.278 -1.1557 -2.0376  0.1755
 3895TIP3   OH233243   6.079   2.117   8.518  0.3569 -0.5794  0.4261
 3895TIP3    H133244   6.063   2.023   8.515  0.8811 -0.7011 -3.0594
 3895TIP3    H233245   6.171   2.126   8.545  0.2934 -1.0450  0.8004
 3896TIP3   OH233246   2.164   6.193   1.057  0.5110 -0.3084 -0.2715
 3896TIP3    H133247   2.239   6.138   1.078  1.1565  0.1490 -1.2815
 3896TIP3    H233248   2.151   6.247   1.135 -1.0569 -2.8086  1.3360
 3897TIP3   OH233249   3.134   4.858   0.003 -0.0936  0.1438 -0.3176
 3897TIP3    H133250   3.128   4.764  -0.017  0.5119 -0.5403  2.3119
 3897TIP3    H233251   3.043   4.887   0.010 -0.2785 -0.4025 -0.4250
 3898TIP3   OH233252   1.014   1.946   2.256  0.3168 -0.2198  0.4201
 3898TIP3    H133253   0.966   1.965   2.337 -0.0345 -0.9204  0.3900
 3898TIP3    H233254   0.953   1.967   2.186 -0.1551 -1.5780  0.3918
 3899TIP3   OH233255   4.505   2.422   8.382 -0.0700 -0.5395  0.5088
 3899TIP3    H133256   4.492   2.352   8.445  0.2336 -0.3519  0.7818
 3899TIP3    H233257   4.431   2.415   8.322 -0.1663 -0.9409  0.6773
 3900TIP3   OH233258   3.522   5.149   1.089  0.0263  0.0121  0.1873
 3900TIP3    H133259   3.551   5.238   1.068  1.0579  0.2191  2.2224
 3900TIP3    H233260   3.580   5.122   1.161  0.1874 -2.5688 -0.8203
 3901TIP3   OH233261   5.597   2.385   1.676  0.4059  0.2342 -0.3071
 3901TIP3    H133262   5.645   2.304   1.659  0.6810  0.0198  1.4116
 3901TIP3    H233263   5.665   2.452   1.682  0.1799  0.6283 -1.7188
 3902TIP3   OH233264   3.460   2.919   2.255  0.4361  0.2199 -1.2678
 3902TIP3    H133265   3.428   2.964   2.333  0.7527 -1.3286 -0.1871
 3902TIP3    H233266   3.539   2.967   2.230  1.2955 -0.2156  0.4111
 3903TIP3   OH233267   3.949   1.531   7.988  0.0087  0.0887 -0.0955
 3903TIP3    H133268   3.948   1.457   7.927  0.8746  2.2347 -2.9231
 3903TIP3    H233269   4.036   1.526   8.029  1.7221  1.5611 -3.1763
 3904TIP3   OH233270   2.561   1.912   2.099  0.6322 -0.6602 -0.6002
 3904TIP3    H133271   2.540   1.874   2.184  0.8288  0.3325 -0.0873
 3904TIP3    H233272   2.511   1.860   2.036  1.5462 -2.2783 -0.0384
 3905TIP3   OH233273   3.802   4.684   8.498 -0.0726 -0.2665 -0.4570
 3905TIP3    H133274   3.880   4.648   8.540  1.9041  1.2577 -2.5989
 3905TIP3    H233275   3.781   4.762   8.550  1.4716  0.7880 -1.3337
 3906TIP3   OH233276   3.601   4.573   0.968  0.5440 -0.0614 -0.4718
 3906TIP3    H133277   3.599   4.548   0.875 -1.1230 -0.5696 -0.3395
 3906TIP3    H233278   3.566   4.662   0.970 -1.7752 -0.8894 -0.1735
 3907TIP3   OH233279   4.352   6.219   3.088 -0.0047 -0.1382  0.0146
 3907TIP3    H133280   4.436   6.265   3.087  0.4232 -0.8923  0.7701
 3907TIP3    H233281   4.371   6.132   3.053 -0.3233 -0.5477  0.8374
 3908TIP3   OH233282   0.226   4.934   1.693  0.1462  0.1170 -0.6817
 3908TIP3    H133283   0.290   4.958   1.761  0.8717 -0.6020 -1.0916
 3908TIP3    H233284   0.164   4.877   1.738  0.3380  0.0424 -0.5097
 3909TIP3   OH233285   4.708   3.956   0.263 -0.4491  0.1883 -0.1308
 3909TIP3    H133286   4.719   3.972   0.357 -1.1399  1.3043 -0.2229
 3909TIP3    H233287   4.727   4.040   0.222  0.3084 -0.4063 -1.0423
 3910TIP3   OH233288   1.564   5.399   7.774 -0.0933 -0.1224 -0.5604
 3910TIP3    H133289   1.606   5.363   7.696  0.3700 -0.5967 -0.0917
 3910TIP3    H233290   1.631   5.397   7.841 -1.1119 -1.7925  0.4750
 3911TIP3   OH233291   5.115   5.720   8.340 -0.0348  0.2542 -0.3283
 3911TIP3    H133292   5.057   5.795   8.335 -0.1199  0.1752 -0.5631
 3911TIP3    H233293   5.180   5.735   8.271 -0.1970 -0.0064 -0.5401
 3912TIP3   OH233294   4.546   3.326   1.872  0.2022  0.6250 -0.3984
 3912TIP3    H133295   4.453   3.330   1.895  0.0988  1.2881 -0.8805
 3912TIP3    H233296   4.548   3.285   1.786  0.5818 -1.7963  0.6936
 3913TIP3   OH233297   5.318   5.540   8.441  0.6773  0.3332  0.2933
 3913TIP3    H133298   5.235   5.571   8.404  1.2252  3.3948  1.3684
 3913TIP3    H233299   5.294   5.510   8.529  0.3485 -1.3593 -0.3279
 3914TIP3   OH233300   0.348   0.441   7.764  0.1461  0.2408 -0.0721
 3914TIP3    H133301   0.398   0.389   7.701 -1.2927 -2.4624  0.8543
 3914TIP3    H233302   0.268   0.464   7.717  0.9836  2.2259 -0.6505
 3915TIP3   OH233303   0.980   2.886   7.893  0.1914 -0.2787  0.5129
 3915TIP3    H133304   0.997   2.979   7.913 -0.3177 -0.5078  2.1916
 3915TIP3    H233305   0.891   2.871   7.924 -0.3064 -0.9741 -1.1596
 3916TIP3   OH233306   6.195   4.625   0.814  0.2824  0.1681 -0.1668
 3916TIP3    H133307   6.114   4.668   0.842  0.6545 -0.3726  1.9176
 3916TIP3    H233308   6.264   4.689   0.835  0.6961 -0.7803  1.5348
 3917TIP3   OH233309   0.340   3.140   7.784  0.2278 -0.5121  0.6967
 3917TIP3    H133310   0.368   3.227   7.811  0.6761 -0.3128 -0.4012
 3917TIP3    H233311   0.311   3.099   7.866  1.1284  0.2347  1.4217
 3918TIP3   OH233312   6.648   2.729   7.305 -0.0685  0.1684  0.0520
 3918TIP3    H133313   6.680   2.656   7.357 -0.3374  0.0415  0.0437
 3918TIP3    H233314   6.664   2.702   7.214 -1.2648 -0.4198 -0.0063
 3919TIP3   OH233315   5.371   2.222   8.667 -0.1991 -0.0273  0.1881
 3919TIP3    H133316   5.298   2.237   8.727 -0.5802  1.5740 -0.6357
 3919TIP3    H233317   5.354   2.280   8.593  1.2042 -0.6349 -0.6463
 3920TIP3   OH233318   4.980   5.759   1.471 -0.3110 -0.1502  0.2948
 3920TIP3    H133319   5.025   5.729   1.392 -0.4703  2.1073 -0.7317
 3920TIP3    H233320   4.904   5.701   1.479  0.7075 -1.5799 -0.1204
 3921TIP3   OH233321   1.235   5.419   7.439  0.7954 -0.0631 -0.5846
 3921TIP3    H133322   1.225   5.514   7.433  1.7678  0.2017  1.0418
 3921TIP3    H233323   1.294   5.396   7.367  1.5655  0.7798 -0.2462
 3922TIP3   OH233324   0.998   0.181   8.007  0.6637 -0.3618 -0.7007
 3922TIP3    H133325   0.916   0.198   8.054  0.8454  1.3653 -0.9203
 3922TIP3    H233326   0.977   0.200   7.916  1.1772 -0.3582 -0.8203
 3923TIP3   OH233327   2.068   2.184   8.556 -0.3795  0.1398 -0.1676
 3923TIP3    H133328   2.050   2.273   8.527  1.6976  1.5558  2.4809
 3923TIP3    H233329   2.163   2.180   8.564 -0.5821 -1.1070  3.0571
 3924TIP3   OH233330   1.122   5.117   8.137  0.6167 -0.0459 -0.2547
 3924TIP3    H133331   1.160   5.138   8.051  0.6254  0.9760 -0.0121
 3924TIP3    H233332   1.198   5.096   8.192  0.6611 -0.1005 -0.3374
 3925TIP3   OH233333   2.055   0.204   1.132  0.0582  0.6501  0.1026
 3925TIP3    H133334   2.039   0.255   1.052 -1.6789 -2.0083 -1.4114
 3925TIP3    H233335   1.978   0.219   1.186 -0.2762 -0.0380 -0.1762
 3926TIP3   OH233336   1.322   4.282   0.484  0.0328  0.2127  0.2275
 3926TIP3    H133337   1.364   4.305   0.401  0.9030 -0.5910  0.4317
 3926TIP3    H233338   1.229   4.273   0.461  0.1613  0.6297 -0.5206
 3927TIP3   OH233339   5.108   2.962   1.801 -0.3163  0.0441 -0.0772
 3927TIP3    H133340   5.034   2.989   1.857  0.2122  0.0407  0.6393
 3927TIP3    H233341   5.165   3.038   1.799 -0.9887  0.5426 -1.7798
 3928TIP3   OH233342   2.646   4.775   2.104  0.1635  0.1213 -0.8731
 3928TIP3    H133343   2.564   4.734   2.133  1.4227 -0.5226  2.2131
 3928TIP3    H233344   2.661   4.738   2.017 -0.9506 -2.7311 -0.0064
 3929TIP3   OH233345   3.465   0.157   2.643 -0.5157 -0.0212  0.2383
 3929TIP3    H133346   3.442   0.135   2.733 -0.9266  2.2563  0.7668
 3929TIP3    H233347   3.545   0.209   2.651 -0.1424 -0.4192 -0.7822
 3930TIP3   OH233348   5.277   4.006   7.899  0.0496  0.7790 -0.3065
 3930TIP3    H133349   5.357   3.998   7.847 -0.0737  0.4224 -0.4437
 3930TIP3    H233350   5.221   4.066   7.848 -0.1246  0.3233 -0.6565
 3931TIP3   OH233351   2.367   2.484   7.996 -0.8169 -0.3569  0.6050
 3931TIP3    H133352   2.290   2.530   8.029 -2.2382 -2.2374  0.0284
 3931TIP3    H233353   2.360   2.491   7.901  0.5430  0.6835  0.5485
 3932TIP3   OH233354   4.207   2.374   8.390 -0.7066  0.2454 -0.1667
 3932TIP3    H133355   4.154   2.390   8.312 -2.6155  2.2905  1.4420
 3932TIP3    H233356   4.223   2.461   8.427  0.3115 -0.6469  1.6288
 3933TIP3   OH233357   3.366   0.184   1.622  0.1761  0.3379  0.2503
 3933TIP3    H133358   3.402   0.166   1.535 -0.3270 -0.1990  0.1452
 3933TIP3    H233359   3.441   0.182   1.681  0.4128 -0.0835 -0.0625
 3934TIP3   OH233360   1.259   2.210   0.802 -0.5545  0.6900  0.8168
 3934TIP3    H133361   1.349   2.191   0.776 -1.8496 -1.2297 -2.8457
 3934TIP3    H233362   1.245   2.301   0.774 -0.2211  0.4615 -0.1292
 3935TIP3   OH233363   4.507   5.418   8.559  0.7049 -0.1379 -0.1597
 3935TIP3    H133364   4.439   5.478   8.529 -1.2176 -1.9502  0.3926
 3935TIP3    H233365   4.582   5.438   8.503 -0.4695  1.4729 -1.2549
 3936TIP3   OH233366   4.783   4.339   8.291  0.0350  0.3653  1.0383
 3936TIP3    H133367   4.836   4.277   8.341  0.8510  0.2436  0.0599
 3936TIP3    H233368   4.693   4.316   8.312  0.3456  0.0351  2.0884
 3937TIP3   OH233369   0.295   6.317   2.460  0.1342 -0.1188 -0.2429
 3937TIP3    H133370   0.304   6.379   2.532 -0.1990 -0.0476 -0.2585
 3937TIP3    H233371   0.328   6.364   2.384  0.8530 -0.3351 -0.0655
 3938TIP3   OH233372   5.051   1.308   0.194 -0.1901 -0.2599 -0.2669
 3938TIP3    H133373   4.991   1.368   0.238  1.2602  1.4284 -0.5055
 3938TIP3    H233374   5.002   1.278   0.118 -1.1148  0.2441  0.1059
 3939TIP3   OH233375   0.294   5.893   2.166 -0.3850 -0.4860 -0.1210
 3939TIP3    H133376   0.320   5.802   2.172  1.0907 -0.0117  1.5580
 3939TIP3    H233377   0.335   5.925   2.085  0.2103 -0.9830 -0.0171
 3940TIP3   OH233378   2.147   5.919   1.534  0.6337 -0.1116 -0.2585
 3940TIP3    H133379   2.202   5.985   1.492  1.7137 -0.3680  0.7140
 3940TIP3    H233380   2.137   5.850   1.468  1.0498  0.1706 -0.6214
 3941TIP3   OH233381   5.176   3.699   8.254 -0.0655 -0.2678 -0.7051
 3941TIP3    H133382   5.260   3.677   8.212 -0.0320 -0.5770 -0.4848
 3941TIP3    H233383   5.143   3.615   8.287  0.0960  0.0181  0.2232
 3942TIP3   OH233384   1.215   3.823   1.624  0.4070 -0.5374 -0.3385
 3942TIP3    H133385   1.134   3.777   1.603  0.3779 -0.5667 -0.1635
 3942TIP3    H233386   1.283   3.779   1.572  0.0880  0.3778 -1.5714
 3943TIP3   OH233387   2.536   3.577   7.652 -0.2636 -0.1793 -0.1151
 3943TIP3    H133388   2.578   3.548   7.571 -1.3371  0.6017 -0.9842
 3943TIP3    H233389   2.579   3.660   7.673  0.5762 -0.7691  0.5954
 3944TIP3   OH233390   4.818   5.020   8.077 -0.3112 -0.6926 -0.1935
 3944TIP3    H133391   4.870   4.987   8.150  1.5837 -1.4877 -1.7990
 3944TIP3    H233392   4.866   4.992   7.999 -2.6627 -0.5959 -1.7834
 3945TIP3   OH233393   6.101   2.653   8.599  0.2484 -0.4046  0.4300
 3945TIP3    H133394   6.192   2.672   8.577  0.5432 -0.3881  1.5873
 3945TIP3    H233395   6.095   2.558   8.596 -0.0777 -0.3549 -1.0327
 3946TIP3   OH233396   1.720   5.574   8.430  0.7450  0.3242 -0.0926
 3946TIP3    H133397   1.693   5.657   8.392  0.2881  1.3724  2.3382
 3946TIP3    H233398   1.785   5.598   8.496  1.0853 -1.3139  0.2078
 3947TIP3   OH233399   3.957   2.555   6.817  0.2835 -0.1274  0.5338
 3947TIP3    H133400   3.869   2.544   6.855 -0.2083 -1.9461 -1.0216
 3947TIP3    H233401   4.008   2.483   6.854  0.3700 -0.6715 -0.6240
 3948TIP3   OH233402   1.635   5.533   2.519  0.2823  0.3268  0.4549
 3948TIP3    H133403   1.564   5.560   2.461  1.5946 -1.7486 -2.3697
 3948TIP3    H233404   1.595   5.467   2.576 -0.1997 -0.5893 -0.8966
 3949TIP3   OH233405   4.330   5.201   0.278 -0.0023  0.3888 -0.1243
 3949TIP3    H133406   4.338   5.201   0.183 -0.4679  0.9362 -0.1685
 3949TIP3    H233407   4.390   5.269   0.307 -0.7809  1.0948 -0.1220
 3950TIP3   OH233408   3.197   1.647   0.092 -0.2361  0.5324 -0.1125
 3950TIP3    H133409   3.179   1.659   0.185 -1.3805 -0.5650 -0.1640
 3950TIP3    H233410   3.269   1.708   0.073  0.6565  0.1028  1.6839
 3951TIP3   OH233411   2.970   2.952   1.452 -0.3153 -0.5174  0.2357
 3951TIP3    H133412   3.040   2.900   1.491  1.1967  1.1987 -0.0203
 3951TIP3    H233413   2.968   3.033   1.504  0.8950  1.3021 -2.3281
 3952TIP3   OH233414   3.318   5.342   8.322 -0.2808  0.0051 -0.0539
 3952TIP3    H133415   3.326   5.269   8.384  0.1308  0.2331  0.1684
 3952TIP3    H233416   3.384   5.406   8.352 -0.1999  0.1918 -0.6241
 3953TIP3   OH233417   3.367   4.789   0.862 -0.2067  0.0358  0.6972
 3953TIP3    H133418   3.321   4.714   0.823  0.5015  0.6777 -1.5074
 3953TIP3    H233419   3.323   4.866   0.825  1.8383  0.6669 -0.5832
 3954TIP3   OH233420   0.751   2.402   1.599  0.0641  0.0315 -0.3624
 3954TIP3    H133421   0.668   2.434   1.636  1.6754  2.7883  1.2822
 3954TIP3    H233422   0.766   2.458   1.523  1.0392  0.5594  0.1946
 3955TIP3   OH233423   4.930   5.465   0.354 -0.1427  0.5591 -0.2421
 3955TIP3    H133424   4.999   5.506   0.301 -0.0488  0.7850  0.0536
 3955TIP3    H233425   4.854   5.461   0.295 -0.2818  1.5440 -0.1435
 3956TIP3   OH233426   6.184   3.463   8.023  0.4747  0.6764 -0.1277
 3956TIP3    H133427   6.128   3.468   7.945 -0.6272  0.1582  0.5976
 3956TIP3    H233428   6.195   3.369   8.037 -2.0190  0.6071  2.1386
 3957TIP3   OH233429   2.293   1.853   0.548 -0.0808 -0.7923 -0.2731
 3957TIP3    H133430   2.241   1.927   0.581  1.3510 -0.2584  0.8919
 3957TIP3    H233431   2.230   1.781   0.541 -1.3105  0.2678 -0.5186
 3958TIP3   OH233432   6.635   1.387   2.262  0.0833 -0.6550  0.6739
 3958TIP3    H133433   6.707   1.357   2.317  1.1826  0.8293  0.0954
 3958TIP3    H233434   6.649   1.343   2.178  1.1981  0.7278  0.0987
 3959TIP3   OH233435   5.435   1.550   7.451  0.1262  0.9448  0.5435
 3959TIP3    H133436   5.448   1.610   7.377 -0.0289  0.1421 -0.1483
 3959TIP3    H233437   5.523   1.527   7.480  0.2234 -0.0031 -0.4482
 3960TIP3   OH233438   3.953   3.680   7.598  0.0073  0.5163  0.0642
 3960TIP3    H133439   3.859   3.661   7.598 -0.2899  1.3520 -2.8333
 3960TIP3    H233440   3.987   3.632   7.522  0.9899  3.5374 -1.6063
 3961TIP3   OH233441   4.132   1.993   1.107  0.1347 -0.5286 -0.2582
 3961TIP3    H133442   4.058   1.934   1.092  0.0362 -0.8287  1.2847
 3961TIP3    H233443   4.100   2.079   1.080 -0.3637 -0.8487 -0.7221
 3962TIP3   OH233444   4.491   6.212   2.161 -0.1490 -0.2692  0.2051
 3962TIP3    H133445   4.513   6.170   2.244  0.8467 -1.8055 -0.7895
 3962TIP3    H233446   4.397   6.197   2.151 -0.2732 -0.0772  1.0529
 3963TIP3   OH233447   1.841   6.412   1.858 -0.4377  0.0750  0.6265
 3963TIP3    H133448   1.806   6.326   1.834 -1.0418  0.8121 -1.3499
 3963TIP3    H233449   1.788   6.440   1.932 -0.6873 -0.9617  0.8513
 3964TIP3   OH233450   0.492   2.440   1.167  0.0168 -0.5663 -0.1688
 3964TIP3    H133451   0.546   2.512   1.200 -1.2163  0.5311 -0.4876
 3964TIP3    H233452   0.450   2.404   1.246 -0.4869  0.0127 -0.1677
 3965TIP3   OH233453   4.396   3.371   0.407 -0.0874  0.3819  0.6459
 3965TIP3    H133454   4.404   3.431   0.481  0.3688  1.2716 -0.1078
 3965TIP3    H233455   4.347   3.296   0.441 -2.1801  1.9269  1.1512
 3966TIP3   OH233456   0.486   5.832   0.268 -0.1374  0.1794 -0.2072
 3966TIP3    H133457   0.439   5.791   0.195 -0.8391 -1.3857  1.0639
 3966TIP3    H233458   0.499   5.762   0.331  1.6908  1.1690  0.6125
 3967TIP3   OH233459   5.632   4.413   0.803 -0.8788  0.3046 -0.0006
 3967TIP3    H133460   5.608   4.365   0.724  0.8066 -0.1665 -0.2672
 3967TIP3    H233461   5.660   4.346   0.864  0.5418  0.8382 -0.0260
 3968TIP3   OH233462   0.711   4.984   2.021  0.5377  0.0465  0.0465
 3968TIP3    H133463   0.780   5.047   2.041  0.4739  0.3835 -0.7510
 3968TIP3    H233464   0.758   4.905   1.994  0.6185  0.1821 -0.2158
 3969TIP3   OH233465   3.060   2.747   7.996  0.0189  0.0520  0.0582
 3969TIP3    H133466   3.153   2.758   7.976  0.1615 -1.4419 -0.1903
 3969TIP3    H233467   3.050   2.780   8.085  0.9724 -0.5850  0.4100
 3970TIP3   OH233468   2.793   0.500   8.825 -0.2587 -0.4669  0.2779
 3970TIP3    H133469   2.720   0.442   8.803 -2.2217  2.2434 -0.7782
 3970TIP3    H233470   2.861   0.478   8.761 -1.4754 -0.7260 -0.9836
 3971TIP3   OH233471   3.603   0.045   2.358  0.5229 -0.0314  0.3691
 3971TIP3    H133472   3.682   0.093   2.383  0.9454 -0.7336  0.4101
 3971TIP3    H233473   3.542   0.062   2.429  1.5941 -1.7297  1.7881
 3972TIP3   OH233474   4.725   3.982   2.508 -0.2456 -0.0277 -0.1781
 3972TIP3    H133475   4.643   3.934   2.492 -2.0114  2.6082  0.2564
 3972TIP3    H233476   4.696   4.071   2.530  2.7486  0.8373  0.6870
 3973TIP3   OH233477   3.454   1.331   8.404  0.0058 -0.1387  0.2956
 3973TIP3    H133478   3.481   1.400   8.343  0.6465  0.9091  1.7043
 3973TIP3    H233479   3.529   1.318   8.461 -0.0167 -2.2123 -0.0590
 3974TIP3   OH233480   0.027   3.964   2.425 -0.5253 -0.2592  0.2385
 3974TIP3    H133481   0.047   3.957   2.331 -1.8649  2.5652 -0.3951
 3974TIP3    H233482  -0.020   3.884   2.446  1.6488 -1.9410 -0.9017
 3975TIP3   OH233483   5.051   0.696   1.901 -0.5158 -0.2436 -0.4296
 3975TIP3    H133484   5.002   0.618   1.875 -1.1820  0.2055 -0.5405
 3975TIP3    H233485   5.110   0.713   1.827 -1.6801  0.4321 -1.2222
 3976TIP3   OH233486   0.536   3.104   8.025 -0.4627  0.7762  0.6147
 3976TIP3    H133487   0.452   3.141   8.054 -0.6288  1.2977 -0.4642
 3976TIP3    H233488   0.528   3.099   7.930 -0.0086 -1.0472  0.6474
 3977TIP3   OH233489   0.178   2.205   1.135  0.3112 -0.3830 -0.6482
 3977TIP3    H133490   0.136   2.170   1.056  0.1762 -0.4090 -0.5669
 3977TIP3    H233491   0.212   2.290   1.109 -2.8966  1.3158  0.1382
 3978TIP3   OH233492   1.674   4.138   1.105 -0.0909  0.2537  0.3064
 3978TIP3    H133493   1.755   4.111   1.062 -0.1649 -1.8006  1.3158
 3978TIP3    H233494   1.650   4.220   1.062  0.9257 -0.6036 -2.1101
 3979TIP3   OH233495   2.657   2.394   0.351 -0.2411  0.1427  0.2489
 3979TIP3    H133496   2.752   2.404   0.355 -0.3632  3.2520 -1.3739
 3979TIP3    H233497   2.624   2.472   0.395 -2.0785 -0.8750  0.7558
 3980TIP3   OH233498   4.741   5.606   1.473 -0.6723  0.1867 -0.1417
 3980TIP3    H133499   4.654   5.617   1.513 -1.0595  0.1855 -0.9532
 3980TIP3    H233500   4.722   5.581   1.382  0.1817  0.1736 -0.3217
 3981TIP3   OH233501   5.709   3.082   7.927 -0.1765 -0.1872  0.1258
 3981TIP3    H133502   5.737   3.090   7.835 -0.0664 -1.0252  0.0861
 3981TIP3    H233503   5.633   3.141   7.933  1.2217  1.7295  0.1100
 3982TIP3   OH233504   2.005   0.894   8.847  0.7249 -0.5665 -0.0585
 3982TIP3    H133505   1.910   0.900   8.836  0.4183 -0.5883  2.1673
 3982TIP3    H233506   2.040   0.961   8.789 -0.6588 -0.3155 -0.6542
 3983TIP3   OH233507   4.507   2.517   7.121 -0.4358 -0.2331  0.0496
 3983TIP3    H133508   4.471   2.446   7.068 -1.8520 -0.7999  1.6816
 3983TIP3    H233509   4.592   2.484   7.149 -0.8908 -1.1207  0.4251
 3984TIP3   OH233510   2.685   5.316   7.499 -0.6026 -0.6146 -0.3909
 3984TIP3    H133511   2.770   5.332   7.458 -0.6405  0.1853 -0.1659
 3984TIP3    H233512   2.621   5.335   7.431 -0.6101 -1.0465 -0.5066
 3985TIP3   OH233513   4.466   6.386   2.456 -0.3019  0.2407  0.5301
 3985TIP3    H133514   4.541   6.445   2.459 -1.7966  2.2123  1.1337
 3985TIP3    H233515   4.504   6.298   2.455  2.0629  1.1697 -1.7349
 3986TIP3   OH233516   1.198   5.131   6.915 -0.1932 -0.0140 -0.4755
 3986TIP3    H133517   1.138   5.058   6.903 -0.7642  0.5257 -0.9601
 3986TIP3    H233518   1.285   5.091   6.911 -0.4867 -1.0885  2.0232
 3987TIP3   OH233519   1.974   6.126   1.340  0.6933  0.0499  0.5669
 3987TIP3    H133520   1.879   6.121   1.343  0.6757  0.6933  1.5497
 3987TIP3    H233521   1.996   6.199   1.397  1.7848 -0.1206  0.3879
 3988TIP3   OH233522   1.900   5.185   2.726  0.2429 -0.0341  0.0388
 3988TIP3    H133523   1.866   5.095   2.722 -0.9520  0.4393 -1.7962
 3988TIP3    H233524   1.822   5.240   2.732  0.9684  0.9233  1.4127
 3989TIP3   OH233525   5.344   2.530   0.652  0.4691  0.4383  0.1201
 3989TIP3    H133526   5.277   2.553   0.717  0.1366  1.5898 -0.6042
 3989TIP3    H233527   5.406   2.475   0.700 -1.6646 -1.8306  0.4982
 3990TIP3   OH233528   2.547   0.577   7.549  0.9742  0.4687  0.4067
 3990TIP3    H133529   2.491   0.508   7.512  1.9522 -0.5635  0.7999
 3990TIP3    H233530   2.513   0.658   7.510  0.7784 -0.3732 -1.2968
 3991TIP3   OH233531   4.434   3.680   8.026  0.4197 -0.7193 -0.2327
 3991TIP3    H133532   4.428   3.591   7.991  0.2892 -0.1124 -1.8780
 3991TIP3    H233533   4.527   3.702   8.020  0.7047 -1.2420  1.6066
 3992TIP3   OH233534   1.214   1.265   3.068 -0.1099  0.0602 -0.0229
 3992TIP3    H133535   1.203   1.277   3.163  0.2911  0.2617  0.0028
 3992TIP3    H233536   1.130   1.289   3.030  0.5206  2.6838  0.0472
 3993TIP3   OH233537   6.734   2.474   7.399 -0.3275  0.4869 -0.6189
 3993TIP3    H133538   6.808   2.475   7.338  0.1078  0.1343 -0.1054
 3993TIP3    H233539   6.689   2.391   7.382  0.3231 -0.0381  0.1510
 3994TIP3   OH233540   5.141   3.695   7.736  0.1244  0.0279 -0.1480
 3994TIP3    H133541   5.068   3.665   7.682  0.6938 -1.0984 -0.3104
 3994TIP3    H233542   5.122   3.660   7.823  0.5229 -0.3838 -0.2200
 3995TIP3   OH233543   2.968   4.484   8.201 -0.3901  0.1780  0.0091
 3995TIP3    H133544   2.982   4.553   8.265  0.5745 -0.4112  0.4493
 3995TIP3    H233545   2.995   4.522   8.117  1.5162 -0.0982  0.4594
 3996TIP3   OH233546   4.241   5.540   0.640 -0.3396 -0.4143  0.2836
 3996TIP3    H133547   4.255   5.538   0.734 -1.0005 -0.5794  0.3851
 3996TIP3    H233548   4.186   5.464   0.622 -0.4631 -0.2195 -0.1955
 3997TIP3   OH233549   5.766   2.940   8.742  0.5607 -0.1474 -0.6669
 3997TIP3    H133550   5.790   2.848   8.757 -3.2863 -1.2129 -0.1736
 3997TIP3    H233551   5.701   2.936   8.673 -0.3293  2.1214 -0.0193
 3998TIP3   OH233552   0.818   3.692   1.265  0.1133  0.2914 -0.5373
 3998TIP3    H133553   0.792   3.692   1.173  0.2386  0.9306 -0.5792
 3998TIP3    H233554   0.736   3.683   1.313 -0.1761  1.7805 -0.6816
 3999TIP3   OH233555   4.456   5.094   7.223  0.2857 -0.0672 -0.1420
 3999TIP3    H133556   4.409   5.151   7.163  1.2846  0.1933 -0.7037
 3999TIP3    H233557   4.545   5.130   7.226  1.6396 -2.7751 -2.2832
 4000TIP3   OH233558   1.079   3.041   8.488  0.0669 -0.0444 -0.0691
 4000TIP3    H133559   1.126   2.984   8.427 -0.1413 -0.8383  0.4958
 4000TIP3    H233560   1.006   3.076   8.437 -0.6515 -1.4387 -0.0388
 4001TIP3   OH233561   0.135   6.129   0.653 -0.0638  0.2261 -0.3813
 4001TIP3    H133562   0.089   6.145   0.735  0.0648  0.7937 -0.4155
 4001TIP3    H233563   0.066   6.127   0.587 -0.1894 -0.4515 -0.2338
 4002TIP3   OH233564   1.509   0.468   0.584 -0.8321 -0.6027 -0.4489
 4002TIP3    H133565   1.558   0.399   0.541 -2.5017 -1.5764 -0.8953
 4002TIP3    H233566   1.498   0.436   0.674  0.9641  0.5202  0.2197
 4003TIP3   OH233567   6.389   0.208   1.705 -0.0880  0.1298  0.4220
 4003TIP3    H133568   6.454   0.220   1.774 -0.1334 -1.3894  0.7491
 4003TIP3    H233569   6.412   0.125   1.664 -0.6866  0.5056 -0.7272
 4004TIP3   OH233570   5.943   3.592   0.936 -0.2511  0.3042  0.4501
 4004TIP3    H133571   5.849   3.608   0.923 -0.2444  0.8118  0.9858
 4004TIP3    H233572   5.947   3.517   0.996 -0.2944 -0.5185 -0.5442
 4005TIP3   OH233573   1.353   2.176   6.933  0.4523 -0.5059 -0.2575
 4005TIP3    H133574   1.282   2.239   6.939 -2.1605 -3.3095  0.9744
 4005TIP3    H233575   1.382   2.180   6.842 -1.1195  0.8600 -0.7409
 4006TIP3   OH233576   5.382   0.529   1.963 -0.1338 -0.7116  0.1433
 4006TIP3    H133577   5.366   0.569   2.049  2.0296 -0.3191  0.4157
 4006TIP3    H233578   5.391   0.603   1.903 -0.6836 -0.9576 -0.2516
 4007TIP3   OH233579   3.394   6.685   2.988  0.7010  0.0700  0.0713
 4007TIP3    H133580   3.399   6.675   3.083 -0.6813  0.4279  0.2056
 4007TIP3    H233581   3.361   6.601   2.956 -1.0181  0.6790  0.1605
 4008TIP3   OH233582   6.675   2.451   2.038  0.3138 -0.6973 -0.1345
 4008TIP3    H133583   6.639   2.529   1.996 -0.3215 -0.2686  1.1634
 4008TIP3    H233584   6.733   2.485   2.106  0.4648 -1.3678  0.0790
 4009TIP3   OH233585   4.185   3.158   1.739 -0.1794  0.3356  0.4773
 4009TIP3    H133586   4.212   3.226   1.801  0.7486 -0.9102  1.5075
 4009TIP3    H233587   4.243   3.084   1.758 -2.0207 -1.2386  0.3420
 4010TIP3   OH233588   2.490   3.204   0.991 -0.9237  0.0266 -0.0286
 4010TIP3    H133589   2.498   3.299   0.987  3.1469 -0.1854 -1.0318
 4010TIP3    H233590   2.494   3.176   0.900 -3.0919 -1.1696  0.1670
 4011TIP3   OH233591   3.425   5.612   8.372 -0.1028 -0.0940 -0.2474
 4011TIP3    H133592   3.358   5.644   8.432  0.9688  2.9954 -0.5430
 4011TIP3    H233593   3.494   5.578   8.429  0.0258  0.9381  0.2354
 4012TIP3   OH233594   5.402   0.741   1.791 -0.1083  0.2709 -0.5635
 4012TIP3    H133595   5.451   0.790   1.857 -0.4666 -0.2444  0.0971
 4012TIP3    H233596   5.354   0.808   1.742 -1.1247  0.5732  0.7611
 4013TIP3   OH233597   3.259   1.591   7.314 -0.2538 -0.2406 -0.8670
 4013TIP3    H133598   3.280   1.669   7.366  0.0945 -0.4285 -0.7212
 4013TIP3    H233599   3.228   1.527   7.378 -1.9669  0.2497 -1.1516
 4014TIP3   OH233600   4.359   2.588   6.700  0.1485 -0.2302  0.4053
 4014TIP3    H133601   4.336   2.583   6.793  0.7679 -1.5355  0.5212
 4014TIP3    H233602   4.364   2.681   6.681  0.3555  0.0627  1.7818
 4015TIP3   OH233603   4.997   3.025   2.233  0.2238 -0.0110  0.3388
 4015TIP3    H133604   5.083   3.038   2.272 -0.0740 -0.1593  1.0574
 4015TIP3    H233605   4.950   3.106   2.251  0.0235 -0.1523  0.4472
 4016TIP3   OH233606   6.649   6.031   1.405  0.0501 -0.7227 -0.4573
 4016TIP3    H133607   6.658   6.119   1.369  2.8886 -1.4358 -1.7684
 4016TIP3    H233608   6.698   6.034   1.487  1.2391 -1.3592 -1.1230
 4017TIP3   OH233609   4.723   5.898   7.358  0.2173 -0.3615  0.2876
 4017TIP3    H133610   4.791   5.960   7.384  2.0779 -2.2950  0.2159
 4017TIP3    H233611   4.714   5.910   7.264 -1.9699  2.1431  0.6663
 4018TIP3   OH233612   4.690   5.027   0.350  0.5531 -0.2647  0.1284
 4018TIP3    H133613   4.655   5.068   0.271  1.6374 -0.4955 -0.4826
 4018TIP3    H233614   4.774   5.070   0.365 -0.2930  0.8636  2.0530
 4019TIP3   OH233615   4.079   0.887   1.967 -0.0437  0.0647  0.1575
 4019TIP3    H133616   4.107   0.799   1.992 -0.9830  0.1100  1.4833
 4019TIP3    H233617   4.158   0.940   1.973  0.1513 -0.3172  1.3077
 4020TIP3   OH233618   4.121   3.276   0.628 -0.0993 -0.1071 -0.2206
 4020TIP3    H133619   4.154   3.365   0.614  2.1601 -0.4141  2.2965
 4020TIP3    H233620   4.178   3.221   0.574  0.4912 -0.2297  0.5026
 4021TIP3   OH233621   1.730   0.935   8.727 -0.0375  0.0431 -0.5425
 4021TIP3    H133622   1.790   0.955   8.655  0.8313  0.2663  0.2116
 4021TIP3    H233623   1.649   0.909   8.685  0.6908 -0.5853 -1.6189
 4022TIP3   OH233624   1.018   0.667   8.371  0.0229 -0.0838 -0.4652
 4022TIP3    H133625   0.990   0.619   8.449 -2.0738 -1.2178 -1.8210
 4022TIP3    H233626   1.049   0.600   8.311 -2.2302  0.2052 -2.1032
 4023TIP3   OH233627   4.622   4.839   7.595  0.1610 -0.2446  0.3382
 4023TIP3    H133628   4.536   4.831   7.636 -0.2647 -0.6617 -0.6084
 4023TIP3    H233629   4.604   4.832   7.501  1.2592 -0.5904  0.1473
 4024TIP3   OH233630   2.192   6.359   1.347 -0.0341  0.0204  0.9156
 4024TIP3    H133631   2.099   6.377   1.337  0.2634  0.2341 -2.4829
 4024TIP3    H233632   2.236   6.440   1.320  1.1680 -0.3518  1.6358
 4025TIP3   OH233633   0.698   0.111   1.663  0.0745 -0.1513  0.5465
 4025TIP3    H133634   0.723   0.185   1.718  2.8560 -0.2029 -0.5231
 4025TIP3    H233635   0.684   0.149   1.576 -1.0975 -0.5549  0.5272
 4026TIP3   OH233636   5.522   4.421   1.835  0.0349 -0.4312 -0.4511
 4026TIP3    H133637   5.524   4.503   1.884  2.0587  0.3075 -1.6265
 4026TIP3    H233638   5.605   4.420   1.787 -1.1561 -1.8403 -2.6432
 4027TIP3   OH233639   0.453   4.694   2.452  0.1043 -0.1175  0.0469
 4027TIP3    H133640   0.403   4.624   2.492 -0.9302 -1.5819 -3.4293
 4027TIP3    H233641   0.396   4.771   2.457  0.0542 -0.2283  1.3737
 4028TIP3   OH233642   3.536   5.880   8.679  0.0358 -0.5034  0.0085
 4028TIP3    H133643   3.574   5.967   8.669  0.4974 -0.4053  2.1410
 4028TIP3    H233644   3.600   5.821   8.640  0.9944 -0.0918  0.9165
 4029TIP3   OH233645   0.774   4.472   7.808 -0.0527  0.0471 -0.0929
 4029TIP3    H133646   0.693   4.523   7.814 -0.4266 -0.5923  0.4779
 4029TIP3    H233647   0.750   4.395   7.756  0.0215 -0.4406  0.5784
 4030TIP3   OH233648   5.931   3.277   7.971 -0.0527  0.3806 -0.9334
 4030TIP3    H133649   5.934   3.274   8.067  0.4154  0.7830 -0.9323
 4030TIP3    H233650   5.855   3.223   7.948  1.1089 -1.5333 -0.4569
 4031TIP3   OH233651   2.578   5.323   1.045  0.1292 -0.5612 -0.0077
 4031TIP3    H133652   2.640   5.306   1.117 -0.7431  1.3414  1.2584
 4031TIP3    H233653   2.603   5.408   1.011 -2.1522  0.5935  1.0015
 4032TIP3   OH233654   0.425   5.644   8.197  0.3491 -0.3406  0.3493
 4032TIP3    H133655   0.445   5.570   8.139 -0.5808 -0.7051  0.4875
 4032TIP3    H233656   0.468   5.719   8.155 -1.3659 -0.3285 -1.5569
 4033TIP3   OH233657   4.772   1.240   7.234  0.0805 -0.1082 -0.1128
 4033TIP3    H133658   4.861   1.210   7.220  0.0381 -0.4697  0.3830
 4033TIP3    H233659   4.717   1.166   7.208 -0.0519 -0.1387  0.2585
 4034TIP3   OH233660   5.549   6.750   0.135 -0.2118 -0.4357  0.7736
 4034TIP3    H133661   5.519   6.807   0.064 -1.2549  1.1108  2.3763
 4034TIP3    H233662   5.638   6.724   0.109  0.7960  2.8641  0.4702
 4035TIP3   OH233663   0.588   3.549   0.203 -0.4259  0.0526 -0.8582
 4035TIP3    H133664   0.573   3.643   0.193  0.0347  0.3722  1.0407
 4035TIP3    H233665   0.655   3.543   0.271 -1.4012 -1.6803  0.0171
 4036TIP3   OH233666   3.773   6.125   0.090  0.1818 -0.1047 -0.1562
 4036TIP3    H133667   3.723   6.094   0.166 -0.3620  0.0833 -0.4387
 4036TIP3    H233668   3.732   6.207   0.066 -0.2827 -0.6434 -1.2624
 4037TIP3   OH233669   4.535   3.732   8.830 -0.8448 -0.4352 -0.2526
 4037TIP3    H133670   4.544   3.817   8.786 -1.4855 -1.0527 -1.6480
 4037TIP3    H233671   4.517   3.754   8.921 -1.6729  0.9562 -0.7132
 4038TIP3   OH233672   1.946   4.117   1.012 -0.1666 -0.0617  0.0919
 4038TIP3    H133673   1.916   4.026   1.009 -3.2213  0.7660  1.2879
 4038TIP3    H233674   1.988   4.125   1.098  0.4192 -0.4219 -0.1589
 4039TIP3   OH233675   3.431   6.529   7.575 -0.6307  0.2957  0.4606
 4039TIP3    H133676   3.430   6.571   7.489  3.9943 -0.7526 -0.3631
 4039TIP3    H233677   3.481   6.589   7.631  1.0341 -1.3543  0.8424
 4040TIP3   OH233678   4.025   0.779   8.735 -0.3361  0.4302  0.1415
 4040TIP3    H133679   4.032   0.732   8.652  0.3116 -1.1025  1.0167
 4040TIP3    H233680   4.099   0.840   8.734 -1.2393  1.5773 -1.0498
 4041TIP3   OH233681   0.273   1.354   2.262 -0.1948 -0.0722  0.3981
 4041TIP3    H133682   0.290   1.334   2.354 -0.3007  1.0160  0.6694
 4041TIP3    H233683   0.240   1.271   2.225 -0.0723 -0.5425  1.3098
 4042TIP3   OH233684   0.993   4.051   1.684 -0.5149  0.7969 -0.4780
 4042TIP3    H133685   1.031   4.004   1.610  2.5378  2.2064  0.0449
 4042TIP3    H233686   1.055   4.035   1.756 -1.7941  1.9386  0.9323
 4043TIP3   OH233687   5.590   2.693   1.463 -0.0359  0.5757 -0.6339
 4043TIP3    H133688   5.634   2.640   1.396  0.2154  1.0893 -0.8821
 4043TIP3    H233689   5.503   2.654   1.471  0.1841  0.0563 -0.7325
 4044TIP3   OH233690   1.525   2.645   0.188 -0.3973  0.0339 -0.1836
 4044TIP3    H133691   1.475   2.707   0.136  1.8741  1.5216 -0.7766
 4044TIP3    H233692   1.584   2.603   0.125 -0.3847 -1.1395  0.5765
 4045TIP3   OH233693   5.348   1.047   1.316 -0.0838 -0.4748 -0.5969
 4045TIP3    H133694   5.308   1.096   1.244 -2.7149  2.0904  2.3255
 4045TIP3    H233695   5.287   0.975   1.331  0.5421 -1.0928 -0.9869
 4046TIP3   OH233696   6.498   5.635   1.042 -0.1042 -0.2712 -0.2677
 4046TIP3    H133697   6.534   5.698   0.980 -0.6823 -0.4576 -0.8147
 4046TIP3    H233698   6.495   5.681   1.125  0.6032  0.0163 -0.3945
 4047TIP3   OH233699   4.916   0.615   8.265 -0.7046 -0.4459  0.1321
 4047TIP3    H133700   5.004   0.611   8.227 -0.4546  1.3134  0.4443
 4047TIP3    H233701   4.860   0.646   8.195 -0.6563  0.5883  0.5361
 4048TIP3   OH233702   0.297   2.121   0.379  0.5578  0.3950  0.0856
 4048TIP3    H133703   0.227   2.107   0.315  1.2961 -2.0090 -0.3034
 4048TIP3    H233704   0.329   2.033   0.399  3.1239  1.3754  0.6648
 4049TIP3   OH233705   3.180   4.697   1.151 -0.0310  0.1560  0.0936
 4049TIP3    H133706   3.130   4.719   1.072 -1.6008  0.6522  1.1572
 4049TIP3    H233707   3.246   4.766   1.158  0.1720  0.0653 -0.8078
 4050TIP3   OH233708   0.025   6.074   8.520  0.2160  0.2021  0.0754
 4050TIP3    H133709   0.030   6.058   8.614  1.2670  0.1694  0.0298
 4050TIP3    H233710  -0.007   6.164   8.513 -0.3456  0.0321  0.4529
 4051TIP3   OH233711   6.748   0.344   7.808  0.3793  0.6749 -0.0276
 4051TIP3    H133712   6.661   0.304   7.805  0.4826  0.2893  1.3330
 4051TIP3    H233713   6.765   0.370   7.718 -0.2797 -1.1099 -0.7329
 4052TIP3   OH233714   2.049   0.082   8.344  0.3551 -0.3237  0.7544
 4052TIP3    H133715   2.124   0.105   8.399 -0.1035  2.2390  0.4578
 4052TIP3    H233716   2.017   0.167   8.312  0.2790 -1.6255 -3.0557
 4053TIP3   OH233717   5.451   4.109   2.319 -0.0903 -0.1195  0.4617
 4053TIP3    H133718   5.524   4.049   2.334  0.0790 -0.0685 -0.1704
 4053TIP3    H233719   5.474   4.187   2.371 -1.0799 -1.1694  2.6353
 4054TIP3   OH233720   0.515   4.368   0.771 -0.3887 -0.2168 -0.1509
 4054TIP3    H133721   0.573   4.409   0.706 -1.5427  1.0933 -0.4087
 4054TIP3    H233722   0.553   4.391   0.855  0.2569 -0.5938 -0.3358
 4055TIP3   OH233723   4.355   5.937   7.909  0.4287 -0.0794  0.1016
 4055TIP3    H133724   4.285   5.900   7.855  0.1560 -0.4302  0.6845
 4055TIP3    H233725   4.318   5.941   7.997  0.1872  2.2524 -0.0384
 4056TIP3   OH233726   3.626   2.185   6.749  0.1743 -0.9469  0.1036
 4056TIP3    H133727   3.591   2.243   6.681  2.1968 -0.6394 -0.7622
 4056TIP3    H233728   3.592   2.220   6.831 -0.9783 -0.3137 -0.6137
 4057TIP3   OH233729   0.899   3.051   7.616  0.3783 -0.3591  0.6344
 4057TIP3    H133730   0.874   2.959   7.621 -1.7364  0.2071  1.4869
 4057TIP3    H233731   0.866   3.081   7.532 -1.0674  0.1524  1.3494
 4058TIP3   OH233732   6.726   3.195   7.207  0.4367 -0.0623  0.4753
 4058TIP3    H133733   6.707   3.288   7.195  1.7450  0.1196 -0.4229
 4058TIP3    H233734   6.814   3.193   7.245  1.3504 -0.9289 -1.5516
 4059TIP3   OH233735   5.324   6.722   2.742  0.1061 -0.6929  0.0846
 4059TIP3    H133736   5.291   6.787   2.805  1.7324  0.2676 -0.0141
 4059TIP3    H233737   5.261   6.725   2.670 -0.6421 -0.2984  0.7325
 4060TIP3   OH233738   0.434   0.369   2.289 -0.4144  0.1417  0.2716
 4060TIP3    H133739   0.354   0.394   2.336 -0.2750  0.0723  0.5477
 4060TIP3    H233740   0.420   0.276   2.267  0.3073 -0.3802  1.8364
 4061TIP3   OH233741   2.858   5.547   0.665 -0.3901 -0.3078  0.1249
 4061TIP3    H133742   2.917   5.569   0.737  0.0752 -2.1407  0.3466
 4061TIP3    H233743   2.903   5.579   0.587 -0.6493  1.2091  0.5625
 4062TIP3   OH233744   2.198   5.858   1.799 -0.4787 -0.1792  0.1747
 4062TIP3    H133745   2.186   5.873   1.706  0.4603  0.2345  0.1015
 4062TIP3    H233746   2.179   5.765   1.811 -3.2555  0.2947  0.0676
 4063TIP3   OH233747   0.132   5.734   0.438  0.7542 -0.2458  0.0771
 4063TIP3    H133748   0.164   5.765   0.353  0.8147 -0.3863  0.0490
 4063TIP3    H233749   0.091   5.650   0.419  2.3333 -1.1404  0.4586
 4064TIP3   OH233750   6.697   4.750   2.660 -0.3015 -0.1100  0.5856
 4064TIP3    H133751   6.605   4.756   2.631  0.3407  1.5326 -1.3167
 4064TIP3    H233752   6.696   4.786   2.748 -1.3538  0.8657  0.2110
 4065TIP3   OH233753   0.846   2.293   1.276  0.6241  0.4051 -0.5398
 4065TIP3    H133754   0.833   2.252   1.190  0.6796 -0.6794 -0.0534
 4065TIP3    H233755   0.766   2.273   1.324  0.8924  0.3768 -0.1013
 4066TIP3   OH233756   0.955   0.646   1.988 -0.3819 -0.2788  0.6995
 4066TIP3    H133757   0.965   0.552   1.979 -1.0015 -0.4452  1.6794
 4066TIP3    H233758   0.964   0.663   2.081 -0.6367  0.5903  0.5736
 4067TIP3   OH233759   1.388   5.171   1.461  0.2217 -0.2795  0.4590
 4067TIP3    H133760   1.445   5.240   1.426  0.5015  0.5400  2.4167
 4067TIP3    H233761   1.303   5.186   1.418  0.4096  1.0115  0.5017
 4068TIP3   OH233762   1.541   2.227   8.834 -0.3567 -0.0651 -0.0306
 4068TIP3    H133763   1.491   2.159   8.880 -0.9297  0.4163  0.0650
 4068TIP3    H233764   1.499   2.234   8.749 -0.4596  0.3470  0.0537
 4069TIP3   OH233765   2.618   3.233   0.356 -0.1724  0.4217  0.4423
 4069TIP3    H133766   2.628   3.323   0.325  4.9243 -0.8584 -2.8219
 4069TIP3    H233767   2.660   3.232   0.442  1.0371  0.9448 -0.1277
 4070TIP3   OH233768   5.854   0.982   7.734  0.0560  0.1563  0.7822
 4070TIP3    H133769   5.925   0.944   7.682  0.3208 -0.4524  1.5682
 4070TIP3    H233770   5.790   0.911   7.743 -1.2017  1.0241 -0.8531
 4071TIP3   OH233771   6.133   6.761   1.564 -0.0885  0.2286 -0.5574
 4071TIP3    H133772   6.091   6.781   1.481 -1.1986 -0.1637 -0.1053
 4071TIP3    H233773   6.073   6.792   1.631  0.5036 -0.0128  0.1097
 4072TIP3   OH233774   0.886   3.185   6.419  0.5340  0.7047  0.2402
 4072TIP3    H133775   0.888   3.188   6.514  3.2364  0.7259  0.2376
 4072TIP3    H233776   0.904   3.275   6.391  2.1297  0.2647 -0.2364
 4073TIP3   OH233777   1.381   3.895   8.248 -0.0770  0.0981 -0.8358
 4073TIP3    H133778   1.433   3.825   8.287 -0.1874 -1.0848 -2.7051
 4073TIP3    H233779   1.302   3.898   8.302  0.9802  0.4946  0.7488
 4074TIP3   OH233780   2.986   3.286   1.994 -0.1788  0.2609  0.7401
 4074TIP3    H133781   2.890   3.280   1.995 -0.1327 -1.4876 -0.5801
 4074TIP3    H233782   3.014   3.230   2.067 -0.1404  1.2063  1.4743
 4075TIP3   OH233783   2.949   1.035   6.431 -0.3716  0.1081 -0.1556
 4075TIP3    H133784   3.003   1.004   6.504  0.5916  1.6936 -0.1449
 4075TIP3    H233785   2.905   1.112   6.466 -0.4322  0.4882 -1.0420
 4076TIP3   OH233786   1.460   3.598   8.611  0.1446  0.2249  0.6896
 4076TIP3    H133787   1.499   3.659   8.674  3.6414  0.5443 -1.5296
 4076TIP3    H233788   1.495   3.513   8.636 -0.5847 -0.0808  0.6902
 4077TIP3   OH233789   1.506   0.567   1.568 -0.0954 -0.3831 -0.4268
 4077TIP3    H133790   1.483   0.526   1.485 -0.2316 -0.3235 -0.4190
 4077TIP3    H233791   1.600   0.553   1.577 -0.4090 -2.1782  0.3749
 4078TIP3   OH233792   3.757   2.632   7.160 -0.6432 -0.6551  0.0207
 4078TIP3    H133793   3.712   2.560   7.114 -1.2208  0.6492 -1.5610
 4078TIP3    H233794   3.687   2.687   7.193 -0.2245  0.1856 -0.4636
 4079TIP3   OH233795   6.751   3.463   1.181  0.3882 -0.0693 -0.6601
 4079TIP3    H133796   6.669   3.506   1.156  0.8489  1.5396  0.4362
 4079TIP3    H233797   6.813   3.487   1.111  0.9928  2.2736  0.5718
 4080TIP3   OH233798   3.167   3.824   8.118 -0.0021 -0.1590 -0.4803
 4080TIP3    H133799   3.211   3.864   8.193 -2.0178  0.5127  0.4133
 4080TIP3    H233800   3.238   3.798   8.059  1.5375  1.3237  0.6402
 4081TIP3   OH233801   2.615   2.076   7.637  0.1175 -0.0664 -0.1342
 4081TIP3    H133802   2.570   2.130   7.572 -1.4130 -0.9218  0.1712
 4081TIP3    H233803   2.549   2.058   7.704  1.4592  0.1772  1.3104
 4082TIP3   OH233804   4.505   4.965   1.614  0.8558  0.3997 -0.0511
 4082TIP3    H133805   4.530   4.886   1.664 -0.2756  1.1988  1.8808
 4082TIP3    H233806   4.426   4.939   1.567  0.8164  0.2011  0.1206
 4083TIP3   OH233807   0.155   4.831   1.286  0.2172 -0.9005  0.0385
 4083TIP3    H133808   0.140   4.914   1.331 -2.1652 -0.9782 -0.5169
 4083TIP3    H233809   0.249   4.815   1.297  0.5561  1.3684  0.9699
 4084TIP3   OH233810   2.499   6.394   0.712  0.0540 -0.2909 -0.1408
 4084TIP3    H133811   2.453   6.315   0.742 -1.1520  0.8658  1.2612
 4084TIP3    H233812   2.555   6.418   0.786 -1.2927  1.3863  0.4042
 4085TIP3   OH233813   4.825   6.756   7.283 -0.8761  0.0396  0.3572
 4085TIP3    H133814   4.916   6.770   7.256  0.0508 -2.0293  2.0888
 4085TIP3    H233815   4.801   6.836   7.329 -0.7849  1.5542 -2.0616
 4086TIP3   OH233816   0.459   5.679   7.673 -0.1937 -0.3915 -0.0917
 4086TIP3    H133817   0.400   5.617   7.631 -0.3629  0.7457 -1.6316
 4086TIP3    H233818   0.466   5.751   7.611  1.8466  0.0787  0.6038
 4087TIP3   OH233819   5.926   2.374   7.716  0.4159  0.0154 -0.0223
 4087TIP3    H133820   5.965   2.385   7.629  1.5297 -0.6694  0.3742
 4087TIP3    H233821   6.000   2.372   7.776  0.1859 -4.3052  0.4946
 4088TIP3   OH233822   3.891   3.087   0.224  0.0220 -1.1042  0.1887
 4088TIP3    H133823   3.957   3.072   0.292  0.6959  1.8147  0.3169
 4088TIP3    H233824   3.881   3.002   0.181  2.0147 -2.2356  1.7774
 4089TIP3   OH233825   1.526   1.071   1.531  0.3032 -0.5126 -0.1176
 4089TIP3    H133826   1.441   1.029   1.546  0.3000 -0.5237 -0.1675
 4089TIP3    H233827   1.586   1.024   1.590  0.0229  0.3536  0.8941
 4090TIP3   OH233828   4.583   2.483   2.832 -0.0684  0.0717  0.3396
 4090TIP3    H133829   4.592   2.552   2.766  0.8513 -0.5860 -0.2422
 4090TIP3    H233830   4.492   2.454   2.824 -0.7436  1.8306  1.2264
 4091TIP3   OH233831   1.888   1.840   1.339  0.1501 -0.5812 -0.1967
 4091TIP3    H133832   1.875   1.915   1.280  1.2859 -0.1692  0.0481
 4091TIP3    H233833   1.862   1.764   1.287  1.1936 -0.2336 -1.2840
 4092TIP3   OH233834   1.348   5.886   2.499  0.3467  0.0499 -0.5598
 4092TIP3    H133835   1.383   5.852   2.417 -0.0673 -1.6775 -0.0696
 4092TIP3    H233836   1.417   5.872   2.563 -0.3072 -1.1102 -0.0859
 4093TIP3   OH233837   3.161   1.272   7.784 -0.9278  0.4921 -0.3854
 4093TIP3    H133838   3.107   1.204   7.744 -1.1571  1.3764 -1.6402
 4093TIP3    H233839   3.114   1.353   7.766 -0.0431  1.1060  0.0199
 4094TIP3   OH233840   6.748   4.286   1.428  0.0601 -0.0300  0.3835
 4094TIP3    H133841   6.760   4.369   1.474 -0.1634  0.3456 -0.2215
 4094TIP3    H233842   6.819   4.230   1.461 -1.1509 -0.3959  2.5084
 4095TIP3   OH233843   3.701   1.782   2.053 -1.1815  0.6186 -0.2373
 4095TIP3    H133844   3.637   1.711   2.045  1.8095 -2.1086 -4.9530
 4095TIP3    H233845   3.752   1.760   2.130 -2.0656 -0.7264 -0.0028
 4096TIP3   OH233846   5.519   4.116   1.429 -0.3544 -0.0911  0.0018
 4096TIP3    H133847   5.564   4.057   1.369 -1.5754  0.0560 -1.1195
 4096TIP3    H233848   5.459   4.060   1.478 -0.9929  0.0962 -0.5497
 4097TIP3   OH233849   5.695   0.791   0.924  0.0419  0.0492  0.1394
 4097TIP3    H133850   5.657   0.713   0.883 -1.2715 -0.5726  2.3442
 4097TIP3    H233851   5.707   0.766   1.015  1.1413  1.9379  0.5603
 4098TIP3   OH233852   3.346   3.461   0.287 -0.3067  0.0178  0.1789
 4098TIP3    H133853   3.378   3.530   0.345 -2.2381  1.0801  0.0835
 4098TIP3    H233854   3.412   3.453   0.219  0.1136  1.5628  0.3766
 4099TIP3   OH233855   1.262   6.429   2.350 -0.4525 -0.1673 -0.0985
 4099TIP3    H133856   1.188   6.381   2.389 -1.7084  1.3489 -0.5292
 4099TIP3    H233857   1.283   6.380   2.271 -0.2024 -1.2853  0.6409
 4100TIP3   OH233858   6.590   3.894   0.768 -0.0303 -0.0823 -0.7350
 4100TIP3    H133859   6.659   3.829   0.771  0.0850  0.0257 -0.9910
 4100TIP3    H233860   6.571   3.904   0.675 -1.0196 -0.7800 -0.6250
 4101TIP3   OH233861   4.084   0.803   2.648  0.1487 -0.3182  0.1569
 4101TIP3    H133862   4.128   0.741   2.706 -0.6925 -1.4766 -0.4169
 4101TIP3    H233863   4.141   0.880   2.647  1.7363 -1.4643  0.0620
 4102TIP3   OH233864   2.022   2.735   0.980 -0.1651  0.5322 -1.0624
 4102TIP3    H133865   2.102   2.770   1.019 -1.1676  1.0887  0.6401
 4102TIP3    H233866   2.051   2.666   0.921  1.5844  1.0379 -0.8390
 4103TIP3   OH233867   4.164   6.681   1.530 -0.5260  0.8101 -0.4113
 4103TIP3    H133868   4.181   6.697   1.623 -3.3158 -0.6057  0.4362
 4103TIP3    H233869   4.115   6.758   1.501 -0.7409  0.6842 -0.3815
 4104TIP3   OH233870   2.716   0.606   0.212 -0.4955  0.2745  0.3252
 4104TIP3    H133871   2.702   0.679   0.273  0.4812 -0.1103  1.0278
 4104TIP3    H233872   2.748   0.648   0.132 -0.7306  0.6878  0.4433
 4105TIP3   OH233873   1.818   2.473   0.419 -0.4819  0.3183 -0.1558
 4105TIP3    H133874   1.839   2.399   0.475  2.1923  1.6915  0.8127
 4105TIP3    H233875   1.776   2.434   0.342  0.2333 -2.1060  0.6068
 4106TIP3   OH233876   4.515   0.540   0.551 -0.2786 -0.0326  0.4307
 4106TIP3    H133877   4.528   0.465   0.493 -0.7929  0.8988 -0.9392
 4106TIP3    H233878   4.439   0.515   0.605  0.5709 -1.1522  1.1692
 4107TIP3   OH233879   4.783   4.652   1.460 -0.3361  0.3218  0.1954
 4107TIP3    H133880   4.807   4.595   1.533 -2.1571 -0.8658 -0.0698
 4107TIP3    H233881   4.840   4.625   1.388  0.8590  0.8972  0.9001
 4108TIP3   OH233882   4.240   0.544   8.411 -0.1787  0.1104  0.6026
 4108TIP3    H133883   4.268   0.630   8.380 -1.3706  0.5944  0.8122
 4108TIP3    H233884   4.198   0.561   8.496 -1.7476 -0.4378 -0.0208
 4109TIP3   OH233885   2.824   1.195   7.566  0.3640  0.5154 -0.3304
 4109TIP3    H133886   2.732   1.174   7.582  0.4920  0.2019  0.0011
 4109TIP3    H233887   2.872   1.146   7.633  0.7733  0.6744 -0.5039
 4110TIP3   OH233888   2.079   6.599   1.614  0.1246  0.2225  0.3819
 4110TIP3    H133889   2.086   6.503   1.612  1.3374  0.2820 -2.6773
 4110TIP3    H233890   2.169   6.629   1.620 -0.0204  1.1247 -1.3898
 4111TIP3   OH233891   5.712   5.399   7.835 -0.6653  0.1474  0.2166
 4111TIP3    H133892   5.752   5.334   7.892 -0.3409  1.0477  1.0222
 4111TIP3    H233893   5.783   5.457   7.810 -1.1249  0.7286  0.2409
 4112TIP3   OH233894   4.904   2.289   8.881 -0.2195  0.3395 -0.3334
 4112TIP3    H133895   4.824   2.236   8.874  0.3317 -0.3617 -1.8024
 4112TIP3    H233896   4.877   2.369   8.926 -1.2899 -0.7632  1.0780
 4113TIP3   OH233897   6.277   3.119   8.492  0.0102  0.5990 -0.9683
 4113TIP3    H133898   6.270   3.054   8.422  1.0989 -2.8182  1.7355
 4113TIP3    H233899   6.193   3.114   8.538  0.7328 -0.4001  0.3306
 4114TIP3   OH233900   0.292   1.963   7.341 -0.0248  0.0755  0.6798
 4114TIP3    H133901   0.361   1.960   7.275  0.4298 -1.7250  1.1654
 4114TIP3    H233902   0.240   1.884   7.325 -2.6217  1.8533 -0.2807
 4115TIP3   OH233903   0.947   1.703   1.873 -0.1558 -0.0300  0.0635
 4115TIP3    H133904   0.898   1.638   1.923  1.2465  0.4270  2.1619
 4115TIP3    H233905   1.034   1.665   1.863 -0.1536  0.2886 -1.2894
 4116TIP3   OH233906   4.818   6.345   8.824 -0.3566  0.6900 -0.6442
 4116TIP3    H133907   4.860   6.338   8.909 -1.4937  1.9402  0.0635
 4116TIP3    H233908   4.850   6.270   8.774 -0.2110 -0.4641  1.1214
 4117TIP3   OH233909   6.333   4.131   8.283  0.3323  0.1970 -0.7403
 4117TIP3    H133910   6.346   4.050   8.234 -1.1978 -0.9000  0.5655
 4117TIP3    H233911   6.265   4.178   8.234  0.1155 -0.0360 -0.6637
 4118TIP3   OH233912   5.476   3.217   0.180  0.8378  0.6017  0.0207
 4118TIP3    H133913   5.471   3.309   0.205  0.2543  1.1921 -2.0714
 4118TIP3    H233914   5.388   3.182   0.198  0.4426  1.0026 -1.0705
 4119TIP3   OH233915   5.887   4.876   1.213 -0.6511 -0.3833  0.0668
 4119TIP3    H133916   5.839   4.936   1.156 -0.7974  1.3991  1.9428
 4119TIP3    H233917   5.821   4.817   1.248 -1.1244  0.5034  0.7296
 4120TIP3   OH233918   5.917   5.380   8.749 -0.2377  0.4502  0.1267
 4120TIP3    H133919   5.872   5.414   8.826 -1.1840 -0.9088  0.2097
 4120TIP3    H233920   5.964   5.303   8.781  0.1058  0.3981 -0.4775
 4121TIP3   OH233921   5.538   3.325   3.203 -0.0232 -0.7963 -0.8561
 4121TIP3    H133922   5.591   3.384   3.257 -1.2649 -1.2050  0.9390
 4121TIP3    H233923   5.543   3.361   3.115  1.6584  0.2465 -0.3751
 4122TIP3   OH233924   1.062   5.084   1.651  0.3061 -0.7207  1.1335
 4122TIP3    H133925   1.080   5.165   1.697  0.7466  0.5059 -1.0712
 4122TIP3    H233926   1.075   5.105   1.558 -0.7579 -2.9795  0.3890
 4123TIP3   OH233927   3.306   2.798   8.855  0.2924  0.2263 -0.4145
 4123TIP3    H133928   3.251   2.755   8.921  0.3191 -0.1334 -0.6228
 4123TIP3    H233929   3.256   2.875   8.828  0.0851  0.1372 -0.2881
 4124TIP3   OH233930   3.918   6.440   2.520  0.1865  1.0250  0.3464
 4124TIP3    H133931   3.995   6.455   2.466 -0.3471 -0.6889 -0.9912
 4124TIP3    H233932   3.844   6.446   2.458 -0.4073 -1.4327  0.7163
 4125TIP3   OH233933   2.648   0.275   0.185  0.0059 -0.6277  0.2202
 4125TIP3    H133934   2.649   0.359   0.140  1.3192 -0.3661  0.6879
 4125TIP3    H233935   2.655   0.210   0.115 -1.5506 -0.4055 -0.1860
 4126TIP3   OH233936   5.189   2.888   2.386 -0.1054  0.3703 -0.3363
 4126TIP3    H133937   5.252   2.816   2.396 -2.1141 -1.1833  2.9284
 4126TIP3    H233938   5.229   2.962   2.430 -0.6293 -0.7675  2.2348
 4127TIP3   OH233939   3.663   2.118   8.260 -0.2510  0.1712  0.5050
 4127TIP3    H133940   3.670   2.202   8.215 -0.2680  0.7274  1.5098
 4127TIP3    H233941   3.621   2.139   8.344 -1.5775 -1.0439  0.1925
 4128TIP3   OH233942   3.151   1.973   7.598  0.5190 -0.1352  0.0608
 4128TIP3    H133943   3.086   2.039   7.573 -0.6247 -1.0266  0.5875
 4128TIP3    H233944   3.123   1.943   7.684  2.2467  0.1837  0.7760
 4129TIP3   OH233945   3.001   3.069   7.960  0.5596 -0.3151  0.2538
 4129TIP3    H133946   2.925   3.044   8.013  0.1965 -0.6228 -0.4081
 4129TIP3    H233947   3.077   3.041   8.012  0.2626  0.7745  1.3174
 4130TIP3   OH233948   4.089   6.703   0.974 -0.6151 -0.8746 -0.0797
 4130TIP3    H133949   4.027   6.705   1.046 -0.0420 -0.9039  0.4257
 4130TIP3    H233950   4.172   6.731   1.013  0.0716 -2.4318 -0.3424
 4131TIP3   OH233951   4.670   3.672   0.264 -0.0529  0.5596 -0.2957
 4131TIP3    H133952   4.765   3.677   0.257  0.0635  1.7393  1.4614
 4131TIP3    H233953   4.640   3.762   0.250 -1.0065  0.0744 -1.5843
 4132TIP3   OH233954   4.403   3.775   0.554 -0.3077 -0.2436 -0.0823
 4132TIP3    H133955   4.413   3.804   0.463 -1.2563  1.3634  0.2855
 4132TIP3    H233956   4.309   3.776   0.569 -0.1205  0.2977  1.1391
 4133TIP3   OH233957   4.450   4.105   1.479 -0.0776  0.6445 -0.3137
 4133TIP3    H133958   4.449   4.169   1.409  0.6457 -0.0144 -0.9451
 4133TIP3    H233959   4.472   4.155   1.558  0.2307  1.2075 -0.7569
 4134TIP3   OH233960   6.532   2.727   0.562 -0.3795 -0.1842  0.2457
 4134TIP3    H133961   6.567   2.661   0.501  0.1701  0.3447 -0.0269
 4134TIP3    H233962   6.474   2.678   0.620 -0.0687 -0.8891 -0.0246
 4135TIP3   OH233963   1.787   0.506   1.504  0.0631  0.5949  0.0136
 4135TIP3    H133964   1.800   0.601   1.494 -1.2530  0.7546 -0.5303
 4135TIP3    H233965   1.863   0.467   1.462  0.6762  1.4203  0.3277
 4136TIP3   OH233966   2.616   2.681   0.357  0.6776  0.1675  0.9179
 4136TIP3    H133967   2.615   2.775   0.371  1.2651  0.2904  0.1985
 4136TIP3    H233968   2.532   2.660   0.317  1.4283  0.7620 -1.1075
 4137TIP3   OH233969   0.312   3.523   0.233  0.4585  0.0266  0.7779
 4137TIP3    H133970   0.310   3.463   0.159  0.4583  2.5961 -1.4501
 4137TIP3    H233971   0.403   3.553   0.237  0.1400  1.0407  0.7917
 4138TIP3   OH233972   4.746   1.966   0.271 -0.1261 -0.1588 -0.4655
 4138TIP3    H133973   4.816   2.031   0.280 -0.1694 -0.2070  0.2703
 4138TIP3    H233974   4.665   2.016   0.282 -0.1669 -0.3058 -0.1087
 4139TIP3   OH233975   3.251   1.042   1.831 -0.3168  0.0506 -0.0668
 4139TIP3    H133976   3.188   0.970   1.831  0.2168 -0.5140  2.4399
 4139TIP3    H233977   3.241   1.083   1.917  1.4002  1.1674 -0.3372
 4140TIP3   OH233978   6.048   4.174   7.419 -0.3099 -0.4518 -0.0063
 4140TIP3    H133979   6.104   4.196   7.345  0.5390  1.8480  1.2236
 4140TIP3    H233980   6.099   4.110   7.469  0.0473 -0.3885 -0.2895
 4141TIP3   OH233981   0.735   1.664   3.201 -0.4327 -0.2905  0.3324
 4141TIP3    H133982   0.755   1.600   3.132 -0.0192  0.7061 -0.4897
 4141TIP3    H233983   0.787   1.740   3.179 -1.9527  0.8505  0.5069
 4142TIP3   OH233984   2.524   4.160   0.212 -0.0618  0.2335 -0.1461
 4142TIP3    H133985   2.476   4.105   0.150  2.2944 -0.0085 -1.9132
 4142TIP3    H233986   2.604   4.112   0.231  0.6008  1.6216  0.7895
 4143TIP3   OH233987   0.089   0.937   1.375 -0.1389 -0.3341 -0.4691
 4143TIP3    H133988   0.094   0.971   1.465  0.9198 -1.5894 -0.0171
 4143TIP3    H233989   0.181   0.929   1.348 -0.4409  1.1504 -2.1413
 4144TIP3   OH233990   4.400   6.064   7.415 -0.0706  0.0420  0.2959
 4144TIP3    H133991   4.468   6.088   7.352 -0.2393  0.0860  0.1293
 4144TIP3    H233992   4.331   6.128   7.401  1.2619  2.2628  2.8783
 4145TIP3   OH233993   2.010   2.467   8.537  0.1494 -0.5352  0.5278
 4145TIP3    H133994   1.932   2.520   8.550 -2.6018 -4.0628 -0.0631
 4145TIP3    H233995   2.067   2.488   8.611 -1.7406  1.4764  1.4984
 4146TIP3   OH233996   1.649   1.442   0.671 -0.0605  0.0561 -0.0096
 4146TIP3    H133997   1.599   1.425   0.591 -1.1492  0.3294  0.5913
 4146TIP3    H233998   1.739   1.455   0.641 -0.3689 -0.3009 -1.1384
 4147TIP3   OH233999   1.621   0.788   1.042 -0.3046 -0.0798 -0.3258
 4147TIP3    H134000   1.642   0.803   0.949  0.8404 -2.0825 -0.4477
 4147TIP3    H234001   1.696   0.739   1.075 -1.0472 -0.0409  1.4916
 4148TIP3   OH234002   5.853   0.138   8.592 -0.2334  0.1079 -0.1415
 4148TIP3    H134003   5.883   0.199   8.525  0.0333  2.3529  1.8985
 4148TIP3    H234004   5.931   0.120   8.645 -0.7558 -0.3997  0.4708
 4149TIP3   OH234005   4.254   6.376   2.618 -0.5529 -0.5110  0.6916
 4149TIP3    H134006   4.330   6.372   2.559  0.5690  0.5486  1.9863
 4149TIP3    H234007   4.268   6.303   2.679 -2.5268 -2.6064 -1.1648
 4150TIP3   OH234008   3.366   6.128   0.766  0.3231  0.1068 -0.6532
 4150TIP3    H134009   3.340   6.191   0.834  0.0855 -2.0139  1.3218
 4150TIP3    H234010   3.458   6.149   0.748  0.1467  1.2501 -0.3357
 4151TIP3   OH234011   1.763   5.535   0.955 -0.2467 -0.1193 -0.7964
 4151TIP3    H134012   1.796   5.610   0.904  0.5007 -1.0608 -1.7301
 4151TIP3    H234013   1.691   5.572   1.007  2.6213  2.2194  1.9159
 4152TIP3   OH234014   4.072   5.752   0.546 -0.1364  0.0104 -0.6819
 4152TIP3    H134015   4.143   5.706   0.591 -0.6519  0.1652  0.2958
 4152TIP3    H234016   4.116   5.800   0.476  1.0608  2.0340  1.3464
 4153TIP3   OH234017   4.437   6.075   2.405  0.3812 -0.0982  0.1307
 4153TIP3    H134018   4.498   6.092   2.477  0.8994  1.6453 -0.6865
 4153TIP3    H234019   4.358   6.041   2.449  0.9407  0.2291  1.4466
 4154TIP3   OH234020   1.253   0.139   7.418 -0.0111 -0.3775 -0.1092
 4154TIP3    H134021   1.160   0.163   7.416  0.5785  2.2464  0.2182
 4154TIP3    H234022   1.270   0.107   7.329 -0.5741  2.1540 -1.2149
 4155TIP3   OH234023   0.934   2.974   1.326  0.1570  0.1612 -0.3938
 4155TIP3    H134024   0.936   2.919   1.405 -0.1553  1.0277  0.2365
 4155TIP3    H234025   0.854   3.027   1.336 -0.3611 -0.3356 -1.7290
 4156TIP3   OH234026   4.961   3.902   7.779 -0.5573 -0.3684 -0.0386
 4156TIP3    H134027   4.979   3.990   7.814 -1.7411 -0.3593  0.5769
 4156TIP3    H234028   5.036   3.850   7.806 -0.8622 -0.0558  1.4776
 4157TIP3   OH234029   4.753   5.622   2.601  0.7841  0.2622  0.5129
 4157TIP3    H134030   4.739   5.715   2.622  0.5883  0.2302  0.5252
 4157TIP3    H234031   4.841   5.620   2.562  1.1942  0.3079  1.4036
 4158TIP3   OH234032   3.461   2.735   1.913  0.3141 -0.6900  0.1314
 4158TIP3    H134033   3.469   2.830   1.915  0.2334 -0.6840  0.1685
 4158TIP3    H234034   3.508   2.709   1.834  2.3009 -0.8112  1.2685
 4159TIP3   OH234035   0.690   2.616   0.344  0.3665 -0.5489  0.1396
 4159TIP3    H134036   0.658   2.607   0.434 -1.8761  0.9841 -0.4217
 4159TIP3    H234037   0.616   2.589   0.290  1.6801 -1.4281 -1.2706
 4160TIP3   OH234038   3.470   2.945   0.778 -0.1536  0.6867  0.0014
 4160TIP3    H134039   3.415   2.990   0.843 -0.0152  3.6250 -1.7187
 4160TIP3    H234040   3.532   3.012   0.750  2.7305 -1.8069  0.0346
 4161TIP3   OH234041   5.713   5.078   1.320  0.4284  0.3994 -0.1067
 4161TIP3    H134042   5.755   5.050   1.401 -0.1572  2.6533  1.0754
 4161TIP3    H234043   5.729   5.173   1.316 -0.1519  0.4694 -2.2902
 4162TIP3   OH234044   4.994   2.149   1.197 -0.1326 -0.3674  0.0409
 4162TIP3    H134045   4.943   2.222   1.232  1.3532  0.7052  0.0982
 4162TIP3    H234046   5.025   2.102   1.275 -0.6806 -0.7542  0.0217
 4163TIP3   OH234047   2.318   4.015   1.131  0.0547  0.3087  0.0054
 4163TIP3    H134048   2.297   3.982   1.044  0.4662  1.2515 -0.4743
 4163TIP3    H234049   2.338   4.108   1.117  0.0493  0.4964  1.1174
 4164TIP3   OH234050   5.240   3.533   1.394  0.4020  0.7771 -0.1783
 4164TIP3    H134051   5.240   3.610   1.451 -0.9372 -0.0537  1.0071
 4164TIP3    H234052   5.231   3.459   1.454 -1.2063 -0.1246 -1.4512
 4165TIP3   OH234053   4.902   6.227   2.803 -0.0130  0.5568 -0.1555
 4165TIP3    H134054   4.850   6.147   2.790 -0.4110  0.4396  1.8383
 4165TIP3    H234055   4.845   6.297   2.771  0.0736  0.1276 -1.3095
 4166TIP3   OH234056   2.091   2.209   1.491 -0.2683  0.2856  0.1784
 4166TIP3    H134057   2.107   2.276   1.424 -0.1966  1.0605  0.9527
 4166TIP3    H234058   2.162   2.146   1.480  0.2645  0.8886  0.1218
 4167TIP3   OH234059   0.093   0.476   0.493  0.5682 -0.0355 -0.3417
 4167TIP3    H134060   0.036   0.415   0.541  0.6874 -0.1906 -0.3961
 4167TIP3    H234061   0.125   0.537   0.559  0.0039  0.3079 -0.3818
 4168TIP3   OH234062   3.633   1.193   2.190 -0.1286  0.2229  0.4936
 4168TIP3    H134063   3.616   1.168   2.281 -1.0574  2.0619  0.8632
 4168TIP3    H234064   3.551   1.172   2.144  0.2729 -0.5199  0.0913
 4169TIP3   OH234065   4.619   6.157   2.603 -0.5191  0.6763  0.5268
 4169TIP3    H134066   4.631   6.233   2.660  0.7084  0.3979  0.6523
 4169TIP3    H234067   4.662   6.085   2.649  0.1437  0.3608 -0.5553
 4170TIP3   OH234068   1.826   1.639   0.407 -0.1734 -0.1824  0.2834
 4170TIP3    H134069   1.872   1.716   0.374 -2.9965  0.6845 -2.0623
 4170TIP3    H234070   1.858   1.567   0.353  0.3253 -0.0948  0.4609
 4171TIP3   OH234071   6.290   5.105   1.070  0.4523  0.3737 -0.3893
 4171TIP3    H134072   6.254   5.101   0.981 -0.0703 -2.3668 -0.1436
 4171TIP3    H234073   6.385   5.108   1.058  0.6074 -3.3219 -1.1781
 4172TIP3   OH234074   4.105   4.144   0.114  0.1596  0.1468  0.6702
 4172TIP3    H134075   4.075   4.164   0.202  2.4084  0.5979  1.3910
 4172TIP3    H234076   4.036   4.089   0.077 -1.6754  1.3944  2.0410
 4173TIP3   OH234077   5.999   4.460   7.906 -0.0477 -0.1981  0.1001
 4173TIP3    H134078   6.062   4.532   7.903 -1.7134  1.4432  1.3167
 4173TIP3    H234079   5.996   4.434   7.999  0.4579 -1.8084 -0.3076
 4174TIP3   OH234080   6.087   2.355   7.984 -0.4715 -0.1531 -0.0683
 4174TIP3    H134081   6.026   2.367   8.056  0.0280  0.0971  0.3169
 4174TIP3    H234082   6.105   2.261   7.983 -2.0201 -0.4928 -1.1515
 4175TIP3   OH234083   5.834   3.093   0.786  0.6546  0.0148  0.0587
 4175TIP3    H134084   5.792   3.007   0.783 -0.0774  0.3728 -0.0322
 4175TIP3    H234085   5.869   3.099   0.875 -1.5841  0.6841  0.9582
 4176TIP3   OH234086   6.044   2.219   0.776  0.1057  0.1087  0.1303
 4176TIP3    H134087   5.951   2.207   0.757  0.0006 -3.9817  2.0324
 4176TIP3    H234088   6.046   2.282   0.848 -1.4672 -1.3621  1.5414
 4177TIP3   OH234089   4.704   3.851   1.063 -0.1152  0.3401  0.1491
 4177TIP3    H134090   4.727   3.870   0.972 -0.2394 -0.3980 -0.0372
 4177TIP3    H234091   4.616   3.814   1.058  0.2235 -0.5335  0.4793
 4178TIP3   OH234092   6.314   1.903   1.637  0.4410  0.1511  0.1670
 4178TIP3    H134093   6.328   1.822   1.589 -0.8474  0.8609 -1.5252
 4178TIP3    H234094   6.219   1.913   1.639  0.5890  1.9129 -0.2076
 4179TIP3   OH234095   1.229   0.626   0.747 -0.3114  0.0928  0.6098
 4179TIP3    H134096   1.300   0.684   0.774 -0.8387  0.4720  1.2251
 4179TIP3    H234097   1.168   0.627   0.820 -1.0291 -0.1047  0.0290
 4180TIP3   OH234098   0.645   5.594   8.412  0.0861  0.3087  0.5967
 4180TIP3    H134099   0.693   5.600   8.330  0.2249  1.0495  0.7251
 4180TIP3    H234100   0.602   5.680   8.421 -0.2222  0.1065  1.1139
 4181TIP3   OH234101   5.636   4.280   2.470 -0.3551 -0.7124  0.1510
 4181TIP3    H134102   5.626   4.228   2.550 -1.4399 -0.1022  0.4302
 4181TIP3    H234103   5.730   4.279   2.453  0.1271  0.4089  2.3147
 4182TIP3   OH234104   0.864   6.302   2.313 -0.1077 -0.0713 -0.1465
 4182TIP3    H134105   0.904   6.257   2.388 -0.7182  0.1509  0.3208
 4182TIP3    H234106   0.910   6.386   2.309  0.3680 -0.3353 -0.4283
 4183TIP3   OH234107   4.853   5.464   1.920  0.6818  0.5762 -0.2207
 4183TIP3    H134108   4.856   5.441   1.827  1.2757 -1.4819  0.2574
 4183TIP3    H234109   4.774   5.518   1.928  1.8351  2.7534 -2.2627
 4184TIP3   OH234110   0.906   6.408   7.931 -0.0727 -0.3759  0.2653
 4184TIP3    H134111   0.829   6.390   7.985 -0.5368  1.7283  0.3815
 4184TIP3    H234112   0.978   6.365   7.976 -0.6660  0.2523  1.8605
 4185TIP3   OH234113   1.582   1.380   0.424  0.2121 -1.2531  0.5307
 4185TIP3    H134114   1.651   1.381   0.358  0.7572 -2.0411  1.0795
 4185TIP3    H234115   1.531   1.302   0.404 -1.3235 -0.0211 -0.6497
 4186TIP3   OH234116   3.984   5.981   2.194 -0.0086  0.3672  0.4469
 4186TIP3    H134117   3.927   6.046   2.153 -0.0289  1.3780  1.9923
 4186TIP3    H234118   4.034   5.943   2.121  0.4043  2.5052 -0.4676
 4187TIP3   OH234119   3.330   6.054   8.610 -0.9545  0.2957  0.1571
 4187TIP3    H134120   3.402   6.001   8.645  0.5262  2.6530  0.9220
 4187TIP3    H234121   3.327   6.032   8.517 -1.5383 -2.3215  0.7250
 4188TIP3   OH234122   5.627   1.500   0.859  0.7241  0.2004 -0.4475
 4188TIP3    H134123   5.558   1.466   0.916  1.6746 -0.3450  0.4120
 4188TIP3    H234124   5.630   1.438   0.787  1.1559 -0.4869  0.1496
 4189TIP3   OH234125   5.715   6.015   1.335  0.0541 -0.1237 -0.4226
 4189TIP3    H134126   5.762   6.097   1.317 -1.2100  1.0637  1.4010
 4189TIP3    H234127   5.718   6.007   1.430 -1.8123 -0.9901 -0.4124
 4190TIP3   OH234128   1.641   2.426   1.996  0.9131  0.4785  0.3078
 4190TIP3    H134129   1.693   2.408   1.918 -0.1541 -1.1576 -0.0769
 4190TIP3    H234130   1.626   2.340   2.036 -1.9904  0.7361  0.0266
 4191TIP3   OH234131   1.904   3.352   1.681  0.4192 -0.0918  0.2639
 4191TIP3    H134132   1.869   3.312   1.760 -0.6398  0.6131  0.1678
 4191TIP3    H234133   1.992   3.315   1.673  1.0080  0.6622  2.4010
 4192TIP3   OH234134   2.157   4.432   2.142  0.6081 -0.5056 -0.1552
 4192TIP3    H134135   2.232   4.449   2.199  0.9852 -2.3334 -0.0426
 4192TIP3    H234136   2.140   4.339   2.151 -0.0357 -0.6479 -2.1786
 4193TIP3   OH234137   1.109   2.660   1.687  0.2712 -0.6129 -0.5423
 4193TIP3    H134138   1.132   2.752   1.699 -0.1067 -0.7395  1.7949
 4193TIP3    H234139   1.190   2.618   1.660  0.9359  0.1340  0.2353
 4194TIP3   OH234140   5.020   6.127   0.516 -0.2321  0.0280  0.8899
 4194TIP3    H134141   4.958   6.082   0.459 -0.2546  0.2463  0.7389
 4194TIP3    H234142   5.083   6.060   0.542  1.0152  0.3617 -1.0829
 4195TIP3   OH234143   6.576   0.106   8.066 -0.1931  0.2961  0.2401
 4195TIP3    H134144   6.508   0.147   8.013 -0.8986 -0.0171  0.8780
 4195TIP3    H234145   6.573   0.152   8.150  0.6844  0.5703  0.1339
 4196TIP3   OH234146   5.314   4.226   2.949  0.7268  0.2462  0.2281
 4196TIP3    H134147   5.274   4.222   2.862 -0.5907 -0.8044  0.8369
 4196TIP3    H234148   5.247   4.267   3.004  0.4613 -1.4588  1.2610
 4197TIP3   OH234149   4.390   1.932   2.894 -0.4566  0.4186 -0.4884
 4197TIP3    H134150   4.361   2.022   2.882 -1.5368  0.0086 -1.1941
 4197TIP3    H234151   4.310   1.885   2.920  0.0819 -0.3371 -0.1551
 4198TIP3   OH234152   0.218   0.194   0.561  0.2673 -0.5724 -0.1147
 4198TIP3    H134153   0.311   0.185   0.540  0.4478 -0.7866  0.7151
 4198TIP3    H234154   0.214   0.268   0.621 -0.1741 -0.2054 -0.5918
 4199TIP3   OH234155   3.115   1.091   6.687 -0.3072  0.0319 -0.3270
 4199TIP3    H134156   3.190   1.064   6.740 -0.4955  1.0829  0.4973
 4199TIP3    H234157   3.080   1.168   6.731 -0.5630  0.8637 -1.8947
 4200TIP3   OH234158   1.213   3.060   0.352  0.4299  0.0548  0.1395
 4200TIP3    H134159   1.233   3.138   0.301  0.9171  1.0353  1.7611
 4200TIP3    H234160   1.172   3.000   0.289  2.6511  0.4510 -1.8275
 4201TIP3   OH234161   6.078   2.695   1.757  0.6301 -0.1646 -0.3567
 4201TIP3    H134162   5.994   2.652   1.773  1.1647 -1.2873 -0.5038
 4201TIP3    H234163   6.137   2.658   1.823  1.4173 -0.6094 -1.2853
 4202TIP3   OH234164   1.010   5.946   1.394 -0.1178  0.8102  0.0349
 4202TIP3    H134165   1.102   5.968   1.377  0.5413 -0.5707  1.5538
 4202TIP3    H234166   0.972   5.936   1.307  1.0995  1.6772 -0.6289
 4203TIP3   OH234167   6.280   3.358   0.801 -0.3195  0.0065 -0.3717
 4203TIP3    H134168   6.216   3.325   0.864  1.4231 -0.4417  1.2383
 4203TIP3    H234169   6.239   3.341   0.715 -2.4107 -0.0821  0.5775
 4204TIP3   OH234170   6.696   2.660   1.029  0.1121  0.0985 -0.0481
 4204TIP3    H134171   6.757   2.728   1.000 -2.2614  2.0404 -0.8745
 4204TIP3    H234172   6.695   2.597   0.956  0.8903  0.1976 -0.1537
 4205TIP3   OH234173   6.454   2.133   8.040 -0.2157  0.0773 -0.1314
 4205TIP3    H134174   6.372   2.134   8.090 -0.0378 -0.5189  0.1742
 4205TIP3    H234175   6.515   2.084   8.095 -0.2516 -1.3229 -1.2998
 4206TIP3   OH234176   3.779   1.363   1.048 -0.2564  0.2207  0.4111
 4206TIP3    H134177   3.824   1.280   1.036 -0.4152  0.3260 -1.2596
 4206TIP3    H234178   3.707   1.343   1.108 -0.5975 -0.9923 -0.3567
 4207TIP3   OH234179   5.341   3.351   2.170  0.1423  0.2749 -0.0061
 4207TIP3    H134180   5.280   3.420   2.196  1.3400  0.8804  1.3418
 4207TIP3    H234181   5.425   3.396   2.161  0.2850 -0.3708 -2.7246
 4208TIP3   OH234182   3.864   5.297   1.618 -0.2293 -0.1675  0.2957
 4208TIP3    H134183   3.871   5.386   1.653 -0.1770  0.1256 -0.4421
 4208TIP3    H234184   3.779   5.294   1.576 -0.4218 -0.6183  0.7047
 4209TIP3   OH234185   3.152   5.912   1.632 -0.4899  0.7327  0.5443
 4209TIP3    H134186   3.142   5.819   1.653  0.0460  0.6925  0.6477
 4209TIP3    H234187   3.082   5.955   1.680 -1.2052  0.3047 -0.0935
 4210TIP3   OH234188   2.338   4.771   8.802  0.1298  0.2585 -0.4602
 4210TIP3    H134189   2.244   4.753   8.810  0.2141  0.4898  1.2547
 4210TIP3    H234190   2.344   4.866   8.792  0.1375  0.1338 -1.9815
 4211TIP3   OH234191   1.301   0.321   2.486  0.2133 -0.3322 -0.4639
 4211TIP3    H134192   1.208   0.299   2.476  0.2175 -0.1873 -0.8236
 4211TIP3    H234193   1.301   0.407   2.529  0.1740 -0.1207 -0.8819
 4212TIP3   OH234194   6.189   5.028   0.802 -0.3728 -0.0109  0.0777
 4212TIP3    H134195   6.249   4.956   0.782 -0.8163  0.4446 -3.6240
 4212TIP3    H234196   6.230   5.105   0.763 -0.8125  1.4457  2.3230
 4213TIP3   OH234197   1.428   1.732   8.149  0.2257  0.0284 -0.6238
 4213TIP3    H134198   1.523   1.730   8.163  0.6035  2.3960 -2.0964
 4213TIP3    H234199   1.413   1.817   8.107 -2.7395  0.2759  0.7065
 4214TIP3   OH234200   4.057   5.047   2.631  0.1953 -0.6164 -0.4335
 4214TIP3    H134201   4.115   5.120   2.608 -0.3805 -0.2171 -0.6358
 4214TIP3    H234202   4.049   4.997   2.549 -0.1834 -0.3602 -0.5569
 4215TIP3   OH234203   2.222   2.929   8.022  0.1375  0.2521  0.5006
 4215TIP3    H134204   2.260   2.907   7.937  1.0052  0.6912  0.7709
 4215TIP3    H234205   2.164   2.855   8.041  0.1840 -0.0088 -0.3186
 4216TIP3   OH234206   3.167   0.371   1.068  0.2158  0.3830 -0.0163
 4216TIP3    H134207   3.157   0.394   1.161  0.5745  0.1583  0.0795
 4216TIP3    H234208   3.198   0.452   1.028 -0.5555  0.6704 -0.0629
 4217TIP3   OH234209   0.119   5.331   1.492  0.4338  0.4703 -0.0461
 4217TIP3    H134210   0.140   5.388   1.566  1.3334 -1.2224  1.0915
 4217TIP3    H234211   0.176   5.360   1.421  2.0557  0.0081  1.0224
 4218TIP3   OH234212   2.924   1.396   7.747 -0.6045 -0.1373  0.2075
 4218TIP3    H134213   2.867   1.431   7.679 -0.7382  2.3817  1.4744
 4218TIP3    H234214   2.867   1.341   7.800 -1.5340  1.1349  0.5839
 4219TIP3   OH234215   2.332   6.177   0.435  0.6055 -0.6823 -0.5904
 4219TIP3    H134216   2.272   6.199   0.506  2.7738  0.7675  0.8882
 4219TIP3    H234217   2.274   6.150   0.363 -1.8465  1.3173  0.4949
 4220TIP3   OH234218   0.088   1.158   2.684 -0.4451 -0.3396 -0.2179
 4220TIP3    H134219   0.029   1.146   2.759 -0.2139  1.8641  0.3857
 4220TIP3    H234220   0.157   1.214   2.718  0.4293 -0.4756 -1.7277
 4221TIP3   OH234221   5.701   1.885   1.915  0.5115 -0.3723 -0.2456
 4221TIP3    H134222   5.718   1.792   1.930 -1.3249 -0.4047  2.4772
 4221TIP3    H234223   5.628   1.887   1.853 -0.3583 -0.8538  0.7272
 4222TIP3   OH234224   4.896   1.912   8.300 -0.5482  0.7332  0.4870
 4222TIP3    H134225   4.895   1.962   8.381  0.3121 -0.4675  1.2721
 4222TIP3    H234226   4.903   1.821   8.328  0.4204  0.3349 -0.9435
 4223TIP3   OH234227   3.574   1.329   1.214  0.8376 -0.0951  0.1847
 4223TIP3    H134228   3.540   1.398   1.271 -1.9080 -0.9152 -0.2935
 4223TIP3    H234229   3.620   1.270   1.274  0.9844  0.8104  0.9958
 4224TIP3   OH234230   3.995   0.489   1.476  0.5208  0.5585  0.1888
 4224TIP3    H134231   4.058   0.556   1.503  2.5217 -1.7610  1.7598
 4224TIP3    H234232   4.049   0.420   1.437 -1.2495 -0.7800 -0.0196
 4225TIP3   OH234233   5.554   6.792   6.838 -0.2938  0.0339 -0.4036
 4225TIP3    H134234   5.505   6.718   6.874  1.5140 -0.9426  0.2067
 4225TIP3    H234235   5.534   6.865   6.896 -1.3234 -0.2165 -0.4229
 4226TIP3   OH234236   5.532   4.964   0.610  0.0825 -0.0779  0.5846
 4226TIP3    H134237   5.574   4.878   0.608 -0.7344 -0.5185  1.7481
 4226TIP3    H234238   5.452   4.951   0.661 -0.5195  1.1721  0.0065
 4227TIP3   OH234239   3.329   0.528   0.736  0.4127 -0.2369  0.1952
 4227TIP3    H134240   3.327   0.543   0.641  1.3760 -0.0066  0.2086
 4227TIP3    H234241   3.241   0.496   0.756  0.2345 -0.4066 -0.7933
 4228TIP3   OH234242   2.312   0.455   1.214  0.1362 -0.2725 -0.1969
 4228TIP3    H134243   2.221   0.484   1.225  0.3490 -0.1438  1.4909
 4228TIP3    H234244   2.364   0.534   1.230  0.5970 -0.7995  1.0257
 4229TIP3   OH234245   3.653   2.052   2.766  0.2347 -0.1841  0.1699
 4229TIP3    H134246   3.635   2.131   2.715  2.2390  1.5285  1.9002
 4229TIP3    H234247   3.567   2.017   2.788 -0.7156  1.4813 -0.7188
 4230TIP3   OH234248   4.168   1.292   0.198 -0.1104  0.0617 -0.0949
 4230TIP3    H134249   4.110   1.221   0.169  0.1661 -0.4725  0.6289
 4230TIP3    H234250   4.110   1.354   0.243 -0.5418  0.8892 -1.7152
 4231TIP3   OH234251   3.852   6.217   0.872  0.3170  0.6264 -0.6323
 4231TIP3    H134252   3.897   6.177   0.797  0.5330 -1.3285  0.4791
 4231TIP3    H234253   3.920   6.271   0.914  0.4910  0.8682 -1.2111
 4232TIP3   OH234254   6.749   1.536   1.957  0.1478  0.0271 -0.2007
 4232TIP3    H134255   6.720   1.550   2.047  0.9174 -0.4591  0.1277
 4232TIP3    H234256   6.844   1.545   1.960  0.3537 -1.7320 -0.6231
 4233TIP3   OH234257   2.947   3.282   2.525  0.7752 -0.3477 -0.3723
 4233TIP3    H134258   2.964   3.228   2.602 -1.3888  0.7935  1.0238
 4233TIP3    H234259   2.969   3.371   2.554  0.7971 -0.0163 -1.3860
 4234TIP3   OH234260   5.159   3.688   0.919  0.1593 -0.2444  0.0829
 4234TIP3    H134261   5.188   3.603   0.952  1.4979 -0.2014 -0.9244
 4234TIP3    H234262   5.175   3.749   0.991  0.3656 -0.6379  0.3718
 4235TIP3   OH234263   1.388   3.661   1.472  0.2387 -0.2118 -0.4073
 4235TIP3    H134264   1.467   3.644   1.421 -0.2889 -1.0484 -0.9624
 4235TIP3    H234265   1.325   3.693   1.408 -0.2914 -0.8519 -0.2121
 4236TIP3   OH234266   4.602   5.147   0.120  0.5944  0.1875 -0.4608
 4236TIP3    H134267   4.534   5.160   0.054 -0.8535 -1.2733  0.6389
 4236TIP3    H234268   4.684   5.171   0.077 -0.4038  0.1202 -2.4775
 4237TIP3   OH234269   3.094   0.515   7.472  0.1557 -0.1208 -0.6385
 4237TIP3    H134270   3.098   0.425   7.440  0.2589 -0.7149  0.9533
 4237TIP3    H234271   3.002   0.539   7.466 -0.0293 -0.6929 -0.1563
 4238TIP3   OH234272   6.590   5.311   7.999  0.1797 -0.2522  0.0870
 4238TIP3    H134273   6.528   5.302   7.926 -1.2594 -0.6391  1.3137
 4238TIP3    H234274   6.535   5.317   8.077  1.6651  0.8911  1.0994
 4239TIP3   OH234275   3.640   6.296   8.375 -0.4819  0.4322 -0.1016
 4239TIP3    H134276   3.678   6.379   8.405  0.9464 -0.0137 -0.5721
 4239TIP3    H234277   3.685   6.278   8.292 -0.8017 -0.7944 -0.0268
 4240TIP3   OH234278   4.279   5.249   7.107 -0.0664 -0.3391  0.3067
 4240TIP3    H134279   4.226   5.208   7.039  0.4612 -1.4602  0.5550
 4240TIP3    H234280   4.239   5.336   7.119 -2.1707 -1.3163  0.8375
 4241TIP3   OH234281   3.318   1.123   1.338 -0.3291 -0.1238  0.0739
 4241TIP3    H134282   3.244   1.074   1.375  0.0724 -0.8799 -0.1104
 4241TIP3    H234283   3.358   1.166   1.414 -0.6112 -0.1791  0.2565
 4242TIP3   OH234284   5.879   2.966   1.974  0.1571 -0.2271  0.3972
 4242TIP3    H134285   5.793   2.998   1.946 -0.4682 -1.1087  1.1865
 4242TIP3    H234286   5.935   2.974   1.897 -0.9572 -0.7274 -0.4905
 4243TIP3   OH234287   5.118   5.908   0.619  0.0857 -0.1477 -0.4924
 4243TIP3    H134288   5.124   5.842   0.549  0.3400 -0.3593 -0.2719
 4243TIP3    H234289   5.177   5.876   0.687 -0.2425  0.0034 -0.1326
 4244TIP3   OH234290   2.729   1.252   8.502 -0.1555 -0.0867  0.3857
 4244TIP3    H134291   2.815   1.211   8.489  0.4432  0.6065  1.9330
 4244TIP3    H234292   2.747   1.346   8.505 -0.7617  0.0170  1.9207
 4245TIP3   OH234293   5.343   3.854   2.103  0.0617 -0.3954  0.0338
 4245TIP3    H134294   5.399   3.827   2.029 -0.5250 -0.1691 -0.4981
 4245TIP3    H234295   5.258   3.814   2.084 -0.4141  0.6197 -0.0098
 4246TIP3   OH234296   5.738   6.014   2.286 -0.1445  0.0218  0.0292
 4246TIP3    H134297   5.695   5.930   2.304 -4.4081  1.8790 -0.2039
 4246TIP3    H234298   5.719   6.068   2.363 -1.4319  2.0440 -1.5949
 4247TIP3   OH234299   0.007   4.902   7.588  0.0708  0.1398  0.1228
 4247TIP3    H134300   0.057   4.983   7.583  0.8059 -0.2091  1.2641
 4247TIP3    H234301   0.063   4.836   7.547  0.1045 -0.0522  0.4658
 4248TIP3   OH234302   6.519   2.431   1.423 -0.4345  0.5899 -0.0109
 4248TIP3    H134303   6.573   2.456   1.348 -1.1599  1.8839 -0.1209
 4248TIP3    H234304   6.547   2.490   1.493 -0.3530 -0.0477  0.5021
 4249TIP3   OH234305   0.284   3.764   0.506 -0.3577  0.7221 -0.1249
 4249TIP3    H134306   0.379   3.769   0.518 -0.3792  0.3627  0.2224
 4249TIP3    H234307   0.251   3.847   0.540 -0.2542  0.4337  0.7091
 4250TIP3   OH234308   3.420   4.734   2.317 -0.2041 -0.1218 -0.4068
 4250TIP3    H134309   3.452   4.808   2.367 -1.3946  0.2854 -0.2118
 4250TIP3    H234310   3.491   4.712   2.258 -0.4426  2.3105 -1.7157
 4251TIP3   OH234311   2.580   4.371   0.515 -0.2538 -0.7395  0.6448
 4251TIP3    H134312   2.518   4.320   0.463 -1.0780  2.0182 -1.3392
 4251TIP3    H234313   2.533   4.390   0.596 -1.9427  0.8583 -0.6183
 4252TIP3   OH234314   0.574   1.424   8.220  0.1686 -0.0391 -0.3091
 4252TIP3    H134315   0.657   1.439   8.265  0.8691 -1.0520 -1.2120
 4252TIP3    H234316   0.578   1.332   8.193 -0.8504  0.1549 -1.1720
 4253TIP3   OH234317   2.039   2.917   2.222  0.6799 -0.1989  0.4058
 4253TIP3    H134318   1.985   2.859   2.276 -0.3872 -0.2527 -0.6848
 4253TIP3    H234319   2.080   2.860   2.158 -0.2272  0.2085 -0.5562
 4254TIP3   OH234320   5.377   6.456   0.352 -0.2327  0.4618 -0.1130
 4254TIP3    H134321   5.332   6.397   0.292  0.1854  0.0191  0.0011
 4254TIP3    H234322   5.315   6.527   0.367 -0.4497  0.4291 -0.8394
 4255TIP3   OH234323   1.401   4.751   7.580 -0.2350 -0.5318 -0.0726
 4255TIP3    H134324   1.413   4.686   7.510  0.7082  1.4056 -1.8419
 4255TIP3    H234325   1.317   4.792   7.560  0.2554  0.3480 -0.3635
 4256TIP3   OH234326   6.587   2.260   7.319  0.8281 -0.3518  0.2630
 4256TIP3    H134327   6.492   2.259   7.330  0.9111 -1.6764  1.1531
 4256TIP3    H234328   6.603   2.219   7.234  0.5216  2.3274 -1.1590
 4257TIP3   OH234329   5.863   5.410   2.231 -0.2587  0.1611 -0.2415
 4257TIP3    H134330   5.793   5.355   2.265 -0.9027  0.9122 -0.3076
 4257TIP3    H234331   5.836   5.499   2.254  1.6342  0.3811  1.5046
 4258TIP3   OH234332   1.503   1.408   1.808 -0.3379  0.0120 -0.3917
 4258TIP3    H134333   1.485   1.365   1.724 -1.4913  0.7612 -0.5504
 4258TIP3    H234334   1.483   1.341   1.873 -0.7074 -0.1702 -0.6844
 4259TIP3   OH234335   0.497   0.184   0.830 -0.4388  0.1078  0.2394
 4259TIP3    H134336   0.488   0.210   0.739 -0.3408 -0.1390  0.1598
 4259TIP3    H234337   0.518   0.091   0.827 -0.3896  0.1085  0.5109
 4260TIP3   OH234338   3.318   5.930   2.287 -0.0931 -0.2615  0.1185
 4260TIP3    H134339   3.376   6.006   2.280  1.9176 -1.7411 -0.4443
 4260TIP3    H234340   3.298   5.908   2.196 -2.0340  0.5194  0.3129
 4261TIP3   OH234341   3.115   5.272   2.864 -0.8619 -0.3880  0.5545
 4261TIP3    H134342   3.148   5.352   2.905 -2.0299 -0.3161  1.4173
 4261TIP3    H234343   3.093   5.299   2.775 -1.5544  0.3580  0.9328
 4262TIP3   OH234344   3.436   2.584   1.422  0.9087 -0.2112 -0.3040
 4262TIP3    H134345   3.388   2.554   1.345  0.4722  0.0876 -0.1575
 4262TIP3    H234346   3.426   2.513   1.486  3.0478 -1.4091 -1.2049
 4263TIP3   OH234347   2.589   2.686   8.213 -0.1382  0.1210  0.4354
 4263TIP3    H134348   2.557   2.653   8.129  0.8834  0.4756 -0.1065
 4263TIP3    H234349   2.662   2.628   8.235 -0.4447 -0.0152  1.1228
 4264TIP3   OH234350   2.122   5.275   1.247  0.0794  0.2109 -0.0026
 4264TIP3    H134351   2.206   5.312   1.275  0.4379  0.3159 -1.1859
 4264TIP3    H234352   2.137   5.245   1.158 -0.5009 -1.8243  0.5161
 4265TIP3   OH234353   5.536   1.324   8.851 -0.2748  0.2638 -0.4574
 4265TIP3    H134354   5.470   1.331   8.920  1.7465  1.1251  1.5010
 4265TIP3    H234355   5.572   1.236   8.861  0.9362  0.8402  0.5385
 4266TIP3   OH234356   2.925   5.185   8.510  0.7565 -0.0507 -0.9843
 4266TIP3    H134357   2.945   5.205   8.419 -1.3705 -0.5020 -1.6271
 4266TIP3    H234358   2.871   5.106   8.506  0.5717 -0.0546  0.6510
 4267TIP3   OH234359   5.905   1.822   8.816 -0.1088 -0.6996  1.1683
 4267TIP3    H134360   5.859   1.782   8.890 -1.8174 -0.9436  0.0397
 4267TIP3    H234361   5.874   1.913   8.816 -1.2014 -1.0423 -0.0161
 4268TIP3   OH234362   2.631   2.713   2.730 -0.0714  0.2167  0.9981
 4268TIP3    H134363   2.720   2.746   2.713  0.3198 -0.4374  1.7234
 4268TIP3    H234364   2.590   2.780   2.784  0.2072  0.2146  1.2133
 4269TIP3   OH234365   0.804   5.867   0.206 -0.2220  0.1844 -0.8121
 4269TIP3    H134366   0.793   5.784   0.253  1.0089 -0.1143 -1.0122
 4269TIP3    H234367   0.780   5.847   0.116 -3.0881  0.8859 -0.2803
 4270TIP3   OH234368   1.353   1.958   2.328  0.0998 -0.1931  0.8455
 4270TIP3    H134369   1.436   1.937   2.286  0.1065 -0.6816  1.0988
 4270TIP3    H234370   1.320   1.874   2.360 -1.5234 -0.3734 -1.1036
 4271TIP3   OH234371   3.839   4.424   7.887  0.1817  0.1656 -0.4927
 4271TIP3    H134372   3.797   4.488   7.945 -3.4954 -2.9826  0.7448
 4271TIP3    H234373   3.931   4.426   7.913 -0.4871  2.2237  2.1774
 4272TIP3   OH234374   2.160   3.088   6.750 -0.0003  0.0788  0.6860
 4272TIP3    H134375   2.162   3.135   6.667 -1.9609  1.4686  1.3434
 4272TIP3    H234376   2.083   3.032   6.745  0.7707 -1.0484  0.9810
 4273TIP3   OH234377   2.569   1.495   8.727  0.1262 -0.3674 -0.3848
 4273TIP3    H134378   2.655   1.498   8.683 -0.0098 -1.8474 -0.8019
 4273TIP3    H234379   2.507   1.475   8.656 -0.8155  2.2090 -0.3716
 4274TIP3   OH234380   2.079   6.162   7.887 -0.6983  0.1317  0.2051
 4274TIP3    H134381   2.161   6.188   7.930 -1.1587 -1.1468  2.0097
 4274TIP3    H234382   2.098   6.077   7.848 -0.6353  0.7333 -1.1053
 4275TIP3   OH234383   5.436   6.037   2.465 -0.1698  0.1849  0.2919
 4275TIP3    H134384   5.530   6.055   2.466  0.3421 -2.1295 -0.5100
 4275TIP3    H234385   5.422   5.976   2.538 -0.6301 -1.1456 -0.8645
 4276TIP3   OH234386   1.007   1.119   1.361 -0.1309  0.1297  0.4068
 4276TIP3    H134387   1.045   1.131   1.274  1.1557  0.1300  0.9541
 4276TIP3    H234388   0.985   1.026   1.365  0.3546  0.0049  0.2817
 4277TIP3   OH234389   6.577   2.069   7.107 -0.8108  0.6865 -0.4083
 4277TIP3    H134390   6.540   1.981   7.100 -0.3593  0.5051 -0.5440
 4277TIP3    H234391   6.672   2.055   7.107 -0.7138  0.9710  1.8430
 4278TIP3   OH234392   1.425   3.351   1.171  0.2740 -0.1172 -0.1693
 4278TIP3    H134393   1.334   3.329   1.188  0.3750  0.7967  1.8861
 4278TIP3    H234394   1.474   3.276   1.206  0.4082  1.0426  2.3654
 4279TIP3   OH234395   1.889   2.715   1.814 -0.2085  0.4426  0.5577
 4279TIP3    H134396   1.905   2.621   1.807  0.5006  0.6174 -0.3638
 4279TIP3    H234397   1.805   2.728   1.769 -0.7667  0.1482  1.4691
 4280TIP3   OH234398   0.414   4.182   2.643  0.1522  0.4088 -0.2320
 4280TIP3    H134399   0.466   4.156   2.567  0.8910  0.7360  0.1564
 4280TIP3    H234400   0.334   4.130   2.635  0.9492 -0.8488 -0.3087
 4281TIP3   OH234401   3.291   0.703   6.496 -0.1670  0.3067  0.1622
 4281TIP3    H134402   3.235   0.738   6.426  0.2403  1.0760  0.2027
 4281TIP3    H234403   3.249   0.732   6.577 -1.0671 -1.2472  0.2821
 4282TIP3   OH234404   1.546   6.365   7.357 -0.7646  0.4370  0.0279
 4282TIP3    H134405   1.472   6.310   7.381  0.1897 -0.2668  1.4724
 4282TIP3    H234406   1.535   6.444   7.410  0.5801 -0.5324  1.8747
 4283TIP3   OH234407   0.243   1.502   0.418 -0.2569  0.1733 -0.1669
 4283TIP3    H134408   0.195   1.456   0.486  0.1718 -0.1059 -0.0449
 4283TIP3    H234409   0.322   1.535   0.462 -0.1851  0.3595 -0.4278
 4284TIP3   OH234410   1.851   1.080   1.519 -0.0646  0.0260  0.2492
 4284TIP3    H134411   1.943   1.076   1.494  0.3297  4.3491  0.2514
 4284TIP3    H234412   1.806   1.115   1.442 -1.2915  0.1474  0.9928
 4285TIP3   OH234413   6.236   6.577   1.199  0.2045 -0.4056 -0.5246
 4285TIP3    H134414   6.191   6.597   1.117  0.6677 -0.0160 -0.6936
 4285TIP3    H234415   6.248   6.482   1.197 -1.0047 -0.5702 -0.2582
 4286TIP3   OH234416   3.517   1.611   0.600  0.4258 -0.1326 -0.4945
 4286TIP3    H134417   3.536   1.610   0.506  0.6777  0.1540 -0.4481
 4286TIP3    H234418   3.462   1.688   0.612  1.3224  0.4858 -0.2349
 4287TIP3   OH234419   5.584   4.296   2.982 -0.2234  0.2813  0.0377
 4287TIP3    H134420   5.576   4.391   2.968  1.5991  0.6397  1.1433
 4287TIP3    H234421   5.493   4.266   2.990 -0.8543  1.8960 -0.4715
 4288TIP3   OH234422   2.131   1.771   0.979 -0.0631  0.1491  0.1307
 4288TIP3    H134423   2.080   1.704   0.934  0.8021 -0.0654 -0.5368
 4288TIP3    H234424   2.206   1.725   1.016 -1.1801  0.1322  2.6248
 4289TIP3   OH234425   2.975   6.230   0.646  0.2492  0.6039  0.4986
 4289TIP3    H134426   2.955   6.286   0.722 -2.4275  0.8506 -0.2854
 4289TIP3    H234427   2.938   6.145   0.669  2.8985 -0.5083  1.0101
 4290TIP3   OH234428   5.273   2.044   1.033 -0.0820 -0.2058  0.3428
 4290TIP3    H134429   5.185   2.082   1.036  0.2010  0.5044 -0.0339
 4290TIP3    H234430   5.329   2.116   1.003  0.3468 -1.1294 -1.2084
 4291TIP3   OH234431   5.144   2.139   1.791  0.2045  0.1771  0.8399
 4291TIP3    H134432   5.079   2.208   1.776 -0.0209 -0.2781 -0.3985
 4291TIP3    H234433   5.092   2.059   1.798  0.4164  0.1741  2.8459
 4292TIP3   OH234434   6.450   3.554   0.710  0.0024 -0.4667 -0.1632
 4292TIP3    H134435   6.398   3.478   0.735  0.7733 -1.1110 -0.4500
 4292TIP3    H234436   6.426   3.622   0.773 -1.5093 -0.5925 -0.5760
 4293TIP3   OH234437   3.790   3.134   3.077  0.1425  0.4198 -0.1856
 4293TIP3    H134438   3.858   3.129   3.010  1.0026  1.4718  0.5827
 4293TIP3    H234439   3.752   3.046   3.079  2.0246 -0.4315 -0.0652
 4294TIP3   OH234440   4.307   2.242   1.118 -0.4686 -0.4899 -0.3787
 4294TIP3    H134441   4.390   2.197   1.102 -0.4170 -0.3301 -0.5784
 4294TIP3    H234442   4.274   2.262   1.030 -0.8478 -0.7834 -0.3035
 4295TIP3   OH234443   4.266   6.431   7.215 -0.0496 -0.2478 -0.0571
 4295TIP3    H134444   4.250   6.411   7.123 -2.8701 -0.2842  0.3465
 4295TIP3    H234445   4.313   6.515   7.213  3.4258 -2.0538 -1.5178
 4296TIP3   OH234446   5.838   0.132   7.791 -0.3847  0.1578  0.1021
 4296TIP3    H134447   5.919   0.099   7.751 -0.5372  0.8789 -0.8602
 4296TIP3    H234448   5.859   0.221   7.817 -0.7847  0.2543  0.1035
 4297TIP3   OH234449   1.736   4.618   8.265 -0.2169  0.4425  0.4591
 4297TIP3    H134450   1.689   4.535   8.264 -1.2589  0.9656  2.2976
 4297TIP3    H234451   1.783   4.618   8.349  2.5062  0.2904 -0.9479
 4298TIP3   OH234452   1.322   2.598   1.116 -0.0733 -0.2605  0.5326
 4298TIP3    H134453   1.288   2.587   1.204  0.5963  0.1901  0.8592
 4298TIP3    H234454   1.247   2.628   1.064 -0.4905 -0.6191  0.9262
 4299TIP3   OH234455   2.311   3.763   0.223  0.1440 -0.2220 -0.0452
 4299TIP3    H134456   2.354   3.793   0.304  1.4961 -0.6018 -0.6043
 4299TIP3    H234457   2.307   3.668   0.232  0.7682 -0.3123 -0.6381
 4300TIP3   OH234458   4.423   5.532   7.563  0.1461  0.3562  0.0832
 4300TIP3    H134459   4.469   5.553   7.644  0.6603 -1.3744  0.2753
 4300TIP3    H234460   4.330   5.534   7.587  0.1642  2.0555  0.1363
 4301TIP3   OH234461   0.614   2.748   7.819 -0.6381  0.3952  0.1196
 4301TIP3    H134462   0.584   2.838   7.803 -1.8568 -0.0512 -0.2236
 4301TIP3    H234463   0.678   2.732   7.749  0.1875  1.2586  0.6608
 4302TIP3   OH234464   4.232   6.025   1.366  0.0383  0.0660  0.2676
 4302TIP3    H134465   4.312   6.040   1.315 -0.2829 -0.3096 -0.3553
 4302TIP3    H234466   4.167   5.999   1.301 -0.5145  0.0879  0.8096
 4303TIP3   OH234467   5.883   6.308   8.276  0.9183  0.4204 -0.0143
 4303TIP3    H134468   5.917   6.230   8.320 -0.6522 -0.1093  0.3315
 4303TIP3    H234469   5.876   6.283   8.184  1.4355  0.5315 -0.0866
 4304TIP3   OH234470   2.661   4.999   0.535  1.5027 -0.2873 -0.0301
 4304TIP3    H134471   2.614   4.997   0.451  0.4817 -0.0129  0.5123
 4304TIP3    H234472   2.700   5.086   0.538  2.8116 -0.8094 -0.8658
 4305TIP3   OH234473   3.815   4.390   7.307  0.3920 -0.1503 -0.5744
 4305TIP3    H134474   3.783   4.428   7.225  0.4906 -1.7639 -1.3905
 4305TIP3    H234475   3.754   4.422   7.373  0.2811  1.1415 -1.2588
 4306TIP3   OH234476   0.898   2.183   8.779 -0.1112 -0.3529 -0.5003
 4306TIP3    H134477   0.943   2.263   8.754 -0.8145  0.5529  0.9977
 4306TIP3    H234478   0.968   2.121   8.800  0.4559  0.5055  0.2011
 4307TIP3   OH234479   5.844   5.448   8.299 -0.1296  0.3960 -0.4494
 4307TIP3    H134480   5.750   5.456   8.280 -0.7287 -0.0534  1.9815
 4307TIP3    H234481   5.880   5.402   8.223 -1.7581  1.0404 -1.6707
 4308TIP3   OH234482   0.985   5.382   0.406  0.5085 -0.2105  0.0555
 4308TIP3    H134483   1.014   5.322   0.475 -0.7753  0.0325  0.8612
 4308TIP3    H234484   0.934   5.327   0.346 -0.8709  0.0575  0.9217
 4309TIP3   OH234485   0.063   1.645   7.792  0.1794  0.0970  0.1338
 4309TIP3    H134486   0.004   1.721   7.791  0.5690  0.4700  1.7792
 4309TIP3    H234487   0.136   1.673   7.847  0.1414 -1.6038  1.1097
 4310TIP3   OH234488   3.399   3.230   2.277  0.0312 -0.3864  0.3257
 4310TIP3    H134489   3.356   3.225   2.191  0.9400 -0.2030 -0.1596
 4310TIP3    H234490   3.343   3.179   2.335 -1.1847  0.3955 -0.1245
 4311TIP3   OH234491   3.768   2.954   1.082  0.7448  0.1089 -0.4176
 4311TIP3    H134492   3.781   2.991   0.995 -0.2092  1.0228 -0.1929
 4311TIP3    H234493   3.678   2.920   1.081  0.4551  0.8119  0.4359
 4312TIP3   OH234494   5.210   5.970   0.264 -0.1543  0.0671  0.4570
 4312TIP3    H134495   5.236   5.940   0.177 -0.9896  0.4470  0.0622
 4312TIP3    H234496   5.128   5.922   0.281 -0.5673  0.8082  0.5699
 4313TIP3   OH234497   0.095   1.363   0.615  0.1566 -0.0676 -0.0416
 4313TIP3    H134498   0.144   1.345   0.696  1.5924 -2.8376 -1.3732
 4313TIP3    H234499   0.017   1.307   0.622 -0.2219  0.4397 -0.1582
 4314TIP3   OH234500   0.024   0.839   0.328  0.6302 -0.0347 -0.1154
 4314TIP3    H134501   0.044   0.897   0.401  0.2974  0.1295 -0.1546
 4314TIP3    H234502  -0.063   0.866   0.298  0.0816 -1.1359  0.4343
 4315TIP3   OH234503   4.340   5.421   3.078 -0.0686 -0.2474  0.0638
 4315TIP3    H134504   4.419   5.429   3.132  0.0565 -1.4087  0.0770
 4315TIP3    H234505   4.333   5.505   3.033  0.0707  0.5864  1.5506
 4316TIP3   OH234506   3.658   5.320   1.434 -0.0931 -0.3055  0.0185
 4316TIP3    H134507   3.605   5.385   1.480  2.7974  0.1875  3.0084
 4316TIP3    H234508   3.594   5.257   1.401 -2.6739  1.1892  1.7842
 4317TIP3   OH234509   1.088   4.878   6.592 -0.6688 -0.2597 -0.8414
 4317TIP3    H134510   1.120   4.847   6.508 -0.1333 -0.3517 -0.6093
 4317TIP3    H234511   1.146   4.837   6.657 -0.6405  0.3583 -0.4705
 4318TIP3   OH234512   5.532   4.371   0.086 -0.4654 -0.2914 -0.4192
 4318TIP3    H134513   5.603   4.389   0.024  1.8289 -1.5662  1.6310
 4318TIP3    H234514   5.550   4.428   0.160 -2.6405  0.5679 -0.4763
 4319TIP3   OH234515   0.653   5.486   1.954  0.1104  0.5098  0.4916
 4319TIP3    H134516   0.687   5.548   2.018  2.4897 -0.6886  0.5173
 4319TIP3    H234517   0.729   5.434   1.929 -1.0337 -0.0211 -2.2409
 4320TIP3   OH234518   0.536   4.042   0.582  0.2287  0.1566 -0.3077
 4320TIP3    H134519   0.483   4.114   0.548  0.8310  1.1817  0.8763
 4320TIP3    H234520   0.544   3.982   0.508  0.6930  1.8585 -1.7086
 4321TIP3   OH234521   4.876   3.404   2.593  0.3350  0.1975  0.3157
 4321TIP3    H134522   4.784   3.386   2.573  0.4647 -1.0379  0.7296
 4321TIP3    H234523   4.874   3.445   2.680  0.3025 -2.5188  1.7135
 4322TIP3   OH234524   6.480   1.001   8.637 -0.1911 -0.4008  0.0167
 4322TIP3    H134525   6.482   1.087   8.679  0.2191 -0.0631 -0.6769
 4322TIP3    H234526   6.412   1.008   8.570  0.0925 -0.4983 -0.2831
 4323TIP3   OH234527   3.011   2.120   0.561 -0.0282  0.0627 -0.1264
 4323TIP3    H134528   2.920   2.151   0.565 -0.1335  0.3998 -2.9390
 4323TIP3    H234529   3.006   2.039   0.510  1.1024 -0.8701  1.1653
 4324TIP3   OH234530   6.716   5.344   8.769  0.3610 -0.7102  0.3454
 4324TIP3    H134531   6.669   5.268   8.734  1.3836 -0.6885 -1.1635
 4324TIP3    H234532   6.687   5.417   8.713  1.5937 -0.5557 -0.1113
 4325TIP3   OH234533   4.908   5.939   8.519  0.0159  0.2120 -0.3199
 4325TIP3    H134534   4.999   5.942   8.549 -0.5466  0.9221  1.4485
 4325TIP3    H234535   4.909   5.981   8.433  1.0932  1.9816  0.4967
 4326TIP3   OH234536   5.854   1.513   7.164 -0.8409 -0.3520 -0.2160
 4326TIP3    H134537   5.913   1.452   7.209  1.8151  0.7496 -1.9035
 4326TIP3    H234538   5.800   1.551   7.233 -1.5692 -3.4200  1.0801
 4327TIP3   OH234539   6.057   1.108   0.930 -0.2648 -0.4469 -0.5017
 4327TIP3    H134540   6.032   1.160   0.854  0.2831 -2.5640 -2.2632
 4327TIP3    H234541   5.979   1.106   0.985 -0.5017  1.5764 -0.7101
 4328TIP3   OH234542   4.687   2.760   0.479 -0.0789  0.0402 -0.0799
 4328TIP3    H134543   4.699   2.666   0.488 -0.0784  0.0840  0.4123
 4328TIP3    H234544   4.680   2.775   0.385 -2.4693 -0.7230 -0.0633
 4329TIP3   OH234545   1.457   4.853   1.154  0.4982 -0.1770 -0.1124
 4329TIP3    H134546   1.549   4.826   1.161  1.1655  2.2654  2.6581
 4329TIP3    H234547   1.412   4.802   1.222  0.0788 -0.4098 -0.5629
 4330TIP3   OH234548   0.286   4.870   0.151  0.0824  0.5266 -0.0153
 4330TIP3    H134549   0.376   4.896   0.173 -0.2127  1.9064 -0.3116
 4330TIP3    H234550   0.244   4.854   0.235  0.6076 -0.1278  0.1246
 4331TIP3   OH234551   0.735   2.049   8.105  0.1682  0.0921 -0.0487
 4331TIP3    H134552   0.773   2.107   8.039  1.6513 -0.9269 -0.1329
 4331TIP3    H234553   0.678   2.106   8.157 -1.4261  0.8613 -2.4401
 4332TIP3   OH234554   4.024   4.596   7.574  0.2296 -0.1048  0.1039
 4332TIP3    H134555   3.936   4.627   7.553  0.6020 -0.0503 -1.5057
 4332TIP3    H234556   4.024   4.504   7.549  0.3391 -0.3853  1.0810
 4333TIP3   OH234557   0.670   5.851   0.941 -0.2130 -0.5260 -0.2306
 4333TIP3    H134558   0.754   5.879   0.977  0.4708 -1.4395 -1.0735
 4333TIP3    H234559   0.690   5.819   0.854 -1.6586  0.5426 -1.0158
 4334TIP3   OH234560   1.912   6.352   8.877  0.0272  0.0472  0.3037
 4334TIP3    H134561   1.896   6.435   8.831  0.2463 -0.1725 -0.1759
 4334TIP3    H234562   1.887   6.285   8.814  0.1205 -0.2587  0.5890
 4335TIP3   OH234563   1.664   5.589   1.554 -0.0920 -0.2920  0.1900
 4335TIP3    H134564   1.634   5.679   1.567  0.6880 -0.0674  0.4896
 4335TIP3    H234565   1.679   5.582   1.460 -1.5767 -0.5792 -0.0523
 4336TIP3   OH234566   3.045   4.799   0.939  0.2811  0.3073  0.2682
 4336TIP3    H134567   2.981   4.864   0.909 -0.6611 -0.7835 -0.2248
 4336TIP3    H234568   2.998   4.715   0.930  1.3793 -0.4134  1.0675
 4337TIP3   OH234569   6.627   1.674   0.012  0.0863  0.3375 -0.6521
 4337TIP3    H134570   6.633   1.594  -0.040  0.1846  1.5346 -2.5827
 4337TIP3    H234571   6.683   1.657   0.088  3.2957 -0.0772 -2.9014
 4338TIP3   OH234572   6.112   5.007   2.202  0.0548  0.6176 -0.2314
 4338TIP3    H134573   6.146   5.018   2.113  0.2004 -0.1128 -0.2710
 4338TIP3    H234574   6.134   4.917   2.225 -0.3091  0.6872  0.4076
 4339TIP3   OH234575   4.954   6.106   1.131  0.2079  0.1390 -0.4472
 4339TIP3    H134576   4.952   6.195   1.097 -1.2039 -0.2124 -1.3473
 4339TIP3    H234577   5.027   6.064   1.085  1.3649  0.9967  0.5268
 4340TIP3   OH234578   0.923   4.815   1.335 -0.0643  0.2161 -0.1992
 4340TIP3    H134579   0.845   4.871   1.333  0.8828  1.5989 -0.2035
 4340TIP3    H234580   0.988   4.862   1.282  0.6185 -1.1792 -0.6708
 4341TIP3   OH234581   0.591   2.217   0.180  0.1784  0.1762 -0.2970
 4341TIP3    H134582   0.499   2.209   0.205  0.5269 -1.0290  0.6704
 4341TIP3    H234583   0.611   2.136   0.134  0.9211  0.1561  0.0432
 4342TIP3   OH234584   4.554   6.193   0.774  0.2536 -0.5320  0.3151
 4342TIP3    H134585   4.565   6.250   0.698 -0.4721 -0.2290  0.4365
 4342TIP3    H234586   4.630   6.212   0.830  0.4272 -0.2645 -0.0095
 4343TIP3   OH234587   1.433   3.669   2.116  0.0190 -0.1938 -0.0887
 4343TIP3    H134588   1.426   3.762   2.138  0.5283 -0.0249 -0.6116
 4343TIP3    H234589   1.392   3.662   2.030  0.4296 -0.3601 -0.2735
 4344TIP3   OH234590   0.271   3.490   1.436 -0.6588 -0.1844  0.4173
 4344TIP3    H134591   0.227   3.506   1.519 -0.8279  1.0292  0.1154
 4344TIP3    H234592   0.246   3.401   1.412 -1.0947 -0.3262  1.3680
 4345TIP3   OH234593   3.691   1.537   2.607  0.2823  0.0025 -0.1743
 4345TIP3    H134594   3.758   1.507   2.546  3.2000  2.5445  1.4643
 4345TIP3    H234595   3.737   1.549   2.690 -1.7847  3.2937  0.7287
 4346TIP3   OH234596   1.426   0.320   0.785  0.3264 -0.0334  0.3414
 4346TIP3    H134597   1.413   0.358   0.872  1.3599 -0.8343  0.8670
 4346TIP3    H234598   1.343   0.334   0.740  0.4572  2.3025  0.7072
 4347TIP3   OH234599   4.991   3.359   1.874 -0.0973  0.5133 -0.0893
 4347TIP3    H134600   4.955   3.328   1.790  1.1467  0.1046 -0.4924
 4347TIP3    H234601   4.949   3.303   1.939  2.1876 -2.2427 -0.8116
 4348TIP3   OH234602   5.300   4.347   2.151  0.4540  0.9897  0.3053
 4348TIP3    H134603   5.371   4.394   2.195  1.0826  0.2125  0.1484
 4348TIP3    H234604   5.291   4.391   2.066  0.5313  1.2910  0.4532
 4349TIP3   OH234605   3.367   5.273   2.044 -0.2236  0.3646  0.3787
 4349TIP3    H134606   3.334   5.200   2.096 -1.2244  0.2216 -0.4413
 4349TIP3    H234607   3.307   5.345   2.061 -1.0726  0.0791 -1.1798
 4350TIP3   OH234608   5.612   4.698   0.868  0.2866  0.1570  0.0088
 4350TIP3    H134609   5.623   4.603   0.854  0.9998  0.2111  0.1709
 4350TIP3    H234610   5.642   4.737   0.786 -0.6950  0.2107 -0.3290
 4351TIP3   OH234611   1.027   2.796   1.156  0.4217 -0.2918  0.2214
 4351TIP3    H134612   1.014   2.863   1.223  1.5826 -0.8996  1.0847
 4351TIP3    H234613   1.001   2.714   1.198  0.4151 -0.5808 -0.3373
 4352TIP3   OH234614   3.459   3.764   8.522  0.1235  0.5324  0.4155
 4352TIP3    H134615   3.497   3.748   8.436  0.8334 -2.1501  1.1396
 4352TIP3    H234616   3.516   3.829   8.563  0.7947  0.5219 -0.4899
 4353TIP3   OH234617   3.041   1.594   7.505  0.5375  0.5719 -0.1257
 4353TIP3    H134618   3.038   1.670   7.448 -0.5667  0.2271 -0.5616
 4353TIP3    H234619   3.053   1.630   7.593 -1.4482  1.3876 -0.1327
 4354TIP3   OH234620   3.666   6.722   8.174  0.1648 -0.4699 -0.2143
 4354TIP3    H134621   3.579   6.687   8.156 -1.2485  3.1707 -1.4479
 4354TIP3    H234622   3.653   6.782   8.247  1.3260  1.0340 -1.1897
 4355TIP3   OH234623   3.187   0.373   8.262 -0.4478 -0.2054 -0.3885
 4355TIP3    H134624   3.274   0.347   8.234 -0.7420  0.4845 -2.0340
 4355TIP3    H234625   3.130   0.301   8.235 -0.6765  0.2871 -1.2521
 4356TIP3   OH234626   6.251   6.652   8.269  0.3972 -0.1047  0.1521
 4356TIP3    H134627   6.267   6.716   8.339 -0.6151 -0.5231  0.7841
 4356TIP3    H234628   6.171   6.607   8.296  1.7757 -2.5504  0.3646
 4357TIP3   OH234629   1.908   5.957   2.936  0.2579 -0.0145 -0.5858
 4357TIP3    H134630   1.949   6.005   3.008 -0.7716  1.4082 -0.9062
 4357TIP3    H234631   1.876   5.877   2.977  3.6462 -1.4567 -0.4155
 4358TIP3   OH234632   0.748   2.881   8.038 -0.0671 -0.0304 -0.4961
 4358TIP3    H134633   0.715   2.928   8.115  1.8325  0.1279  0.2925
 4358TIP3    H234634   0.698   2.916   7.965 -1.4050  0.3591  0.5674
 4359TIP3   OH234635   0.099   1.608   1.144  0.6907  0.2452 -0.6805
 4359TIP3    H134636   0.102   1.535   1.082 -1.4636 -1.2696  0.8339
 4359TIP3    H234637   0.131   1.571   1.226  1.3670  1.5798 -0.3124
 4360TIP3   OH234638   1.184   4.472   0.270  0.4834  0.1264  0.1237
 4360TIP3    H134639   1.149   4.530   0.202  0.2052  0.0534  0.2047
 4360TIP3    H234640   1.156   4.511   0.352  0.5450  0.0373  0.1875
 4361TIP3   OH234641   2.384   0.822   1.832  0.1811  0.4971  0.1829
 4361TIP3    H134642   2.404   0.831   1.926  1.6151  0.9214 -0.1481
 4361TIP3    H234643   2.294   0.855   1.825  0.4133  1.4532  1.2554
 4362TIP3   OH234644   5.727   2.241   0.803  0.1538 -0.6124  0.0167
 4362TIP3    H134645   5.762   2.168   0.752 -0.2238 -1.6384  1.1739
 4362TIP3    H234646   5.639   2.255   0.766  0.1586 -0.8641 -0.0957
 4363TIP3   OH234647   0.799   6.237   1.784  0.0018  0.1459  0.3658
 4363TIP3    H134648   0.871   6.187   1.745  0.1716 -0.4298  1.3821
 4363TIP3    H234649   0.722   6.183   1.769  0.2693 -0.7342  1.9526
 4364TIP3   OH234650   6.090   5.493   0.496  0.0483 -0.6710  0.5392
 4364TIP3    H134651   6.178   5.461   0.476  0.6675  0.9238  0.6051
 4364TIP3    H234652   6.104   5.575   0.543 -1.4632  0.7460 -1.3055
 4365TIP3   OH234653   4.438   1.849   7.599  0.0672  0.5665 -0.3108
 4365TIP3    H134654   4.531   1.868   7.607 -0.0958  0.8158  1.3801
 4365TIP3    H234655   4.395   1.917   7.650 -1.0462  0.4163 -1.0168
 4366TIP3   OH234656   1.445   2.683   8.805 -0.2448 -0.0748 -0.0795
 4366TIP3    H134657   1.403   2.638   8.732 -1.4269 -0.8834  1.0574
 4366TIP3    H234658   1.512   2.621   8.835 -2.0484 -1.3079  1.6554
 4367TIP3   OH234659   5.279   4.030   1.088 -0.0179  0.4408  0.0966
 4367TIP3    H134660   5.250   4.018   0.998  2.2841 -1.9940 -0.4410
 4367TIP3    H234661   5.321   4.116   1.089  1.7493 -0.3406 -1.7569
 4368TIP3   OH234662   1.689   1.888   6.961  0.1205 -0.0126 -0.1154
 4368TIP3    H134663   1.719   1.798   6.977 -2.0881 -0.5617  1.4013
 4368TIP3    H234664   1.769   1.941   6.963  1.4917 -1.9054 -1.1133
 4369TIP3   OH234665   5.062   3.730   2.589  0.4782  0.2012 -0.0846
 4369TIP3    H134666   4.973   3.737   2.624  0.6972 -1.0697  0.8109
 4369TIP3    H234667   5.076   3.635   2.580  1.5430  0.4098 -0.7432
 4370TIP3   OH234668   4.883   4.767   7.652  0.4067 -0.6691 -0.1874
 4370TIP3    H134669   4.906   4.709   7.580 -0.1191  1.1016 -1.8551
 4370TIP3    H234670   4.800   4.807   7.626  1.6478  2.2785 -0.0874
 4371TIP3   OH234671   5.064   4.196   1.017 -0.6742  0.1564 -0.1388
 4371TIP3    H134672   5.057   4.108   1.054 -1.2508  0.1094 -0.3425
 4371TIP3    H234673   5.010   4.192   0.937 -0.6175  0.6617 -0.2043
 4372TIP3   OH234674   0.168   1.243   1.470 -0.0319 -0.5923  0.5887
 4372TIP3    H134675   0.246   1.190   1.456  0.0130 -0.5167  0.5579
 4372TIP3    H234676   0.104   1.181   1.506 -0.3131 -0.9050 -0.4306
 4373TIP3   OH234677   6.725   5.271   0.367 -0.0432 -0.2066  0.3460
 4373TIP3    H134678   6.776   5.193   0.346  0.2960  0.1937 -0.3357
 4373TIP3    H234679   6.688   5.299   0.284 -2.4100 -1.1631  0.9814
 4374TIP3   OH234680   1.619   4.379   8.225 -0.0701 -0.3581 -0.1715
 4374TIP3    H134681   1.633   4.405   8.134 -2.2585  1.1865 -0.1452
 4374TIP3    H234682   1.576   4.294   8.220  0.3544 -0.5573 -0.5385
 4375TIP3   OH234683   0.079   0.041   1.735  0.5839 -0.4117  0.3353
 4375TIP3    H134684   0.058  -0.053   1.740  1.1328 -0.5217  0.6975
 4375TIP3    H234685   0.144   0.054   1.803  1.2189  0.0426 -0.3470
 4376TIP3   OH234686   3.105   4.514   7.194  0.4324  0.2946 -0.2575
 4376TIP3    H134687   3.154   4.593   7.215  1.6214 -1.0613  2.6373
 4376TIP3    H234688   3.018   4.527   7.232  0.1866  0.6984 -0.9436
 4377TIP3   OH234689   5.811   2.553   6.871  0.2059 -0.0258 -0.9702
 4377TIP3    H134690   5.794   2.514   6.956  0.8650 -2.1517 -1.7485
 4377TIP3    H234691   5.730   2.540   6.821 -0.0988  1.0022 -0.7581
 4378TIP3   OH234692   6.756   3.526   2.238  0.1505  0.2326  0.2663
 4378TIP3    H134693   6.710   3.477   2.170  0.3212  0.4044  0.0257
 4378TIP3    H234694   6.836   3.557   2.196  0.4874 -0.0621  0.6839
 4379TIP3   OH234695   1.005   2.702   8.683 -0.4658  0.5941  0.4845
 4379TIP3    H134696   1.027   2.610   8.693  0.9120  0.6655 -1.2870
 4379TIP3    H234697   1.090   2.746   8.675 -1.1074  1.5415 -2.0357
 4380TIP3   OH234698   1.089   3.504   6.545  0.1057 -0.2747  0.7664
 4380TIP3    H134699   1.134   3.571   6.598 -1.7385  0.2944  1.6798
 4380TIP3    H234700   1.160   3.448   6.513  1.5464  1.0818  1.4258
 4381TIP3   OH234701   5.110   0.642   0.484  0.3242 -0.0304  0.4303
 4381TIP3    H134702   5.029   0.596   0.461 -0.1649  1.0843 -0.1868
 4381TIP3    H234703   5.083   0.705   0.551  0.9333 -0.4617  1.0885
 4382TIP3   OH234704   6.122   3.178   0.016  0.1628  0.1695  0.0958
 4382TIP3    H134705   6.109   3.135   0.101  0.3279  0.2372  0.1565
 4382TIP3    H234706   6.176   3.255   0.036 -0.7000  0.7915  0.0918
 4383TIP3   OH234707   4.468   3.428   7.117 -0.4062 -0.1903  0.2414
 4383TIP3    H134708   4.523   3.451   7.192  0.2516 -2.7416  0.6350
 4383TIP3    H234709   4.391   3.386   7.156  0.5740 -2.8086 -0.4432
 4384TIP3   OH234710   4.215   1.631   0.847 -0.1515  0.0291 -0.6290
 4384TIP3    H134711   4.300   1.598   0.818  0.5562  0.3359  1.0010
 4384TIP3    H234712   4.157   1.619   0.771  0.7398 -2.3472 -1.0324
 4385TIP3   OH234713   4.192   6.757   7.514  0.3599 -0.1391 -0.3005
 4385TIP3    H134714   4.245   6.759   7.434 -0.6395 -0.0062 -0.9697
 4385TIP3    H234715   4.207   6.670   7.550  1.9328  0.2780  0.1544
 4386TIP3   OH234716   5.205   4.712   1.086 -0.1842 -0.4397 -0.2478
 4386TIP3    H134717   5.171   4.622   1.086  1.4494 -1.0851 -0.1107
 4386TIP3    H234718   5.293   4.705   1.121 -0.9018  1.6080  2.2695
 4387TIP3   OH234719   4.674   1.865   0.554 -0.6423  0.0316 -0.1056
 4387TIP3    H134720   4.646   1.924   0.624  0.1325  0.1680  0.0965
 4387TIP3    H234721   4.639   1.905   0.474  0.7944  1.3917 -0.1064
 4388TIP3   OH234722   5.709   5.026   2.488  0.0973  0.8260 -0.7353
 4388TIP3    H134723   5.801   5.054   2.484  0.5496 -0.4676 -0.1076
 4388TIP3    H234724   5.670   5.059   2.407  1.1309  1.3287 -1.0489
 4389TIP3   OH234725   5.872   3.629   7.622 -0.5876  0.0486  0.1354
 4389TIP3    H134726   5.962   3.649   7.648 -1.3404  1.2021  2.0447
 4389TIP3    H234727   5.838   3.575   7.693 -0.8245 -2.1938 -1.5692
 4390TIP3   OH234728   4.225   0.120   1.255  0.2799  0.5761 -0.1279
 4390TIP3    H134729   4.131   0.123   1.235  0.6273 -1.4072 -2.5191
 4390TIP3    H234730   4.234   0.175   1.333 -2.7913  1.1319 -0.0186
 4391TIP3   OH234731   1.601   4.170   8.770 -0.5925 -1.0604 -0.4521
 4391TIP3    H134732   1.648   4.241   8.727  1.1761 -1.7442  0.2203
 4391TIP3    H234733   1.534   4.143   8.707  2.0037 -2.1639 -2.9799
 4392TIP3   OH234734   5.066   6.362   7.656  0.0140  0.2097 -0.3087
 4392TIP3    H134735   4.973   6.352   7.676  0.1933  0.5462  0.7924
 4392TIP3    H234736   5.073   6.447   7.613 -0.2261  0.0257 -0.7166
 4393TIP3   OH234737   5.342   4.658   0.428 -0.2746 -0.5056  0.3206
 4393TIP3    H134738   5.284   4.638   0.354  1.4611 -2.2882 -0.6631
 4393TIP3    H234739   5.288   4.644   0.505 -1.8138  0.2290 -0.5844
 4394TIP3   OH234740   4.533   1.076   1.415 -0.4095 -0.4291  0.1948
 4394TIP3    H134741   4.488   0.992   1.407  0.3441 -0.7466 -1.1712
 4394TIP3    H234742   4.526   1.114   1.327  1.0481 -0.0232  0.2395
 4395TIP3   OH234743   4.353   5.028   2.130  0.1307 -0.7200  0.2061
 4395TIP3    H134744   4.426   5.039   2.191  0.3513 -3.1165  0.4951
 4395TIP3    H234745   4.393   5.038   2.043  0.2748  0.4763  0.4010
 4396TIP3   OH234746   5.593   2.594   8.468 -0.2232 -0.1177  0.0666
 4396TIP3    H134747   5.586   2.610   8.374  0.8867  2.1852  0.3145
 4396TIP3    H234748   5.685   2.574   8.483 -0.3708 -0.3711  0.6765
 4397TIP3   OH234749   0.825   3.423   1.416 -0.1065 -0.3968 -0.6224
 4397TIP3    H134750   0.754   3.441   1.355 -0.9105 -0.0031  0.4105
 4397TIP3    H234751   0.902   3.463   1.375  0.1799 -3.1173 -3.0802
 4398TIP3   OH234752   2.148   5.128   2.203  1.0510 -0.5194 -0.3732
 4398TIP3    H134753   2.108   5.142   2.289  0.2733 -0.1302 -0.7924
 4398TIP3    H234754   2.221   5.068   2.220  1.4810  0.2703  0.7099
 4399TIP3   OH234755   5.583   1.108   0.357  0.1747  0.3197 -0.4992
 4399TIP3    H134756   5.524   1.070   0.291  0.7566 -1.8662  0.1537
 4399TIP3    H234757   5.524   1.141   0.425 -0.3526  0.4425 -1.0047
 4400TIP3   OH234758   2.153   3.547   1.926  0.0242  0.3361 -0.1901
 4400TIP3    H134759   2.129   3.561   1.835  0.3519 -0.7937 -0.4674
 4400TIP3    H234760   2.071   3.555   1.975 -0.1156  1.1750 -0.5369
 4401TIP3   OH234761   4.920   5.616   7.469 -0.0112 -0.2691 -0.2240
 4401TIP3    H134762   4.923   5.615   7.373 -0.7201  1.7258 -0.3091
 4401TIP3    H234763   5.002   5.658   7.495 -0.0727 -0.2925  0.0072
 4402TIP3   OH234764   3.088   5.928   8.791 -0.1413 -0.2286 -0.8844
 4402TIP3    H134765   3.096   5.931   8.887  0.1815 -1.4627 -0.8568
 4402TIP3    H234766   3.083   5.834   8.770 -0.4415  0.0304 -2.0638
 4403TIP3   OH234767   1.946   4.593   1.010 -0.4588  0.0079 -0.6147
 4403TIP3    H134768   2.032   4.621   0.979  0.1704 -1.1321  0.0298
 4403TIP3    H234769   1.958   4.581   1.104 -1.2999 -0.2760 -0.5401
 4404TIP3   OH234770   0.951   0.214   8.844  0.3528  0.0922 -0.9116
 4404TIP3    H134771   0.948   0.290   8.902  0.2253 -0.3002 -0.3984
 4404TIP3    H234772   1.013   0.239   8.775  0.8873  0.3757 -0.3381
 4405TIP3   OH234773   4.710   2.940   1.862  0.1613  0.3826 -0.0797
 4405TIP3    H134774   4.764   2.923   1.785  0.2515  0.8911 -0.1348
 4405TIP3    H234775   4.639   2.877   1.857  2.1179 -2.1030  1.3640
 4406TIP3   OH234776   6.462   1.047   1.338 -0.2148  0.1109 -0.6870
 4406TIP3    H134777   6.408   1.053   1.259  0.3184 -0.0530 -1.0701
 4406TIP3    H234778   6.549   1.075   1.310  0.0413 -0.2031 -0.2213
 4407TIP3   OH234779   5.448   4.639   1.982  0.2589  0.0975  0.2256
 4407TIP3    H134780   5.406   4.654   2.066  0.9139  0.3757  0.5129
 4407TIP3    H234781   5.529   4.690   1.986  0.3550  0.0188 -0.5251
 4408TIP3   OH234782   0.337   0.605   1.244 -0.1815  0.9569 -0.0892
 4408TIP3    H134783   0.242   0.615   1.250 -0.2788  0.4991 -0.7802
 4408TIP3    H234784   0.369   0.625   1.332 -1.0362 -0.1841  0.5033
 4409TIP3   OH234785   1.793   5.078   2.098 -0.0321 -0.3802  0.4948
 4409TIP3    H134786   1.776   5.113   2.186 -0.3487  0.7360  0.0036
 4409TIP3    H234787   1.804   5.155   2.043  1.5864 -1.0582 -0.2002
 4410TIP3   OH234788   6.431   3.785   7.507 -0.4514 -0.4081 -0.6349
 4410TIP3    H134789   6.483   3.789   7.588 -2.4401 -0.0393  0.6959
 4410TIP3    H234790   6.391   3.698   7.509  1.1325 -1.2603 -2.3884
 4411TIP3   OH234791   0.011   3.250   1.358  0.0340  0.1450 -0.3213
 4411TIP3    H134792  -0.017   3.304   1.285  1.7194  0.2507 -0.9145
 4411TIP3    H234793  -0.055   3.265   1.426 -1.0401  0.7510 -1.4734
 4412TIP3   OH234794   2.151   3.528   0.472 -0.1197  0.2008  0.6975
 4412TIP3    H134795   2.076   3.567   0.428  0.9271  0.3387 -1.0406
 4412TIP3    H234796   2.207   3.496   0.402  1.1207 -0.5470  1.9654
 4413TIP3   OH234797   2.641   4.920   1.617  0.3596 -0.2715  1.1712
 4413TIP3    H134798   2.557   4.896   1.577  0.4912  0.8827  0.1283
 4413TIP3    H234799   2.645   4.868   1.697 -1.3220 -0.3963  1.2183
 4414TIP3   OH234800   1.069   3.411   0.573 -0.3710  0.1402  0.0422
 4414TIP3    H134801   1.156   3.446   0.592 -0.0602 -0.9757  0.7542
 4414TIP3    H234802   1.023   3.411   0.657 -0.1663 -1.6243  0.2050
 4415TIP3   OH234803   0.950   6.739   8.759 -0.3338  0.1209 -0.6447
 4415TIP3    H134804   1.032   6.713   8.801 -0.8730 -0.7699 -0.1445
 4415TIP3    H234805   0.924   6.819   8.804 -0.2059 -0.0894 -0.2015
 4416TIP3   OH234806   4.416   4.715   8.387 -0.8136 -0.6674 -0.2654
 4416TIP3    H134807   4.326   4.708   8.418 -0.4635 -0.3527  0.8941
 4416TIP3    H234808   4.415   4.679   8.299 -1.9777 -1.1101 -0.0798
 4417TIP3   OH234809   5.934   6.178   1.297  0.5527  0.1947  0.3841
 4417TIP3    H134810   5.913   6.228   1.218 -0.3906 -2.2302 -1.0225
 4417TIP3    H234811   6.026   6.153   1.286  0.5730  0.3037  0.3038
 4418TIP3   OH234812   5.635   1.035   8.864 -0.0685 -0.0151 -0.3908
 4418TIP3    H134813   5.702   0.968   8.876  0.2342  0.3226 -0.1553
 4418TIP3    H234814   5.638   1.056   8.770  0.9334  0.7810 -0.2037
 4419TIP3   OH234815   2.060   4.877   8.378 -0.1992 -0.0373 -0.7345
 4419TIP3    H134816   1.965   4.888   8.384 -0.4604 -1.8101 -1.1711
 4419TIP3    H234817   2.078   4.792   8.417  1.3274  0.5564 -0.0273
 4420TIP3   OH234818   2.608   5.047   0.275  0.4947 -0.2274  0.2597
 4420TIP3    H134819   2.641   5.084   0.193  0.0736 -0.0038  0.1855
 4420TIP3    H234820   2.533   5.102   0.297 -0.4133 -1.2889 -0.0752
 4421TIP3   OH234821   6.400   3.075   7.426  0.1850  0.6766  0.0710
 4421TIP3    H134822   6.382   3.168   7.418 -1.8315  0.3207 -0.0812
 4421TIP3    H234823   6.433   3.049   7.340  0.2705  1.1454 -0.0378
 4422TIP3   OH234824   4.716   5.094   1.989 -0.0855  0.0986 -0.0789
 4422TIP3    H134825   4.759   5.084   1.904 -1.0186  0.7563 -0.6511
 4422TIP3    H234826   4.786   5.084   2.053  0.5227 -1.0808 -0.8949
 4423TIP3   OH234827   4.274   5.207   7.633  0.1919  0.2391  0.1853
 4423TIP3    H134828   4.318   5.239   7.555  1.1519 -1.4776 -0.0289
 4423TIP3    H234829   4.188   5.248   7.631 -0.0534 -0.2616 -2.1518
 4424TIP3   OH234830   6.045   5.362   1.970 -0.1339  0.1307  0.6088
 4424TIP3    H134831   5.954   5.347   1.944 -0.6858  1.7437  1.4678
 4424TIP3    H234832   6.096   5.329   1.897 -1.4402  0.0105 -0.2902
 4425TIP3   OH234833   1.714   2.451   8.103  0.0875 -0.6327  0.0283
 4425TIP3    H134834   1.753   2.505   8.034 -1.1410  0.4496  0.1340
 4425TIP3    H234835   1.734   2.498   8.184 -0.1427 -0.8475  0.2094
 4426TIP3   OH234836   6.240   5.037   0.081 -0.2953 -0.2163  0.3458
 4426TIP3    H134837   6.250   4.992  -0.003 -0.4823  0.6630 -0.1711
 4426TIP3    H234838   6.238   4.968   0.146  0.4680 -0.8854 -0.3197
 4427TIP3   OH234839   2.576   3.843   1.182  0.4064 -0.1300  0.1671
 4427TIP3    H134840   2.536   3.760   1.207  1.2003 -0.4154  0.5341
 4427TIP3    H234841   2.502   3.900   1.161 -0.2126 -0.5061  1.2365
 4428TIP3   OH234842   3.774   3.524   0.409  0.7945  0.3615 -0.3271
 4428TIP3    H134843   3.733   3.508   0.494  1.4769 -0.2267 -0.0973
 4428TIP3    H234844   3.752   3.446   0.357  1.7428 -0.0366 -0.1486
 4429TIP3   OH234845   3.341   6.730   2.552 -0.0938  0.2064 -0.0337
 4429TIP3    H134846   3.366   6.816   2.585 -2.5336  1.0043 -0.0538
 4429TIP3    H234847   3.254   6.715   2.588 -0.0659 -1.9068 -0.7082
 4430TIP3   OH234848   5.054   5.529   2.126 -0.5060  0.0725  0.0046
 4430TIP3    H134849   5.047   5.620   2.153  1.9260  0.4091 -0.2729
 4430TIP3    H234850   4.972   5.511   2.080 -1.0198  2.1185  0.0424
 4431TIP3   OH234851   1.491   2.788   7.556  0.7229  0.2026 -0.5529
 4431TIP3    H134852   1.555   2.728   7.518 -0.5700  0.0761 -2.6802
 4431TIP3    H234853   1.409   2.767   7.512 -0.9639  0.0391  2.4186
 4432TIP3   OH234854   0.465   4.266   7.837 -0.8196  0.0351 -0.0399
 4432TIP3    H134855   0.491   4.254   7.928  0.5309  2.5743 -0.0280
 4432TIP3    H234856   0.387   4.321   7.841 -1.4543 -0.7992 -0.4230
 4433TIP3   OH234857   2.056   6.374   0.388  0.0593 -0.2933 -0.2639
 4433TIP3    H134858   2.114   6.433   0.436 -1.2338  1.2299 -0.5014
 4433TIP3    H234859   2.074   6.392   0.296 -1.5020  0.9862 -0.3535
 4434TIP3   OH234860   4.603   6.600   7.285  0.3575  0.4128  0.2174
 4434TIP3    H134861   4.677   6.660   7.286 -0.2702  1.2746 -1.1485
 4434TIP3    H234862   4.639   6.517   7.254  0.6011  1.0833 -1.3726
 4435TIP3   OH234863   2.085   5.320   1.758 -0.2479 -0.4680  0.1907
 4435TIP3    H134864   2.152   5.284   1.700  0.0359  1.5315 -0.8214
 4435TIP3    H234865   2.010   5.335   1.701 -0.8213 -0.6971  0.8701
 4436TIP3   OH234866   5.794   6.096   0.621  0.1557  0.3083 -0.2562
 4436TIP3    H134867   5.779   6.072   0.712  0.1264  0.4931 -0.2127
 4436TIP3    H234868   5.714   6.141   0.594  0.9444  2.0919  0.2433
 4437TIP3   OH234869   4.615   5.771   0.764  0.7838  0.7204 -0.0569
 4437TIP3    H134870   4.675   5.846   0.771  1.8757 -0.2348  1.5828
 4437TIP3    H234871   4.580   5.760   0.852 -1.1490  0.6870 -0.8001
 4438TIP3   OH234872   5.408   2.322   7.583  0.3574  0.4929 -0.2384
 4438TIP3    H134873   5.329   2.350   7.536 -0.6778  0.1187  1.2143
 4438TIP3    H234874   5.391   2.346   7.674  1.8327  0.1771  0.1428
 4439TIP3   OH234875   6.225   6.679   0.280 -0.3752  0.2057 -0.0228
 4439TIP3    H134876   6.140   6.716   0.257  0.3014  1.1527 -1.0990
 4439TIP3    H234877   6.269   6.748   0.330 -0.4014 -0.4548  0.9407
 4440TIP3   OH234878   4.311   6.169   2.788  0.3867  0.2817  0.2392
 4440TIP3    H134879   4.377   6.213   2.842  0.8783 -0.1486  0.0068
 4440TIP3    H234880   4.296   6.085   2.832  0.3727  0.1661  0.0161
 4441TIP3   OH234881   6.284   6.362   7.381  0.0807  0.3292 -0.5349
 4441TIP3    H134882   6.295   6.456   7.392 -0.4295  0.5582 -1.7867
 4441TIP3    H234883   6.219   6.354   7.310  0.8612 -0.9603 -1.1320
 4442TIP3   OH234884   2.352   4.952   2.272  0.2156 -0.0970  0.1488
 4442TIP3    H134885   2.375   4.890   2.203  0.3360 -0.7105  0.7317
 4442TIP3    H234886   2.435   4.970   2.316 -0.1571 -1.2487  1.3798
 4443TIP3   OH234887   5.820   2.473   0.898 -0.0179 -0.2185 -0.7253
 4443TIP3    H134888   5.820   2.474   0.994 -2.3545  2.2197 -0.6252
 4443TIP3    H234889   5.766   2.398   0.874 -1.1162  0.3374 -0.0371
 4444TIP3   OH234890   4.722   4.592   8.242  0.2397  0.4035 -0.2310
 4444TIP3    H134891   4.744   4.503   8.268 -0.7062  0.3817  0.5459
 4444TIP3    H234892   4.779   4.610   8.167 -2.0668 -2.2363 -2.9306
 4445TIP3   OH234893   2.777   2.562   2.309  0.5919  0.6661 -0.4143
 4445TIP3    H134894   2.800   2.469   2.309  1.1659  0.8004  0.2823
 4445TIP3    H234895   2.848   2.604   2.358 -0.2826  1.3157  0.3135
 4446TIP3   OH234896   2.558   5.666   0.133 -0.1935 -0.4229  0.0529
 4446TIP3    H134897   2.580   5.666   0.040 -2.7427 -0.1927 -0.6209
 4446TIP3    H234898   2.526   5.754   0.150 -1.3117 -0.9459  0.7210
 4447TIP3   OH234899   2.336   1.738   7.675 -0.5389  1.0011  0.1865
 4447TIP3    H134900   2.338   1.789   7.756  0.8206 -0.9632  1.4723
 4447TIP3    H234901   2.261   1.679   7.685 -0.2919  0.6657  0.0667
 4448TIP3   OH234902   4.960   2.717   7.831  0.0343 -0.2768  0.4308
 4448TIP3    H134903   4.967   2.702   7.737  2.1309 -1.8976  0.7666
 4448TIP3    H234904   4.867   2.710   7.851 -0.3005 -1.1575 -1.3325
 4449TIP3   OH234905   3.803   6.084   8.197  0.2201  0.4640  0.4058
 4449TIP3    H134906   3.861   6.098   8.123  1.2634  2.4552  1.5409
 4449TIP3    H234907   3.813   6.162   8.251 -1.7319 -0.2057  1.8445
 4450TIP3   OH234908   5.217   5.808   1.861  0.1152 -0.5910 -0.5378
 4450TIP3    H134909   5.243   5.882   1.916 -0.3692 -1.8291  1.4860
 4450TIP3    H234910   5.134   5.835   1.822  0.1388  0.0912 -0.1275
 4451TIP3   OH234911   5.020   5.804   2.165  0.4834 -0.3648  0.1206
 4451TIP3    H134912   5.080   5.867   2.206  0.4405 -0.1860 -0.0853
 4451TIP3    H234913   4.946   5.799   2.224 -0.3052  1.0865 -0.6714
 4452TIP3   OH234914   6.531   2.100   1.269  0.1895 -0.0074  0.5991
 4452TIP3    H134915   6.519   2.113   1.363 -0.3238  0.0353  0.5323
 4452TIP3    H234916   6.511   2.008   1.255 -3.1645  0.6839  0.0476
 4453TIP3   OH234917   2.894   3.853   8.214  0.5758 -0.4032 -0.3660
 4453TIP3    H134918   2.971   3.835   8.160  1.6739  0.1441  0.9512
 4453TIP3    H234919   2.895   3.784   8.280  1.4157  0.9759  1.1493
 4454TIP3   OH234920   4.536   1.217   1.186  0.5884  0.3025 -0.0651
 4454TIP3    H134921   4.572   1.224   1.097  2.7491 -0.5799  0.6741
 4454TIP3    H234922   4.500   1.304   1.204  0.3378  0.5648 -1.7104
 4455TIP3   OH234923   3.835   4.114   8.055  0.1923 -0.9398  0.0546
 4455TIP3    H134924   3.792   4.078   8.132 -0.4411 -1.0352 -0.3322
 4455TIP3    H234925   3.764   4.122   7.990  0.7035 -0.8123 -0.4933
 4456TIP3   OH234926   4.338   3.208   0.919  0.1147  0.2255  0.3933
 4456TIP3    H134927   4.358   3.279   0.858 -2.6126 -0.0930 -1.0374
 4456TIP3    H234928   4.285   3.248   0.987 -2.2968 -0.4650 -0.9456
 4457TIP3   OH234929   2.884   4.610   7.333  0.0442  0.0216  0.7079
 4457TIP3    H134930   2.844   4.639   7.416 -3.2691 -0.5248 -0.5265
 4457TIP3    H234931   2.886   4.689   7.279 -1.4745 -0.3666  0.0441
 4458TIP3   OH234932   5.804   5.340   1.179 -0.3081  0.1680 -0.1964
 4458TIP3    H134933   5.860   5.264   1.160 -1.9238 -0.7590 -1.5707
 4458TIP3    H234934   5.846   5.413   1.133  0.2504 -0.3191 -0.4718
 4459TIP3   OH234935   3.191   0.886   8.855 -0.0181  0.2207  0.0341
 4459TIP3    H134936   3.254   0.920   8.918  0.2213 -1.6110  0.8567
 4459TIP3    H234937   3.235   0.811   8.815 -1.3117 -0.5404 -0.0375
 4460TIP3   OH234938   4.772   6.060   2.120 -0.3224  0.2070  0.1898
 4460TIP3    H134939   4.736   6.147   2.106  1.0400  0.9853  1.2562
 4460TIP3    H234940   4.851   6.074   2.172  0.7102 -1.5411 -0.7793
 4461TIP3   OH234941   5.303   1.844   7.474  0.4586  0.0098 -0.2642
 4461TIP3    H134942   5.240   1.889   7.418 -0.3872  2.1133  2.2076
 4461TIP3    H234943   5.369   1.810   7.413 -1.6258  0.0236 -2.6890
 4462TIP3   OH234944   6.579   0.823   1.485  0.1229  0.3292 -0.0714
 4462TIP3    H134945   6.527   0.827   1.565 -0.7732 -2.0005 -0.4364
 4462TIP3    H234946   6.542   0.890   1.428 -1.9342 -0.6706  0.0246
 4463TIP3   OH234947   4.597   3.121   2.045 -0.4993 -0.1939 -0.0563
 4463TIP3    H134948   4.573   3.200   1.997 -1.5628 -1.2266 -1.2921
 4463TIP3    H234949   4.619   3.057   1.978  2.8195 -0.2991  0.9526
 4464TIP3   OH234950   6.659   1.352   1.259 -0.0060 -0.4663  0.1349
 4464TIP3    H134951   6.712   1.273   1.260  1.1742  0.2798 -0.3475
 4464TIP3    H234952   6.593   1.335   1.192  1.3567 -0.3955 -1.3051
 4465TIP3   OH234953   5.666   0.718   8.373 -0.1131  0.0926  0.6955
 4465TIP3    H134954   5.574   0.724   8.400  0.0284 -0.2175  1.2486
 4465TIP3    H234955   5.665   0.740   8.280 -0.9846 -1.5880  0.2661
 4466TIP3   OH234956   5.416   3.082   7.805 -0.3957 -0.2068  0.1284
 4466TIP3    H134957   5.341   3.106   7.752  0.5944 -0.6998 -1.5717
 4466TIP3    H234958   5.453   3.004   7.762  0.6392 -0.4341  1.3473
 4467TIP3   OH234959   1.651   4.546   7.629 -0.1347 -0.0993 -0.2821
 4467TIP3    H134960   1.604   4.559   7.546 -1.3945 -1.7593  0.1299
 4467TIP3    H234961   1.648   4.632   7.672  2.0682  1.3075 -2.6488
 4468TIP3   OH234962   0.740   4.265   0.581  0.1731 -0.6802 -0.3139
 4468TIP3    H134963   0.743   4.359   0.598  0.4706 -0.9173  1.0429
 4468TIP3    H234964   0.665   4.254   0.521  0.3241  0.4403 -0.7319
 4469TIP3   OH234965   6.130   2.139   0.515  0.8780 -0.4745 -0.6154
 4469TIP3    H134966   6.110   2.176   0.601  0.2578 -1.1105 -0.4767
 4469TIP3    H234967   6.222   2.115   0.521  0.8151 -0.6196 -0.0773
 4470TIP3   OH234968   0.280   2.722   3.086  0.2696  0.0014 -0.4996
 4470TIP3    H134969   0.264   2.658   3.017  0.0207  1.0731 -1.4598
 4470TIP3    H234970   0.230   2.690   3.161 -0.8834 -0.2514 -1.3625
 4471TIP3   OH234971   4.521   5.166   7.848 -0.3717  0.3990 -0.2363
 4471TIP3    H134972   4.574   5.093   7.819 -1.3472  0.0679 -1.2435
 4471TIP3    H234973   4.431   5.133   7.849 -0.7316  1.3273  0.1253
 4472TIP3   OH234974   0.083   0.464   2.185 -0.3561  0.5906  0.5879
 4472TIP3    H134975   0.142   0.532   2.154 -0.1898  0.5916  0.9038
 4472TIP3    H234976   0.047   0.425   2.105  0.9215 -0.1711  0.3581
 4473TIP3   OH234977   5.390   0.661   7.843 -0.2299 -0.1155 -0.3326
 4473TIP3    H134978   5.432   0.598   7.901  0.3482 -0.1068 -0.7391
 4473TIP3    H234979   5.428   0.645   7.757 -1.3335 -0.3675 -0.7949
 4474TIP3   OH234980   0.170   0.671   0.700  0.1513  0.3654 -0.2637
 4474TIP3    H134981   0.197   0.762   0.689 -0.7038  0.3539 -3.2091
 4474TIP3    H234982   0.089   0.676   0.751  1.2786  0.9884  1.5921
 4475TIP3   OH234983   2.011   0.209   8.065 -0.2705  0.3441 -0.6702
 4475TIP3    H134984   2.077   0.158   8.112 -1.2715 -0.1465  0.2503
 4475TIP3    H234985   1.978   0.149   7.998 -1.6766 -0.4176  0.6171
 4476TIP3   OH234986   5.905   2.755   0.800 -0.4777 -0.2309 -0.1777
 4476TIP3    H134987   5.826   2.806   0.819 -1.1812 -1.2048 -0.4187
 4476TIP3    H234988   5.900   2.680   0.860 -0.9849 -1.5539 -1.7945
 4477TIP3   OH234989   2.168   0.945   0.164 -0.1376 -0.4212 -0.3238
 4477TIP3    H134990   2.254   0.924   0.129 -0.1688  0.8171 -1.2151
 4477TIP3    H234991   2.106   0.915   0.098 -0.2568  0.8240 -0.8037
 4478TIP3   OH234992   3.538   4.954   6.967  0.4952 -0.0893 -0.2572
 4478TIP3    H134993   3.620   4.984   7.008  0.4024  0.6182 -0.5791
 4478TIP3    H234994   3.477   5.026   6.981  0.0622 -0.4169 -0.4480
 4479TIP3   OH234995   6.372   2.401   6.577  0.1016 -0.1926 -0.2002
 4479TIP3    H134996   6.393   2.469   6.641 -0.9903 -0.6521  0.6720
 4479TIP3    H234997   6.321   2.448   6.510  1.2350  0.2850 -0.7514
 4480TIP3   OH234998   2.901   3.481   1.659 -0.8661 -0.3935  0.1599
 4480TIP3    H134999   2.874   3.546   1.594 -1.5931  1.1894  1.9588
 4480TIP3    H235000   2.825   3.472   1.716 -0.0616 -1.3615  1.1212
 4481TIP3   OH235001   1.496   6.174   0.057 -0.2000 -0.0051 -0.0418
 4481TIP3    H135002   1.466   6.177   0.148  0.1813  0.3079  0.0765
 4481TIP3    H235003   1.415   6.184   0.005 -0.3401  0.5218  0.2717
 4482TIP3   OH235004   6.343   1.230   8.314 -0.2644  0.3903 -0.0697
 4482TIP3    H135005   6.322   1.158   8.373 -0.1433  1.2586  1.0518
 4482TIP3    H235006   6.418   1.274   8.355 -0.1110  0.9444 -0.9208
 4483TIP3   OH235007   2.734   4.825   2.440 -0.2892  0.2073 -0.1364
 4483TIP3    H135008   2.737   4.809   2.346  1.5702  0.5920 -0.1652
 4483TIP3    H235009   2.707   4.741   2.478 -0.3203 -0.1565 -0.9526
 4484TIP3   OH235010   2.082   2.777   7.277 -0.5471  0.3231 -0.5153
 4484TIP3    H135011   2.124   2.802   7.195 -2.2893 -2.0711 -2.2635
 4484TIP3    H235012   2.005   2.727   7.251 -2.1476  0.9414  2.5985
 4485TIP3   OH235013   5.877   1.497   8.318 -0.2696 -0.6327  0.1664
 4485TIP3    H135014   5.788   1.463   8.330  0.0507 -1.8508 -0.7419
 4485TIP3    H235015   5.933   1.434   8.364  0.1766 -0.1637  0.2730
 4486TIP3   OH235016   5.484   5.244   2.861  0.3506 -0.0602 -0.0069
 4486TIP3    H135017   5.475   5.270   2.953 -0.8127 -0.1008 -0.0848
 4486TIP3    H235018   5.393   5.234   2.831  0.6297 -3.9433 -0.0633
 4487TIP3   OH235019   0.816   2.593   0.077  0.0673 -0.3502  0.4832
 4487TIP3    H135020   0.757   2.621   0.148 -1.0985  0.1718 -0.6531
 4487TIP3    H235021   0.783   2.508   0.050  0.1923 -0.3200  0.2323
 4488TIP3   OH235022   0.479   3.334   7.514 -0.1358 -0.0489  0.7219
 4488TIP3    H135023   0.413   3.397   7.541  1.3533  1.2304  1.5164
 4488TIP3    H235024   0.535   3.322   7.591  0.6817 -0.9615  0.0255
 4489TIP3   OH235025   2.005   6.709   1.131 -0.3783  0.4208 -0.2931
 4489TIP3    H135026   1.993   6.694   1.224  0.6297 -0.0291 -0.2226
 4489TIP3    H235027   2.053   6.792   1.126  1.2512 -0.4876 -0.3032
 4490TIP3   OH235028   6.534   3.077   1.345 -0.9330 -0.3874  0.9628
 4490TIP3    H135029   6.589   3.021   1.291 -0.4694 -1.0034  2.0532
 4490TIP3    H235030   6.453   3.026   1.357 -2.5709  1.1840 -2.0483
 4491TIP3   OH235031   5.364   3.409   8.466 -0.3772  0.0098  0.7140
 4491TIP3    H135032   5.364   3.355   8.386  1.8484  0.4041  0.3848
 4491TIP3    H235033   5.315   3.357   8.529  0.7653 -1.9647  0.0853
 4492TIP3   OH235034   3.224   2.185   2.314  0.6702 -0.1668 -0.1496
 4492TIP3    H135035   3.272   2.206   2.395 -0.5748 -0.9953  0.8462
 4492TIP3    H235036   3.155   2.251   2.310 -0.3347 -1.1557  0.4283
 4493TIP3   OH235037   4.569   6.387   8.516 -0.0642 -0.1555 -0.0268
 4493TIP3    H135038   4.514   6.312   8.492  0.0466 -0.5013  0.7547
 4493TIP3    H235039   4.553   6.399   8.610  0.4517  0.3557  0.0013
 4494TIP3   OH235040   1.000   5.365   1.240  0.4311 -0.3291 -0.3174
 4494TIP3    H135041   0.935   5.434   1.254  1.0532  0.6333 -1.9446
 4494TIP3    H235042   1.082   5.412   1.223  1.1600 -1.4934 -0.1292
 4495TIP3   OH235043   5.644   0.938   1.278  0.6120 -0.5701 -0.0388
 4495TIP3    H135044   5.713   1.003   1.292  0.6253 -0.3917 -0.8817
 4495TIP3    H235045   5.569   0.988   1.249  0.7114 -0.9538 -0.9920
 4496TIP3   OH235046   3.586   4.355   2.324  0.2055 -0.0609 -0.2187
 4496TIP3    H135047   3.583   4.438   2.276  0.6978  0.6092  0.8548
 4496TIP3    H235048   3.619   4.292   2.260 -2.6701 -0.0702 -1.8519
 4497TIP3   OH235049   1.327   6.180   8.077  0.3958  0.2056 -0.2675
 4497TIP3    H135050   1.376   6.111   8.032 -0.2649  0.8991 -2.1615
 4497TIP3    H235051   1.392   6.248   8.095  0.8870 -0.5430  0.8809
 4498TIP3   OH235052   2.737   2.688   1.620  0.3281  0.1228 -0.4306
 4498TIP3    H135053   2.678   2.701   1.546  0.2171  0.1208 -0.3427
 4498TIP3    H235054   2.686   2.638   1.683  0.7493 -0.7657 -0.7657
 4499TIP3   OH235055   6.363   6.306   0.539  0.2293  0.1349 -0.4403
 4499TIP3    H135056   6.346   6.335   0.449  0.4912  1.9918  0.0849
 4499TIP3    H235057   6.324   6.373   0.594  1.9026  0.1156  0.8336
 4500TIP3   OH235058   2.265   3.581   1.596  0.2708 -0.1276 -0.3346
 4500TIP3    H135059   2.273   3.489   1.619 -1.1776  0.1860  1.6045
 4500TIP3    H235060   2.180   3.608   1.632 -0.1521  1.5436 -2.3715
 4501TIP3   OH235061   0.327   6.426   0.448  0.1783 -0.0933  0.6316
 4501TIP3    H135062   0.279   6.509   0.456 -0.9439 -0.5046 -1.2111
 4501TIP3    H235063   0.264   6.359   0.474 -0.1375 -0.6012 -1.2947
 4502TIP3   OH235064   4.549   4.625   8.703 -0.2309  0.1230 -0.4818
 4502TIP3    H135065   4.480   4.691   8.702 -2.6372 -2.2161  0.3323
 4502TIP3    H235066   4.534   4.572   8.625  0.3228 -0.7124 -0.0405
 4503TIP3   OH235067   6.368   2.136   1.502 -0.5916  0.0416  0.0308
 4503TIP3    H135068   6.383   2.210   1.562  1.0105 -0.1942 -0.0559
 4503TIP3    H235069   6.354   2.061   1.560 -2.2793  0.3840  0.1207
 4504TIP3   OH235070   5.492   1.419   6.801 -0.7320  0.6143 -0.3524
 4504TIP3    H135071   5.548   1.345   6.775 -1.3945 -0.1661  0.4091
 4504TIP3    H235072   5.554   1.489   6.821  0.1015 -0.6532  1.8520
 4505TIP3   OH235073   6.547   5.242   8.537 -0.4313  0.4268 -0.7741
 4505TIP3    H135074   6.502   5.162   8.510  0.8437 -0.2039 -1.1015
 4505TIP3    H235075   6.482   5.290   8.588 -1.1282 -0.9709 -0.3065
 4506TIP3   OH235076   1.732   1.970   1.617 -0.2686 -0.4507  0.0661
 4506TIP3    H135077   1.776   1.907   1.560  0.4655  0.7779 -0.7868
 4506TIP3    H235078   1.715   1.922   1.698  2.0658 -1.2108  0.1910
 4507TIP3   OH235079   6.344   0.716   0.825 -0.5525 -0.2290 -0.3758
 4507TIP3    H135080   6.248   0.710   0.821 -0.5547 -0.3881 -0.0254
 4507TIP3    H235081   6.366   0.706   0.917 -0.1462 -0.8780 -0.5372
 4508TIP3   OH235082   6.692   6.059   0.171 -0.1184  0.0236  0.0699
 4508TIP3    H135083   6.697   6.154   0.161 -1.0264  0.1644  0.8274
 4508TIP3    H235084   6.630   6.045   0.242  1.8270 -1.0716  1.6721
 4509TIP3   OH235085   1.251   3.548   6.919 -0.6798  0.1088 -0.2082
 4509TIP3    H135086   1.257   3.481   6.987  0.4297 -0.6436 -1.0136
 4509TIP3    H235087   1.286   3.506   6.840 -1.4025  1.1395 -1.1201
 4510TIP3   OH235088   2.926   4.651   1.634  0.5082 -0.1792  0.2070
 4510TIP3    H135089   2.935   4.694   1.548  0.6337  1.3171  0.9351
 4510TIP3    H235090   2.975   4.707   1.694 -1.4953  0.1155  1.6894
 4511TIP3   OH235091   6.327   1.475   0.404  0.4087 -0.6631  0.2672
 4511TIP3    H135092   6.325   1.411   0.475  1.0164  0.3354  1.2203
 4511TIP3    H235093   6.371   1.430   0.332  1.0404 -1.2419  0.9919
 4512TIP3   OH235094   3.210   4.680   8.262  0.7046 -0.5353  0.1398
 4512TIP3    H135095   3.305   4.696   8.263  1.0357 -2.2336 -0.1638
 4512TIP3    H235096   3.181   4.713   8.177  1.2740 -1.1925 -0.3199
 4513TIP3   OH235097   0.923   0.339   2.044  0.3348 -0.4199 -0.5267
 4513TIP3    H135098   0.854   0.326   2.109  0.2057 -0.9967 -0.7709
 4513TIP3    H235099   0.997   0.288   2.076 -0.1350 -1.7394 -1.4309
 4514TIP3   OH235100   0.996   4.043   0.772 -0.6518 -0.0936  0.1605
 4514TIP3    H135101   0.986   3.981   0.845 -1.6317 -0.5279 -0.3183
 4514TIP3    H235102   0.968   3.993   0.695  1.9978 -0.1981 -0.8053
 4515TIP3   OH235103   1.817   6.340   7.363 -0.2159  0.5075 -0.0457
 4515TIP3    H135104   1.722   6.326   7.367 -0.2004  0.1021 -0.8030
 4515TIP3    H235105   1.829   6.432   7.387 -0.8845  0.7862 -0.7325
 4516TIP3   OH235106   2.712   5.925   8.814  0.3958 -0.1707 -0.0258
 4516TIP3    H135107   2.773   5.997   8.796  1.6758 -0.6301  2.0752
 4516TIP3    H235108   2.769   5.850   8.832 -0.8432 -0.9825  0.6062
 4517TIP3   OH235109   5.424   4.953   2.013 -0.3396 -0.1805 -1.2479
 4517TIP3    H135110   5.341   4.949   1.967 -1.0503  1.6201 -0.2668
 4517TIP3    H235111   5.410   4.903   2.094 -0.7772  0.7836 -0.7064
 4518TIP3   OH235112   6.116   0.103   8.807  0.1816 -0.1781  0.5814
 4518TIP3    H135113   6.178   0.167   8.774 -0.3408  0.7608  1.3658
 4518TIP3    H235114   6.073   0.146   8.881 -2.5737 -0.1678 -0.8938
 4519TIP3   OH235115   1.422   6.448   8.099  0.0642  0.3828 -0.3412
 4519TIP3    H135116   1.515   6.444   8.074 -0.1891 -2.8088 -1.2873
 4519TIP3    H235117   1.424   6.442   8.195  0.8517  0.7730 -0.3217
 4520TIP3   OH235118   0.176   1.125   0.331 -0.5143 -0.3005 -0.1096
 4520TIP3    H135119   0.266   1.154   0.350 -0.2355  0.6124 -2.4328
 4520TIP3    H235120   0.137   1.110   0.417  1.7766 -0.4809  0.9837
 4521TIP3   OH235121   2.181   4.177   0.854 -0.6799  0.4169  0.5301
 4521TIP3    H135122   2.125   4.136   0.920 -1.1304  0.0709 -0.0600
 4521TIP3    H235123   2.130   4.173   0.773  0.5300 -0.6981 -0.2199
 4522TIP3   OH235124   4.707   0.758   0.624  0.2931 -0.4808 -0.0001
 4522TIP3    H135125   4.648   0.799   0.688 -2.5608 -0.8423 -2.2060
 4522TIP3    H235126   4.657   0.683   0.590  2.5248 -1.5158 -1.2242
 4523TIP3   OH235127   3.382   6.478   0.127 -0.5564  0.4056  0.1516
 4523TIP3    H135128   3.321   6.415   0.165  0.7807 -1.1380 -0.1335
 4523TIP3    H235129   3.430   6.513   0.203  0.9494 -1.4264  0.1350
 4524TIP3   OH235130   3.974   1.619   2.495 -0.0204 -0.0336  0.0610
 4524TIP3    H135131   3.937   1.603   2.581 -0.6697 -1.1415 -0.4037
 4524TIP3    H235132   4.066   1.594   2.503  0.3109  1.3081  0.8127
 4525TIP3   OH235133   3.885   5.780   2.358 -0.2564 -0.4140 -0.1237
 4525TIP3    H135134   3.918   5.859   2.314 -0.2234  0.2230  1.0170
 4525TIP3    H235135   3.810   5.810   2.409  1.2137 -0.5786  2.2946
 4526TIP3   OH235136   2.399   6.333   8.262  0.1327  0.2682 -0.3066
 4526TIP3    H135137   2.454   6.410   8.277  0.7822 -0.4227  1.0299
 4526TIP3    H235138   2.337   6.334   8.335  1.0176 -1.1947  0.5142
 4527TIP3   OH235139   0.549   4.687   7.816  0.0376 -0.6742  0.1814
 4527TIP3    H135140   0.457   4.702   7.838  0.2989  1.4627 -0.0135
 4527TIP3    H235141   0.550   4.682   7.721  0.3230  1.0665  0.0714
 4528TIP3   OH235142   0.910   0.383   0.576  1.2139  0.2122  0.4759
 4528TIP3    H135143   0.948   0.470   0.587  0.6163  0.3939  1.1413
 4528TIP3    H235144   0.848   0.393   0.504 -0.2149  0.8106  1.7349
 4529TIP3   OH235145   3.712   0.258   2.083  0.0835  0.3776 -0.4067
 4529TIP3    H135146   3.756   0.253   2.168 -0.9826  2.5660  0.3516
 4529TIP3    H235147   3.638   0.197   2.090 -0.3702  1.0134  0.5058
 4530TIP3   OH235148   0.642   5.907   2.019  0.3145  0.2174  0.7175
 4530TIP3    H135149   0.686   5.832   2.060 -1.1031 -0.6156  0.7622
 4530TIP3    H235150   0.677   5.983   2.065  0.5518 -0.5337  1.8077
 4531TIP3   OH235151   4.959   5.932   7.852  0.8760 -0.7473 -0.2813
 4531TIP3    H135152   4.917   6.013   7.881  1.0843 -0.3413 -1.0719
 4531TIP3    H235153   5.053   5.953   7.850  0.8470 -0.6516 -1.5175
 4532TIP3   OH235154   0.437   2.199   1.838  0.9654  0.0910  0.1025
 4532TIP3    H135155   0.396   2.131   1.892  0.0463  1.0552  0.6487
 4532TIP3    H235156   0.462   2.153   1.758 -1.0220 -0.6009 -0.1840
 4533TIP3   OH235157   3.982   0.864   0.385 -0.2502  0.4384 -0.0071
 4533TIP3    H135158   3.949   0.912   0.461 -1.6033 -1.9109  0.9902
 4533TIP3    H235159   3.904   0.843   0.334  0.3375 -0.4907 -0.5501
 4534TIP3   OH235160   0.133   5.420   8.113 -0.2316 -0.1045 -0.0126
 4534TIP3    H135161   0.159   5.342   8.161  0.0061 -0.4354 -0.6591
 4534TIP3    H235162   0.124   5.488   8.179  0.8279 -0.3548  0.3995
 4535TIP3   OH235163   5.333   5.866   1.516  0.5376 -0.5184 -0.2994
 4535TIP3    H135164   5.314   5.931   1.583 -0.2509  0.2884 -1.2709
 4535TIP3    H235165   5.292   5.786   1.548 -3.5006  0.7950 -1.5919
 4536TIP3   OH235166   1.564   6.266   1.689 -0.0007 -0.1642  0.1179
 4536TIP3    H135167   1.608   6.190   1.727 -0.4264 -0.6270 -0.2964
 4536TIP3    H235168   1.588   6.264   1.597 -1.8837 -1.1938 -0.4187
 4537TIP3   OH235169   4.743   5.474   8.393 -0.7052 -0.2751  0.1732
 4537TIP3    H135170   4.793   5.538   8.443 -0.9112  1.6576 -1.9530
 4537TIP3    H235171   4.799   5.396   8.391  0.8555  0.7964  0.4290
 4538TIP3   OH235172   5.677   3.959   1.277 -0.6268 -0.1719 -0.7465
 4538TIP3    H135173   5.741   3.891   1.254  0.2339  0.3655 -0.0295
 4538TIP3    H235174   5.707   4.036   1.229 -0.1498  0.3461  0.3482
 4539TIP3   OH235175   4.069   0.923   7.096 -0.1301 -0.0392  0.5862
 4539TIP3    H135176   4.147   0.940   7.043 -1.1628 -0.5721 -1.2018
 4539TIP3    H235177   4.037   1.010   7.119  0.8500  0.1873  1.1576
 4540TIP3   OH235178   3.430   0.560   8.220 -0.0127  0.0132 -0.3277
 4540TIP3    H135179   3.413   0.510   8.141  0.4147 -0.0540 -0.3835
 4540TIP3    H235180   3.522   0.588   8.211 -0.2145  0.7208 -0.2518
 4541TIP3   OH235181   3.775   5.556   1.708 -0.2538 -0.2589  0.4085
 4541TIP3    H135182   3.786   5.595   1.795 -3.1325  0.3495  0.5729
 4541TIP3    H235183   3.682   5.536   1.702 -0.5158  1.3256 -3.1841
 4542TIP3   OH235184   3.116   6.441   1.777  0.0677 -0.6502  0.4001
 4542TIP3    H135185   3.203   6.435   1.737  0.6342 -1.2422  1.6706
 4542TIP3    H235186   3.056   6.409   1.709  0.7097  0.7539 -0.8572
 4543TIP3   OH235187   1.798   4.646   7.998  0.3506  0.3607 -0.3700
 4543TIP3    H135188   1.765   4.642   8.088 -0.0398 -0.4670 -0.5465
 4543TIP3    H235189   1.751   4.577   7.952 -0.2797  1.4998 -1.4916
 4544TIP3   OH235190   3.282   4.262   8.674 -0.7679  0.3001 -0.0309
 4544TIP3    H135191   3.311   4.342   8.629 -1.5890  0.4401 -0.3198
 4544TIP3    H235192   3.198   4.285   8.712 -1.0838 -0.4764 -0.2464
 4545TIP3   OH235193   3.016   5.111   7.788  0.7408  0.3291 -0.3167
 4545TIP3    H135194   2.991   5.019   7.785  1.6692 -0.0249  1.3551
 4545TIP3    H235195   2.992   5.146   7.702 -0.5681 -1.2103 -0.6079
 4546TIP3   OH235196   3.249   3.825   2.914  0.2486 -0.2372  0.3427
 4546TIP3    H135197   3.334   3.831   2.872  0.5418 -0.5734  0.8742
 4546TIP3    H235198   3.209   3.911   2.900  0.9434  0.1406  0.6607
 4547TIP3   OH235199   6.764   3.367   0.744 -0.1073 -0.4509 -0.3978
 4547TIP3    H135200   6.722   3.328   0.667  1.1300 -3.5555  0.3381
 4547TIP3    H235201   6.849   3.396   0.713 -0.0062 -0.7755 -0.4304
 4548TIP3   OH235202   6.642   5.211   0.649  0.1163 -0.2250  0.3537
 4548TIP3    H135203   6.620   5.239   0.560 -0.3759 -3.7744 -0.8104
 4548TIP3    H235204   6.615   5.284   0.705 -0.6748  1.6415 -2.2935
 4549TIP3   OH235205   4.525   5.392   0.392 -0.2108  0.3840  0.1638
 4549TIP3    H135206   4.451   5.451   0.401 -1.2107 -1.0523  2.0341
 4549TIP3    H235207   4.567   5.392   0.478  1.0441 -0.0269 -0.4174
 4550TIP3   OH235208   5.688   3.655   1.020  0.1019 -0.1623  0.1599
 4550TIP3    H135209   5.727   3.714   1.084 -1.1410  0.3748  0.4440
 4550TIP3    H235210   5.625   3.603   1.069 -3.3491  2.5135 -1.0647
 4551TIP3   OH235211   3.103   1.753   8.380  0.2976 -0.2208  0.3673
 4551TIP3    H135212   3.178   1.799   8.342  1.3771 -1.4241  0.9796
 4551TIP3    H235213   3.130   1.732   8.469 -1.1116  0.0693  0.8906
 4552TIP3   OH235214   4.206   0.942   2.287 -0.8907  0.1632 -0.2796
 4552TIP3    H135215   4.187   1.008   2.221  0.3470  1.0821  0.2351
 4552TIP3    H235216   4.219   0.861   2.238  1.7609  1.1746 -1.4088
 4553TIP3   OH235217   1.028   4.763   0.352  0.3618 -0.7840 -0.1702
 4553TIP3    H135218   1.010   4.731   0.440 -0.6576 -0.4558 -0.2447
 4553TIP3    H235219   0.988   4.699   0.294 -0.1254 -0.3299 -0.3534
 4554TIP3   OH235220   2.344   4.529   2.344  0.6395 -0.0729  0.4134
 4554TIP3    H135221   2.285   4.499   2.413  0.9888 -2.9482 -0.3809
 4554TIP3    H235222   2.414   4.464   2.342 -0.1634 -1.0976 -3.5721
 4555TIP3   OH235223   6.782   5.562   0.645 -0.2369  0.4518  0.5772
 4555TIP3    H135224   6.876   5.561   0.629 -0.3175 -0.6442  0.0983
 4555TIP3    H235225   6.771   5.511   0.726 -0.4371  0.4321  0.5385
 4556TIP3   OH235226   4.776   1.136   0.014  0.0237 -0.1120  0.3582
 4556TIP3    H135227   4.764   1.228  -0.007 -0.1156  0.3850  2.4300
 4556TIP3    H235228   4.809   1.097  -0.068  0.0757  1.7437 -0.5583
 4557TIP3   OH235229   5.123   2.003   7.330  0.4890  0.2975 -0.0491
 4557TIP3    H135230   5.074   1.969   7.255  0.3270  0.0035  0.1881
 4557TIP3    H235231   5.198   2.047   7.291 -0.7256  2.0755 -0.4979
 4558TIP3   OH235232   3.310   6.075   8.313  0.6139 -0.6574  0.3592
 4558TIP3    H135233   3.255   6.088   8.235 -1.2166 -0.1027  1.6794
 4558TIP3    H235234   3.376   6.011   8.285  1.8131  1.6024 -2.4606
 4559TIP3   OH235235   6.543   0.051   1.562 -0.0094  0.2807  0.3545
 4559TIP3    H135236   6.628   0.016   1.538  1.0418  2.0712  1.3115
 4559TIP3    H235237   6.489   0.037   1.484  0.8564 -1.6668  0.0305
 4560TIP3   OH235238   6.408   0.541   2.195 -0.3685 -0.4172 -0.2544
 4560TIP3    H135239   6.462   0.466   2.169  0.9516  0.3200  0.2648
 4560TIP3    H235240   6.330   0.502   2.233  0.7093 -1.5794  0.8684
 4561TIP3   OH235241   3.561   3.442   0.083 -0.2284  0.1131 -0.2482
 4561TIP3    H135242   3.606   3.385   0.145 -1.5471 -0.2253  0.4474
 4561TIP3    H235243   3.630   3.480   0.029  0.8331 -0.6161  0.5763
 4562TIP3   OH235244   6.145   6.499   2.008  0.4054  0.1474  0.3571
 4562TIP3    H135245   6.238   6.520   2.011  1.1009 -2.1404 -1.8409
 4562TIP3    H235246   6.129   6.471   1.918 -1.5719 -2.9407  1.5162
 4563TIP3   OH235247   4.585   5.859   7.602 -0.4075 -0.1899 -0.2042
 4563TIP3    H135248   4.640   5.832   7.528  0.4684  0.9886 -0.0231
 4563TIP3    H235249   4.645   5.860   7.676 -0.5949  1.3190 -0.0372
 4564TIP3   OH235250   3.481   6.312   2.229  0.0561  0.2694  0.0161
 4564TIP3    H135251   3.455   6.245   2.293  1.8969 -0.5260 -0.0228
 4564TIP3    H235252   3.529   6.377   2.281  0.2295  0.4000 -0.3079
 4565TIP3   OH235253   5.705   5.311   1.915 -0.4816 -0.7763  0.5192
 4565TIP3    H135254   5.616   5.302   1.882 -0.2175 -1.3752 -0.0752
 4565TIP3    H235255   5.711   5.401   1.945 -1.0722 -0.5242 -0.0941
 4566TIP3   OH235256   6.027   0.943   0.157  0.5886 -0.1437  0.4129
 4566TIP3    H135257   6.079   0.912   0.232 -0.0774 -1.6844  0.2780
 4566TIP3    H235258   5.937   0.941   0.189  0.3505 -0.2710 -0.2629
 4567TIP3   OH235259   3.256   3.719   8.856 -0.4011  0.2383  0.1750
 4567TIP3    H135260   3.271   3.778   8.781  0.2660  0.4336  0.4498
 4567TIP3    H235261   3.303   3.639   8.833 -0.7094  0.0711  0.1192
 4568TIP3   OH235262   2.506   2.863   8.385 -0.3287 -0.8757  0.5198
 4568TIP3    H135263   2.529   2.802   8.315 -2.2606 -1.5414  0.3972
 4568TIP3    H235264   2.452   2.929   8.342 -1.4132 -1.2111  1.3218
 4569TIP3   OH235265   6.327   4.790   8.283 -0.0460  0.4772  0.2234
 4569TIP3    H135266   6.299   4.703   8.313  0.1706  0.5247  0.5658
 4569TIP3    H235267   6.269   4.809   8.210 -0.8917  0.5505  0.8909
 4570TIP3   OH235268   3.574   2.322   7.927 -0.9534 -0.6644  0.5445
 4570TIP3    H135269   3.612   2.367   7.852 -1.0922 -2.6138 -0.7618
 4570TIP3    H235270   3.541   2.392   7.983  0.3505  0.8965 -0.5432
 4571TIP3   OH235271   2.388   1.400   7.168  0.3861  0.6663  0.1542
 4571TIP3    H135272   2.481   1.395   7.189  0.4766  0.8589 -0.1977
 4571TIP3    H235273   2.385   1.411   7.073 -0.0593 -2.8602 -0.3762
 4572TIP3   OH235274   4.534   3.120   0.686 -0.5504 -0.2727  0.0154
 4572TIP3    H135275   4.544   3.025   0.688 -0.4310 -0.2569  1.1952
 4572TIP3    H235276   4.613   3.152   0.643 -0.8983 -0.7338 -0.9820
 4573TIP3   OH235277   4.618   3.297   2.567 -0.4316  0.0992  0.4415
 4573TIP3    H135278   4.621   3.231   2.636  1.1350 -0.3856 -0.0508
 4573TIP3    H235279   4.595   3.248   2.488 -0.1949  0.2889  0.2526
 4574TIP3   OH235280   6.332   1.540   0.910 -0.2745 -0.3607 -0.0170
 4574TIP3    H135281   6.386   1.615   0.932 -0.7319 -0.1446  0.3923
 4574TIP3    H235282   6.316   1.549   0.816  0.8004 -0.7035 -0.2412
 4575TIP3   OH235283   3.096   1.486   2.211 -0.1083 -0.2114  0.1941
 4575TIP3    H135284   3.063   1.576   2.204  1.1048  0.3525  1.2769
 4575TIP3    H235285   3.140   1.470   2.127 -0.1587  0.2704  0.0724
 4576TIP3   OH235286   3.963   3.436   8.199  0.0950 -0.2776  0.1829
 4576TIP3    H135287   3.974   3.397   8.285 -2.2329 -2.3176 -0.3604
 4576TIP3    H235288   3.905   3.510   8.214 -0.4848 -0.7607  0.3428
 4577TIP3   OH235289   1.715   2.649   2.609  0.2462 -0.0016  0.1544
 4577TIP3    H135290   1.708   2.627   2.702 -1.0345  0.9066  0.3044
 4577TIP3    H235291   1.658   2.586   2.565 -0.8331  0.8745  0.2400
 4578TIP3   OH235292   5.551   0.382   0.178 -0.2776 -0.5357  0.2361
 4578TIP3    H135293   5.491   0.322   0.135 -1.8009  1.0972 -0.0372
 4578TIP3    H235294   5.579   0.336   0.258 -1.8066 -1.3841  0.3076
 4579TIP3   OH235295   5.271   2.417   8.225 -0.2699 -0.2444  0.5195
 4579TIP3    H135296   5.228   2.359   8.162 -1.6236  1.0064  0.2589
 4579TIP3    H235297   5.361   2.385   8.228 -0.7121 -1.6909 -0.4081
 4580TIP3   OH235298   1.985   1.857   0.326 -0.4737  0.1459  0.3535
 4580TIP3    H135299   2.045   1.841   0.399 -0.4325 -1.5349 -0.0125
 4580TIP3    H235300   2.038   1.904   0.262 -0.0507  0.2049  0.7382
 4581TIP3   OH235301   0.448   4.944   8.746  0.0079 -0.5252  0.1480
 4581TIP3    H135302   0.538   4.925   8.719  0.3965  1.6011 -0.1780
 4581TIP3    H235303   0.426   5.026   8.701 -0.1435  2.0180  4.3497
 4582TIP3   OH235304   4.895   4.405   2.897 -0.3892  0.2985  0.0718
 4582TIP3    H135305   4.857   4.361   2.821  0.1390  0.1651 -0.1235
 4582TIP3    H235306   4.831   4.392   2.967  1.3107 -4.2103  1.1624
 4583TIP3   OH235307   2.193   0.106   0.419 -0.3948  0.1830 -0.4007
 4583TIP3    H135308   2.114   0.052   0.410 -0.8482  0.4789  1.3102
 4583TIP3    H235309   2.238   0.097   0.335 -0.9572 -2.0352 -0.5347
 4584TIP3   OH235310   0.473   2.378   8.781 -0.3034  0.2286 -0.2804
 4584TIP3    H135311   0.501   2.412   8.696 -0.5578  1.8199  0.2377
 4584TIP3    H235312   0.519   2.295   8.790  0.6309  0.5949 -1.4720
 4585TIP3   OH235313   0.207   5.162   1.011 -0.3390 -0.0694  0.3565
 4585TIP3    H135314   0.188   5.240   0.960  1.9809  0.9383  0.9356
 4585TIP3    H235315   0.147   5.167   1.085 -0.7852  0.7051 -0.0411
 4586TIP3   OH235316   5.704   1.969   7.984  0.2654  0.1537  0.2777
 4586TIP3    H135317   5.614   1.944   7.965  0.7386 -0.6899 -0.9974
 4586TIP3    H235318   5.729   2.025   7.910  1.2359 -0.8409 -0.1795
 4587TIP3   OH235319   4.056   4.550   2.537  0.0244  0.5160  0.0857
 4587TIP3    H135320   4.127   4.496   2.502 -0.5196  0.5866 -1.1960
 4587TIP3    H235321   4.029   4.505   2.617 -0.1125 -0.8858 -0.7028
 4588TIP3   OH235322   1.145   4.767   7.499  0.5813 -0.3038 -0.0866
 4588TIP3    H135323   1.069   4.714   7.523  0.4574 -0.5367 -0.9569
 4588TIP3    H235324   1.203   4.707   7.452  0.8704  0.1025 -0.2564
 4589TIP3   OH235325   1.343   4.155   1.083 -0.2573 -0.0367  0.3239
 4589TIP3    H135326   1.411   4.187   1.025 -0.6956  1.0878  0.4187
 4589TIP3    H235327   1.378   4.072   1.117  0.3392 -0.3081 -0.9069
 4590TIP3   OH235328   2.315   5.398   8.283 -0.0353 -0.2690  0.1320
 4590TIP3    H135329   2.351   5.446   8.208  1.4325  1.1451  1.6677
 4590TIP3    H235330   2.221   5.408   8.275  0.1730  1.5156 -0.5008
 4591TIP3   OH235331   4.240   1.017   2.551 -0.1142  0.3735  0.0306
 4591TIP3    H135332   4.241   1.113   2.557  1.3630  0.4955 -1.3427
 4591TIP3    H235333   4.227   0.999   2.458  1.5787 -0.6779 -0.0543
 4592TIP3   OH235334   5.670   4.979   0.247 -0.0971  0.2450  0.0220
 4592TIP3    H135335   5.737   4.917   0.273  0.5979  0.3397 -1.4560
 4592TIP3    H235336   5.590   4.947   0.289  0.4621 -1.0368  0.1486
 4593TIP3   OH235337   0.643   2.149   8.797 -0.1119  0.1589  0.3830
 4593TIP3    H135338   0.736   2.171   8.790 -0.0946 -0.0749 -0.1677
 4593TIP3    H235339   0.640   2.080   8.864  0.0328  0.6074  0.8554
 4594TIP3   OH235340   4.498   3.821   8.534  0.0817 -0.0858  0.3169
 4594TIP3    H135341   4.532   3.732   8.544 -0.2385 -0.1575  0.8124
 4594TIP3    H235342   4.508   3.841   8.441 -0.4956 -0.9049  0.0723
 4595TIP3   OH235343   6.091   4.484   1.629  0.7049  0.2915  0.4294
 4595TIP3    H135344   6.063   4.418   1.565  1.2048 -0.2917  0.8007
 4595TIP3    H235345   6.051   4.456   1.711  1.0282  0.3674  0.6168
 4596TIP3   OH235346   3.978   3.027   6.544 -0.1725  0.3180  0.0865
 4596TIP3    H135347   3.922   3.023   6.621  0.0600  0.8741  0.2865
 4596TIP3    H235348   4.001   2.936   6.527  2.0013  0.3508  2.3116
 4597TIP3   OH235349   2.018   4.469   0.023  0.4289 -0.0960 -0.2354
 4597TIP3    H135350   2.032   4.389   0.074 -0.5794 -0.4461 -0.4732
 4597TIP3    H235351   2.100   4.482  -0.024  0.2531 -1.6744 -1.0842
 4598TIP3   OH235352   3.771   5.261   8.620 -0.5367  0.3642  0.0117
 4598TIP3    H135353   3.830   5.331   8.592 -1.6142  1.4198  0.2730
 4598TIP3    H235354   3.820   5.180   8.605  0.7986  1.1792 -0.1643
 4599TIP3   OH235355   4.974   4.488   0.454 -0.7012 -0.1818 -0.3127
 4599TIP3    H135356   4.958   4.578   0.483 -2.2305 -0.3835 -0.4179
 4599TIP3    H235357   4.901   4.469   0.396 -1.4449 -2.1008  1.1465
 4600TIP3   OH235358   3.825   3.324   7.975 -0.5268  0.3631  0.2347
 4600TIP3    H135359   3.751   3.378   8.002 -1.2309 -0.4749  0.0384
 4600TIP3    H235360   3.887   3.329   8.048 -1.3193  0.0977  0.9405
 4601TIP3   OH235361   1.082   4.162   8.176 -0.3180  0.2121 -0.2743
 4601TIP3    H135362   1.067   4.136   8.267 -1.8545 -0.1603 -0.6017
 4601TIP3    H235363   1.169   4.200   8.176 -0.0458 -0.3368  1.2354
 4602TIP3   OH235364   4.134   2.930   8.678 -0.1635 -0.0040  0.1599
 4602TIP3    H135365   4.066   2.996   8.664 -0.9153 -0.5607  1.0151
 4602TIP3    H235366   4.192   2.939   8.603 -0.6929  1.0867 -0.1422
 4603TIP3   OH235367   2.045   0.490   1.020 -0.3229  0.1478  0.1615
 4603TIP3    H135368   1.986   0.476   0.946 -0.4981 -1.6134  0.6032
 4603TIP3    H235369   2.132   0.498   0.980 -0.3785 -1.0855 -0.2268
 4604TIP3   OH235370   4.991   3.985   2.462  0.0674  0.0238 -0.3055
 4604TIP3    H135371   5.028   3.907   2.503  0.5988  0.7909  0.7567
 4604TIP3    H235372   4.896   3.972   2.466  0.0933  0.0706  1.2571
 4605TIP3   OH235373   3.304   4.666   7.892  0.6671  0.1499 -0.3544
 4605TIP3    H135374   3.372   4.610   7.927  1.3662  0.9997 -0.2995
 4605TIP3    H235375   3.265   4.709   7.968 -0.0176 -0.4244 -0.3762
 4606TIP3   OH235376   0.801   3.987   8.168  0.4997 -0.0652  0.1202
 4606TIP3    H135377   0.769   4.072   8.136 -1.4890 -0.2811  1.3297
 4606TIP3    H235378   0.781   3.988   8.262  0.5101 -1.8459  0.1711
 4607TIP3   OH235379   3.657   3.421   1.654  0.8424 -0.1873  0.1557
 4607TIP3    H135380   3.694   3.494   1.605  0.7823 -0.7441 -0.7521
 4607TIP3    H235381   3.719   3.406   1.726  1.4623 -0.0005 -0.3299
 4608TIP3   OH235382   1.770   5.107   8.102 -0.5569 -0.1733 -0.2594
 4608TIP3    H135383   1.736   5.140   8.019 -0.9586  1.2975  0.4487
 4608TIP3    H235384   1.854   5.067   8.079 -0.0939  1.2584 -1.2229
 4609TIP3   OH235385   1.246   2.347   0.030  0.2308  0.0247  0.0553
 4609TIP3    H135386   1.316   2.369  -0.031  0.3997  0.3163  0.3495
 4609TIP3    H235387   1.181   2.416   0.018 -0.4708 -0.7760 -0.9201
 4610TIP3   OH235388   4.679   3.013   7.124 -0.0966  0.5609 -0.0064
 4610TIP3    H135389   4.656   3.093   7.077  1.0803 -0.3327 -2.2235
 4610TIP3    H235390   4.618   2.947   7.092  1.6326 -0.4098 -1.5217
 4611TIP3   OH235391   5.078   1.524   1.023 -0.1708  0.4945 -0.5377
 4611TIP3    H135392   5.089   1.601   1.078 -0.4779 -0.3672  0.7659
 4611TIP3    H235393   5.096   1.555   0.934 -1.8170  2.4383 -0.2627
 4612TIP3   OH235394   3.975   1.270   8.697 -0.3080 -0.1082  0.2366
 4612TIP3    H135395   3.887   1.282   8.662 -0.3737 -0.5103  0.2689
 4612TIP3    H235396   4.025   1.344   8.661 -0.2064 -0.8650 -1.2339
 4613TIP3   OH235397   0.410   2.636   2.784 -0.0331 -0.4037 -0.5310
 4613TIP3    H135398   0.369   2.573   2.843 -1.4028  2.1155  1.4465
 4613TIP3    H235399   0.353   2.637   2.707 -2.1940  0.9347  0.9625
 4614TIP3   OH235400   6.462   0.946   7.788 -0.2240  0.2957 -0.5122
 4614TIP3    H135401   6.491   0.864   7.747 -0.1296 -0.0187  0.1673
 4614TIP3    H235402   6.437   1.002   7.715 -0.2208 -0.3157 -0.9885
 4615TIP3   OH235403   3.693   0.919   1.622  0.3166  0.5030 -1.0144
 4615TIP3    H135404   3.732   0.863   1.689 -1.1982 -0.8674 -1.2202
 4615TIP3    H235405   3.666   0.998   1.669  2.5794  1.2010 -0.7425
 4616TIP3   OH235406   0.555   6.612   8.417  0.8118  0.4417 -0.0052
 4616TIP3    H135407   0.483   6.654   8.370  1.7192  0.2603 -1.6272
 4616TIP3    H235408   0.545   6.519   8.398  1.2882  0.3857  0.0010
 4617TIP3   OH235409   2.313   6.689   1.630 -0.1149 -0.5371 -0.0955
 4617TIP3    H135410   2.318   6.780   1.659  0.4059 -0.6834  0.2953
 4617TIP3    H235411   2.405   6.663   1.619 -0.1456 -1.6398  1.8041
 4618TIP3   OH235412   4.250   0.891   2.882 -0.0388 -0.2389 -0.4917
 4618TIP3    H135413   4.223   0.799   2.881 -1.7391  0.1947  0.7478
 4618TIP3    H235414   4.294   0.902   2.966  0.7281 -0.0375 -0.9047
 4619TIP3   OH235415   3.895   6.447   1.772  0.7088 -0.5470 -0.0436
 4619TIP3    H135416   3.963   6.485   1.829  0.0698  0.6257 -0.0331
 4619TIP3    H235417   3.944   6.398   1.706  1.6429  1.1880 -0.6930
 4620TIP3   OH235418   1.322   0.741   8.673 -0.1042  0.7442 -0.0810
 4620TIP3    H135419   1.403   0.743   8.623  0.2623  1.5856  0.5213
 4620TIP3    H235420   1.312   0.830   8.707 -2.1344  1.1147 -1.4504
 4621TIP3   OH235421   2.464   5.361   0.779 -0.8257  0.1991  0.1491
 4621TIP3    H135422   2.513   5.389   0.856  1.5908 -0.8385 -0.9050
 4621TIP3    H235423   2.497   5.417   0.708 -2.2977  0.4768 -0.3632
 4622TIP3   OH235424   6.497   4.413   2.314  0.0081  0.9507 -0.4306
 4622TIP3    H135425   6.486   4.407   2.409  0.2188  0.6701 -0.4222
 4622TIP3    H235426   6.570   4.355   2.295 -0.3232  0.6551 -0.8196
 4623TIP3   OH235427   3.467   1.314   1.941  0.7871 -0.0904 -0.1770
 4623TIP3    H135428   3.378   1.286   1.961  0.6993 -1.5674 -2.3180
 4623TIP3    H235429   3.464   1.410   1.949 -0.9878 -0.1078 -0.1964
 4624TIP3   OH235430   4.889   3.899   8.100  0.5798 -0.4948 -0.2852
 4624TIP3    H135431   4.897   3.991   8.075 -1.0557 -0.1230  0.4691
 4624TIP3    H235432   4.971   3.859   8.069  1.4590  1.2565 -0.3622
 4625TIP3   OH235433   2.522   0.878   2.427  0.6615 -0.3078 -0.2472
 4625TIP3    H135434   2.483   0.964   2.443 -0.9312 -1.1763  0.7703
 4625TIP3    H235435   2.617   0.893   2.433  0.4003  1.2987  0.2457
 4626TIP3   OH235436   3.556   0.400   8.446  0.2164  0.2720  0.7451
 4626TIP3    H135437   3.650   0.413   8.435  0.2284 -0.2324  0.2035
 4626TIP3    H235438   3.524   0.486   8.474  0.8795  0.3595  1.2698
 4627TIP3   OH235439   6.590   2.689   1.917 -0.3776 -0.0836 -0.6670
 4627TIP3    H135440   6.634   2.733   1.844  2.2608 -1.5032 -0.0701
 4627TIP3    H235441   6.594   2.752   1.989 -0.9956  0.4713 -1.0996
 4628TIP3   OH235442   5.157   6.444   7.937  0.5520 -0.1775  0.1449
 4628TIP3    H135443   5.131   6.510   7.872 -0.8208 -1.2791 -0.4871
 4628TIP3    H235444   5.204   6.494   8.004 -1.7109  1.7404  0.4659
 4629TIP3   OH235445   5.924   1.278   2.908  0.5128 -0.0695 -0.6423
 4629TIP3    H135446   5.833   1.293   2.883  0.9731  1.4925 -1.5680
 4629TIP3    H235447   5.920   1.245   2.998 -0.9149  3.0303  0.5776
 4630TIP3   OH235448   3.054   5.580   0.867 -0.5384  0.5500  0.1854
 4630TIP3    H135449   2.996   5.546   0.935  1.1060 -1.0760  0.8434
 4630TIP3    H235450   3.074   5.669   0.895  0.2173 -0.1344  1.9653
 4631TIP3   OH235451   0.151   6.097   7.941 -0.5384  0.5061 -0.5001
 4631TIP3    H135452   0.092   6.061   7.874 -0.8277 -0.7058  0.3615
 4631TIP3    H235453   0.108   6.076   8.024  0.2588  1.1765  0.1000
 4632TIP3   OH235454   2.203   0.312   2.885 -0.1322 -0.2883 -0.0062
 4632TIP3    H135455   2.224   0.311   2.979 -0.0228  1.3656  0.0005
 4632TIP3    H235456   2.288   0.321   2.842 -0.3752  1.4132 -0.1620
 4633TIP3   OH235457   3.980   6.732   0.200  0.3009 -0.2540 -0.3103
 4633TIP3    H135458   3.889   6.745   0.226 -0.0234 -3.3423  0.5386
 4633TIP3    H235459   4.031   6.744   0.280  0.7173  1.4511 -0.7791
 4634TIP3   OH235460   2.395   3.477   2.033 -0.3977 -0.0792  0.1623
 4634TIP3    H135461   2.312   3.496   1.991  0.6578  1.9290 -1.1759
 4634TIP3    H235462   2.380   3.496   2.126 -1.6811 -0.7478  0.1110
 4635TIP3   OH235463   5.444   4.118   0.283 -0.2685  0.3068 -0.0495
 4635TIP3    H135464   5.475   4.186   0.223  1.5428 -1.2046 -0.9111
 4635TIP3    H235465   5.369   4.079   0.238 -0.2436  0.5870 -0.3389
 4636TIP3   OH235466   3.275   2.077   1.602 -0.6112 -0.5505 -0.5925
 4636TIP3    H135467   3.241   2.135   1.534 -1.4072 -0.9477 -0.5456
 4636TIP3    H235468   3.353   2.037   1.564 -0.7223 -0.3330 -1.0511
 4637TIP3   OH235469   0.484   3.796   0.214 -0.0010 -0.2735 -0.5753
 4637TIP3    H135470   0.409   3.820   0.269  0.4952 -3.0709  1.5786
 4637TIP3    H235471   0.552   3.859   0.238 -0.2830 -0.5020  0.9567
 4638TIP3   OH235472   0.490   3.598   0.875  0.3868 -0.2218 -0.5261
 4638TIP3    H135473   0.469   3.688   0.849 -1.4470 -0.3715  0.3402
 4638TIP3    H235474   0.477   3.547   0.795 -0.3403  0.0342 -0.5799
 4639TIP3   OH235475   4.857   1.816   7.502  0.4476  0.0801 -0.4033
 4639TIP3    H135476   4.813   1.788   7.421 -0.2629  1.1815 -0.4214
 4639TIP3    H235477   4.895   1.736   7.537  0.2930 -0.5229 -1.5405
 4640TIP3   OH235478   2.915   3.084   7.093  0.2363 -0.5101  0.1976
 4640TIP3    H135479   2.945   3.162   7.140 -0.5144  1.4648 -2.3581
 4640TIP3    H235480   2.990   3.059   7.039 -0.3007 -0.0204 -0.7995
 4641TIP3   OH235481   5.897   2.584   2.255  0.3138  0.0784  0.7492
 4641TIP3    H135482   5.820   2.582   2.312  0.3198 -0.6985  0.7448
 4641TIP3    H235483   5.914   2.492   2.235  0.4661  0.3295 -0.3144
 4642TIP3   OH235484   4.899   4.244   7.505  0.1640  0.1138  0.0869
 4642TIP3    H135485   4.843   4.173   7.474  0.2309 -0.4128  1.1024
 4642TIP3    H235486   4.964   4.256   7.436 -0.2325 -0.3878 -0.3785
 4643TIP3   OH235487   1.870   1.984   7.268 -0.3997 -0.3613 -0.2643
 4643TIP3    H135488   1.827   2.036   7.337  0.7039  0.7161 -0.3498
 4643TIP3    H235489   1.830   1.897   7.275 -1.3907  0.1486  0.7347
 4644TIP3   OH235490   2.617   3.703   1.645 -0.3535 -0.5543  0.2150
 4644TIP3    H135491   2.685   3.662   1.699 -2.6003 -1.4963  2.5398
 4644TIP3    H235492   2.563   3.629   1.615 -1.2932  0.2797 -0.1830
 4645TIP3   OH235493   5.377   2.022   7.235  0.5337 -1.0448 -0.1272
 4645TIP3    H135494   5.428   2.094   7.198 -0.4556 -0.6900 -0.8464
 4645TIP3    H235495   5.442   1.953   7.252  1.6444  0.3049  1.4155
 4646TIP3   OH235496   1.878   2.181   1.980  0.6588 -0.1151  0.2122
 4646TIP3    H135497   1.873   2.157   1.887  0.6313  0.2352  0.1216
 4646TIP3    H235498   1.971   2.175   2.001  0.8593  1.2311 -0.2258
 4647TIP3   OH235499   1.675   2.605   7.480  0.1210  0.4357  0.1063
 4647TIP3    H135500   1.752   2.575   7.528 -1.3444 -2.1713  1.0312
 4647TIP3    H235501   1.700   2.595   7.388  0.2766 -2.4585  0.3606
 4648TIP3   OH235502   0.082   2.654   2.223 -0.7655  0.3217 -0.1956
 4648TIP3    H135503   0.163   2.693   2.257 -1.8705  1.2688  1.4533
 4648TIP3    H235504   0.016   2.722   2.233 -2.3204 -1.2561  0.8391
 4649TIP3   OH235505   1.207   2.192   8.074 -0.5675 -0.3045  0.4450
 4649TIP3    H135506   1.137   2.218   8.014 -0.9488  0.6499  1.2741
 4649TIP3    H235507   1.259   2.272   8.086 -1.7073  0.1644  2.9649
 4650TIP3   OH235508   0.702   1.252   1.651  0.3324  0.2333 -0.1500
 4650TIP3    H135509   0.697   1.159   1.627 -1.2724  0.6517 -1.6081
 4650TIP3    H235510   0.755   1.292   1.582  1.3862  0.3728  0.7030
 4651TIP3   OH235511   3.826   3.019   0.833  0.1816 -0.1148 -0.2397
 4651TIP3    H135512   3.814   3.057   0.746 -0.4731  1.6111  0.5555
 4651TIP3    H235513   3.921   3.015   0.844  0.2746 -0.3414 -1.0127
 4652TIP3   OH235514   3.002   3.705   2.735  0.2719 -0.9603  0.5472
 4652TIP3    H135515   3.023   3.758   2.811  0.1735  0.7799 -0.5798
 4652TIP3    H235516   2.978   3.620   2.771 -1.7596  0.3674  2.6481
 4653TIP3   OH235517   4.082   4.401   1.306  0.2878 -0.2489  0.2190
 4653TIP3    H135518   4.077   4.402   1.402 -1.6538  2.2023  0.1649
 4653TIP3    H235519   3.992   4.409   1.277  0.8887 -0.5070 -1.8390
 4654TIP3   OH235520   5.797   2.531   0.630  0.1767  0.3520 -0.4889
 4654TIP3    H135521   5.802   2.519   0.725  2.1184  1.7876 -0.3539
 4654TIP3    H235522   5.887   2.526   0.600 -0.4566 -0.6495 -2.3886
 4655TIP3   OH235523   2.769   1.054   1.497 -0.1916 -0.1811  0.2610
 4655TIP3    H135524   2.703   1.048   1.566 -0.0600 -0.0022  0.4021
 4655TIP3    H235525   2.718   1.063   1.416 -0.3422 -0.1159  0.3626
 4656TIP3   OH235526   6.351   1.885   0.723  0.1993  0.1616 -0.1629
 4656TIP3    H135527   6.419   1.855   0.784  0.7282 -1.0447 -1.3162
 4656TIP3    H235528   6.299   1.807   0.705 -2.2959  1.2963  1.6196
 4657TIP3   OH235529   2.547   6.477   7.979  0.3600  0.0813 -0.7967
 4657TIP3    H135530   2.553   6.566   7.945 -0.9960  0.1484 -0.9049
 4657TIP3    H235531   2.636   6.443   7.974  0.5214  0.7030 -2.7554
 4658TIP3   OH235532   1.480   3.284   0.792 -0.1459  0.7735  0.8241
 4658TIP3    H135533   1.565   3.306   0.829 -0.6160  1.0432  1.7883
 4658TIP3    H235534   1.423   3.272   0.869 -0.8603  0.1279  0.2129
 4659TIP3   OH235535   3.239   1.289   0.401  0.0663 -0.1553 -0.0736
 4659TIP3    H135536   3.309   1.299   0.336 -0.8077  2.2232 -0.7866
 4659TIP3    H235537   3.205   1.200   0.387 -0.1314  0.2826 -2.9972
 4660TIP3   OH235538   0.588   2.350   0.940 -0.1158  0.3668  0.5478
 4660TIP3    H135539   0.556   2.384   1.024 -0.1424  1.3778  0.1285
 4660TIP3    H235540   0.572   2.256   0.946 -1.8073  0.6578  0.9460
 4661TIP3   OH235541   5.677   0.446   1.039  0.4817 -0.1432  0.0829
 4661TIP3    H135542   5.768   0.440   1.010  0.1320 -0.7553 -0.9299
 4661TIP3    H235543   5.674   0.526   1.091  1.5469  0.0130 -0.0698
 4662TIP3   OH235544   0.684   1.259   7.417 -0.1067 -0.8982 -0.2927
 4662TIP3    H135545   0.674   1.184   7.358 -0.8454  0.6216 -2.1843
 4662TIP3    H235546   0.718   1.329   7.362  1.0272  0.0682  1.5446
 4663TIP3   OH235547   3.952   5.591   0.205  0.3150  0.1443  0.0508
 4663TIP3    H135548   3.897   5.658   0.246 -0.0271 -0.0652 -0.0603
 4663TIP3    H235549   3.948   5.610   0.112 -0.0777 -0.2441 -0.0161
 4664TIP3   OH235550   3.242   1.331   1.558  0.3000  0.0070 -0.3057
 4664TIP3    H135551   3.273   1.250   1.600  0.8405 -0.5555 -1.7015
 4664TIP3    H235552   3.155   1.310   1.526 -0.7542  0.9314  1.8229
 4665TIP3   OH235553   0.173   6.674   2.066  0.1490 -0.2916 -0.3399
 4665TIP3    H135554   0.099   6.733   2.082  1.2919  0.5528  2.5307
 4665TIP3    H235555   0.238   6.728   2.022 -0.0270 -0.3494 -0.6729
 4666TIP3   OH235556   1.269   3.962   8.773 -0.1646 -0.7644  0.0906
 4666TIP3    H135557   1.227   3.878   8.753  1.1160 -1.6051  0.7697
 4666TIP3    H235558   1.342   3.939   8.829  1.8212  0.4887 -1.8003
 4667TIP3   OH235559   1.415   2.103   2.583  0.2325  0.1105  0.2884
 4667TIP3    H135560   1.494   2.109   2.637 -0.1051 -0.5756  0.8598
 4667TIP3    H235561   1.373   2.022   2.610  0.1894 -0.3895 -1.1907
 4668TIP3   OH235562   5.030   6.428   8.351 -0.7498  0.2740 -0.9719
 4668TIP3    H135563   4.960   6.378   8.393 -0.2507  0.1527 -0.2731
 4668TIP3    H235564   5.094   6.361   8.324  1.4575  0.6332  2.7577
 4669TIP3   OH235565   6.029   2.970   7.726 -0.5207  0.6442  0.5124
 4669TIP3    H135566   6.072   3.030   7.665  0.4045  0.2573  0.7562
 4669TIP3    H235567   6.041   2.884   7.686  0.5567  0.3232  1.4616
 4670TIP3   OH235568   3.122   5.604   1.662 -0.2441  0.6230 -0.2557
 4670TIP3    H135569   3.028   5.606   1.643 -0.3027  1.2175  0.0855
 4670TIP3    H235570   3.138   5.517   1.699 -0.7410  0.6824  0.1005
 4671TIP3   OH235571   4.875   3.117   1.990 -0.1400  0.0885 -0.3253
 4671TIP3    H135572   4.795   3.073   1.963 -0.0645 -0.4881  0.3690
 4671TIP3    H235573   4.918   3.055   2.049  0.9604  0.2676 -0.9101
 4672TIP3   OH235574   3.874   2.434   7.361 -0.2665  0.2962 -0.0189
 4672TIP3    H135575   3.946   2.477   7.407  1.3189  0.1919 -2.2240
 4672TIP3    H235576   3.854   2.493   7.288 -0.9903 -0.6738 -0.6223
 4673TIP3   OH235577   5.020   6.221   8.656  0.1811  0.0811  0.2514
 4673TIP3    H135578   4.964   6.228   8.578  0.3141 -1.5328 -0.0172
 4673TIP3    H235579   5.108   6.209   8.621  0.0131 -2.6771  0.5403
 4674TIP3   OH235580   5.715   3.470   1.341 -0.1456  0.0411  0.6169
 4674TIP3    H135581   5.746   3.382   1.320 -0.5400 -0.0511  0.4265
 4674TIP3    H235582   5.638   3.483   1.286  0.9016  1.1621 -0.6664
 4675TIP3   OH235583   4.822   5.038   7.480 -0.9394  0.2295 -0.2362
 4675TIP3    H135584   4.903   5.061   7.435 -1.3527  0.9488 -0.6238
 4675TIP3    H235585   4.778   4.977   7.421 -0.8129  0.0570 -0.1528
 4676TIP3   OH235586   0.710   6.049   7.960  0.0875  0.9796  0.2206
 4676TIP3    H135587   0.780   6.004   8.008 -0.7995  0.8427  1.4558
 4676TIP3    H235588   0.682   5.986   7.894 -1.1024 -0.3655  1.8957
 4677TIP3   OH235589   2.614   5.114   0.889 -0.7018  0.3968 -0.6105
 4677TIP3    H135590   2.591   5.171   0.962  0.4305  0.3551 -0.1909
 4677TIP3    H235591   2.620   5.173   0.814  1.5085  1.0916  0.0208
 4678TIP3   OH235592   4.862   2.597   1.935 -0.1416  0.3322 -0.0771
 4678TIP3    H135593   4.907   2.515   1.912 -0.0315  0.3942 -0.0862
 4678TIP3    H235594   4.782   2.596   1.883  0.9477  1.3215 -1.8484
 4679TIP3   OH235595   5.816   5.453   1.584  0.2002  0.2098 -0.1222
 4679TIP3    H135596   5.747   5.485   1.526  0.1770  0.7208  0.1850
 4679TIP3    H235597   5.808   5.507   1.663 -0.0683 -0.7712  0.5471
 4680TIP3   OH235598   1.779   3.947   7.777 -0.1271 -0.0537 -0.2792
 4680TIP3    H135599   1.740   4.006   7.712 -1.1976 -0.3991  0.0393
 4680TIP3    H235600   1.793   3.865   7.729  1.8102  0.5536 -0.8574
 4681TIP3   OH235601   3.004   5.549   8.296 -0.3578 -0.4114  0.2254
 4681TIP3    H135602   2.927   5.548   8.240  0.0418 -2.5556 -0.3671
 4681TIP3    H235603   3.025   5.642   8.307 -2.6330  0.1938 -0.0878
 4682TIP3   OH235604   4.279   4.636   1.527 -0.1084  0.2504 -0.2644
 4682TIP3    H135605   4.250   4.603   1.612 -0.6216  0.3318 -0.4075
 4682TIP3    H235606   4.375   4.636   1.533 -0.1434  0.4059  0.3700
 4683TIP3   OH235607   4.337   6.045   7.054  0.1251 -0.3949 -0.3882
 4683TIP3    H135608   4.296   6.008   6.976 -0.8110 -0.3035  0.0428
 4683TIP3    H235609   4.267   6.048   7.119  0.6502  0.3859  0.1725
 4684TIP3   OH235610   1.287   1.583   0.182  0.2483 -0.8860 -0.3723
 4684TIP3    H135611   1.353   1.595   0.250 -0.0163  0.2360 -0.2897
 4684TIP3    H235612   1.326   1.520   0.121  1.4775 -0.1091 -0.4211
 4685TIP3   OH235613   0.775   1.225   8.807  0.0706 -0.0871  0.5192
 4685TIP3    H135614   0.843   1.174   8.851  0.7858  0.3163 -0.0953
 4685TIP3    H235615   0.747   1.171   8.734 -0.9351 -0.6460  1.2949
 4686TIP3   OH235616   5.036   5.157   1.427 -0.0729 -0.2667 -0.4865
 4686TIP3    H135617   5.047   5.063   1.440  2.7528  0.0512  0.0647
 4686TIP3    H235618   5.097   5.178   1.357 -0.8138  1.1542 -0.7371
 4687TIP3   OH235619   4.109   4.902   2.123  0.1542 -0.2114 -0.1262
 4687TIP3    H135620   4.186   4.957   2.137 -1.4424  2.1816 -0.2085
 4687TIP3    H235621   4.067   4.939   2.045 -0.4863 -2.2270 -0.8079
 4688TIP3   OH235622   2.745   6.243   1.773  0.3253  0.5396 -0.1710
 4688TIP3    H135623   2.662   6.196   1.766 -1.4160  2.8521  2.5969
 4688TIP3    H235624   2.778   6.219   1.860  0.4083  2.7200  0.4555
 4689TIP3   OH235625   6.716   4.852   7.022 -0.7556  0.0091  0.1661
 4689TIP3    H135626   6.811   4.857   7.035 -0.9480  0.1109  1.7674
 4689TIP3    H235627   6.697   4.924   6.961  0.2179 -0.1605 -0.3609
 4690TIP3   OH235628   3.411   1.834   0.094 -0.1304  0.5484  0.1652
 4690TIP3    H135629   3.473   1.869   0.031 -1.5954  0.3964 -1.4280
 4690TIP3    H235630   3.333   1.889   0.085 -0.6220  0.0789  1.3298
 4691TIP3   OH235631   0.032   1.605   8.548  0.1532  1.1646  0.1915
 4691TIP3    H135632  -0.041   1.595   8.609 -0.5333 -0.0594 -0.7834
 4691TIP3    H235633   0.095   1.538   8.572  0.7054  1.8276  0.6470
 4692TIP3   OH235634   0.357   5.787   2.727  0.2529 -0.0878 -0.3987
 4692TIP3    H135635   0.351   5.868   2.678 -1.9586 -1.3518 -2.4591
 4692TIP3    H235636   0.383   5.721   2.662 -3.2145 -1.9203 -0.1573
 4693TIP3   OH235637   3.567   3.937   7.988 -0.1419 -0.0797 -0.1980
 4693TIP3    H135638   3.628   3.915   7.918 -1.1246  0.5289 -1.2850
 4693TIP3    H235639   3.482   3.906   7.956 -0.3012 -1.8658  1.7276
 4694TIP3   OH235640   0.295   1.952   7.979 -0.4952  0.5426  0.3600
 4694TIP3    H135641   0.208   1.982   7.951  0.1127  1.0661 -1.0392
 4694TIP3    H235642   0.298   1.860   7.954 -1.8478 -0.4865  3.4335
 4695TIP3   OH235643   3.045   5.486   1.327 -0.2226 -0.3461 -0.3751
 4695TIP3    H135644   2.977   5.487   1.393  0.0900  0.6189 -0.0397
 4695TIP3    H235645   3.001   5.513   1.246  0.0753  2.0884  0.2126
 4696TIP3   OH235646   3.063   0.914   8.208  0.2337 -0.0750 -0.6477
 4696TIP3    H135647   3.067   0.895   8.302  1.1169  0.7656 -0.4889
 4696TIP3    H235648   3.154   0.904   8.179  0.1286  0.5483 -1.2138
 4697TIP3   OH235649   1.526   3.639   7.913 -0.1688  0.6955  0.0447
 4697TIP3    H135650   1.435   3.613   7.929 -0.2744  1.2748  0.4107
 4697TIP3    H235651   1.537   3.632   7.818  0.3934 -2.5712  0.2312
 4698TIP3   OH235652   4.905   4.575   1.716 -0.2121 -0.2152  0.8519
 4698TIP3    H135653   4.873   4.574   1.806 -0.8252  0.9451  0.6636
 4698TIP3    H235654   4.874   4.493   1.678  0.1352 -0.7613  1.7091
 4699TIP3   OH235655   0.973   4.826   8.396  0.0285  0.1787 -0.3506
 4699TIP3    H135656   0.983   4.743   8.442 -0.3040  0.6397  0.5859
 4699TIP3    H235657   0.894   4.816   8.344 -0.0998 -0.0387 -0.1159
 4700TIP3   OH235658   2.805   5.200   3.069 -0.7713  0.8601  0.2271
 4700TIP3    H135659   2.731   5.184   3.128  0.7285  1.2840  2.3215
 4700TIP3    H235660   2.804   5.295   3.056 -0.8182  0.8222 -0.0467
 4701TIP3   OH235661   3.149   2.991   0.735 -0.2013 -0.0679  0.2643
 4701TIP3    H135662   3.191   3.062   0.784 -0.1937  0.1498 -0.0583
 4701TIP3    H235663   3.089   3.035   0.675 -2.2652 -0.4150  1.9400
 4702TIP3   OH235664   6.590   3.074   1.592 -0.5949 -0.5128 -0.0857
 4702TIP3    H135665   6.607   3.168   1.599  0.2993 -0.6085 -0.7677
 4702TIP3    H235666   6.579   3.059   1.498 -0.1787 -1.1719 -0.0336
 4703TIP3   OH235667   3.366   4.193   8.023  0.4937  0.5375  0.7948
 4703TIP3    H135668   3.359   4.173   8.116 -2.1516 -1.6635  0.2383
 4703TIP3    H235669   3.429   4.130   7.989 -1.9125 -1.8257  0.4235
 4704TIP3   OH235670   3.053   2.665   8.690  0.3274 -0.3951 -0.6015
 4704TIP3    H135671   3.077   2.757   8.704  1.2029 -0.6043 -0.6439
 4704TIP3    H235672   3.071   2.623   8.774 -1.4372 -0.2701 -0.1354
 4705TIP3   OH235673   2.856   6.695   2.545  0.4953  0.4496 -0.2350
 4705TIP3    H135674   2.841   6.720   2.454  2.8529 -4.3679 -2.2731
 4705TIP3    H235675   2.772   6.661   2.575 -0.4654  2.6263 -0.2458
 4706TIP3   OH235676   1.339   0.715   1.003 -0.1460  0.1692  0.9763
 4706TIP3    H135677   1.314   0.805   0.983  0.2966 -0.3859 -2.8623
 4706TIP3    H235678   1.430   0.720   1.029 -0.5162  0.9335  2.1725
 4707TIP3   OH235679   6.046   3.161   8.612 -0.1228 -0.3299 -0.0932
 4707TIP3    H135680   6.063   3.201   8.697 -0.3760  0.4564 -0.4018
 4707TIP3    H235681   5.975   3.099   8.627 -0.9170  0.6030  0.0575
 4708TIP3   OH235682   4.976   0.190   0.918 -0.2771 -0.2421 -0.0996
 4708TIP3    H135683   4.950   0.185   0.826  0.0424  0.7496 -0.2543
 4708TIP3    H235684   4.962   0.282   0.942 -0.9947 -0.6330  1.0424
 4709TIP3   OH235685   4.509   2.052   0.378 -0.2706  0.2000  0.6612
 4709TIP3    H135686   4.463   2.069   0.296 -0.3154 -0.5573  0.5211
 4709TIP3    H235687   4.468   2.111   0.441 -1.2503 -0.2566  0.4780
 4710TIP3   OH235688   3.660   5.470   2.308 -0.8983 -0.4987 -0.5244
 4710TIP3    H135689   3.749   5.478   2.343 -0.3155 -0.9089 -1.8656
 4710TIP3    H235690   3.611   5.542   2.350  0.7485  1.5108 -1.8442
 4711TIP3   OH235691   0.415   1.273   8.564 -0.1673  0.1124 -0.1717
 4711TIP3    H135692   0.398   1.361   8.531  2.9655  1.6058  1.7589
 4711TIP3    H235693   0.448   1.225   8.488 -0.9367  0.8796 -1.0127
 4712TIP3   OH235694   2.788   5.902   8.377  0.0241 -0.0025 -0.6017
 4712TIP3    H135695   2.733   5.869   8.447  0.1146  1.9359  0.4431
 4712TIP3    H235696   2.878   5.890   8.408  0.0498  1.7834  0.1196
 4713TIP3   OH235697   4.190   1.603   1.377 -0.1234  0.1860 -0.0656
 4713TIP3    H135698   4.210   1.572   1.289 -0.0071  1.5420 -0.5308
 4713TIP3    H235699   4.220   1.693   1.379  1.6334 -0.3578  1.9849
 4714TIP3   OH235700   0.270   5.567   8.747 -0.0026  0.2828  0.1965
 4714TIP3    H135701   0.337   5.539   8.685 -0.0985  2.6360 -1.0946
 4714TIP3    H235702   0.229   5.486   8.778  0.2691 -1.0127 -2.5851
 4715TIP3   OH235703   1.038   5.899   0.566  0.6119 -0.3596 -0.0258
 4715TIP3    H135704   1.034   5.919   0.659  0.2358 -1.1515  0.1357
 4715TIP3    H235705   0.961   5.942   0.529  0.2142 -0.8618  0.1990
 4716TIP3   OH235706   0.614   1.297   2.079 -0.0465 -0.1814  0.1788
 4716TIP3    H135707   0.571   1.316   1.996  1.7299 -1.3426 -1.0530
 4716TIP3    H235708   0.628   1.203   2.078  0.0586 -0.2201  1.8069
 4717TIP3   OH235709   6.684   2.111   0.405  0.3149 -0.0143  0.3143
 4717TIP3    H135710   6.690   2.018   0.427 -2.8296 -0.6586 -0.9256
 4717TIP3    H235711   6.640   2.151   0.480  0.3958  0.1895  0.2539
 4718TIP3   OH235712   0.427   4.559   1.233 -0.8332 -0.9637  0.7362
 4718TIP3    H135713   0.406   4.495   1.302 -1.2503 -0.4975  1.0453
 4718TIP3    H235714   0.523   4.568   1.238 -0.8187 -1.2208  0.9939
 4719TIP3   OH235715   4.749   3.025   0.445  0.4416  0.3939 -0.4354
 4719TIP3    H135716   4.828   3.075   0.466  0.3531  0.9462 -1.3487
 4719TIP3    H235717   4.762   2.941   0.488  1.6022  0.4220 -0.6872
 4720TIP3   OH235718   1.818   6.715   8.129  0.3926 -0.0715  0.4501
 4720TIP3    H135719   1.750   6.776   8.098 -0.3542 -0.7657  0.6969
 4720TIP3    H235720   1.891   6.730   8.069 -0.5082 -0.3684 -0.7843
 4721TIP3   OH235721   2.682   5.313   8.324 -0.9351 -0.6803  0.4179
 4721TIP3    H135722   2.709   5.232   8.280  2.1672  0.3219  0.2600
 4721TIP3    H235723   2.709   5.301   8.415  0.9723  0.6495  0.0991
 4722TIP3   OH235724   2.146   1.172   8.818 -0.0227  0.5518 -0.2851
 4722TIP3    H135725   2.092   1.215   8.752 -0.8002 -2.1572 -1.5532
 4722TIP3    H235726   2.224   1.144   8.771 -1.2259 -2.7247 -0.6104
 4723TIP3   OH235727   4.040   1.126   0.024  0.0947  0.2552 -0.8396
 4723TIP3    H135728   4.013   1.187  -0.044  1.2259  0.0221 -1.5393
 4723TIP3    H235729   4.135   1.121   0.014  0.1876 -0.3786  0.2635
 4724TIP3   OH235730   5.304   5.479   2.018 -0.3166 -0.0702  0.3040
 4724TIP3    H135731   5.211   5.503   2.023 -0.7905 -1.5721 -0.4461
 4724TIP3    H235732   5.311   5.402   2.074  0.6964  0.5713  1.0759
 4725TIP3   OH235733   4.254   2.586   2.544 -0.1181 -0.3692 -0.1459
 4725TIP3    H135734   4.218   2.667   2.580  1.3608  0.2807 -0.0603
 4725TIP3    H235735   4.274   2.532   2.620  0.1781 -0.2472 -0.1369
 4726TIP3   OH235736   3.156   5.933   7.552 -0.5375  0.2220 -0.0479
 4726TIP3    H135737   3.088   6.001   7.550 -1.6618 -0.8525  0.3405
 4726TIP3    H235738   3.122   5.864   7.495  1.3630  0.6483 -1.8080
 4727TIP3   OH235739   2.748   3.844   2.274  0.1293 -0.3084  0.4886
 4727TIP3    H135740   2.734   3.795   2.355  1.1874 -2.1456 -0.3815
 4727TIP3    H235741   2.831   3.810   2.239 -0.3296  0.3680 -1.4030
 4728TIP3   OH235742   2.745   1.532   7.604 -0.0521 -0.2385 -0.8334
 4728TIP3    H135743   2.675   1.493   7.552 -2.2516  0.9779  1.0272
 4728TIP3    H235744   2.726   1.626   7.604  0.4499 -0.0776  1.1960
 4729TIP3   OH235745   6.162   6.480   1.466 -0.3332  0.8088 -0.0169
 4729TIP3    H135746   6.192   6.558   1.512  0.9943 -0.7839  2.0262
 4729TIP3    H235747   6.178   6.498   1.374  1.2101  2.4054  0.5114
 4730TIP3   OH235748   2.199   5.391   0.673 -0.3732 -0.1614 -0.3374
 4730TIP3    H135749   2.255   5.379   0.749  0.3389 -2.8789 -1.1971
 4730TIP3    H235750   2.119   5.431   0.708  0.5868  0.2404  1.5228
 4731TIP3   OH235751   1.867   3.192   7.330 -0.8767  0.1806 -0.1848
 4731TIP3    H135752   1.878   3.160   7.241  0.3059 -0.4827  0.1700
 4731TIP3    H235753   1.892   3.118   7.386 -0.9454  0.7948  0.6839
 4732TIP3   OH235754   5.660   2.199   2.926  0.8390 -0.2748 -0.2272
 4732TIP3    H135755   5.667   2.281   2.975  0.6957 -1.0806  1.2053
 4732TIP3    H235756   5.612   2.140   2.984  1.1625 -1.4622 -1.1156
 4733TIP3   OH235757   5.634   4.792   0.027 -0.1097  0.0746 -0.4595
 4733TIP3    H135758   5.641   4.857   0.097 -1.1664 -1.0314  0.7089
 4733TIP3    H235759   5.708   4.732   0.042  1.2996  1.3148 -1.9594
 4734TIP3   OH235760   0.165   4.287   2.248 -0.1253 -0.3460  0.3834
 4734TIP3    H135761   0.224   4.212   2.244 -0.0203 -0.5150  3.0112
 4734TIP3    H235762   0.216   4.357   2.289 -1.4400 -0.2649  2.0143
 4735TIP3   OH235763   5.686   3.512   1.609 -0.1501  0.0501 -0.1576
 4735TIP3    H135764   5.611   3.568   1.623  0.8142  1.1846  0.6130
 4735TIP3    H235765   5.676   3.481   1.518 -1.4207  0.3164 -0.1276
 4736TIP3   OH235766   6.676   6.630   0.238  0.3795  0.2093  0.0417
 4736TIP3    H135767   6.670   6.645   0.144  0.1554  0.4253  0.0903
 4736TIP3    H235768   6.744   6.690   0.268 -1.0076  1.6937  0.3506
 4737TIP3   OH235769   1.463   1.930   7.397  0.1279  0.4167 -0.1004
 4737TIP3    H135770   1.483   1.840   7.370 -0.9878 -0.4052  1.6320
 4737TIP3    H235771   1.377   1.947   7.360  1.1835  1.6025 -2.1851
 4738TIP3   OH235772   4.215   2.028   0.437  0.6317  0.0510  0.0099
 4738TIP3    H135773   4.253   2.062   0.357  0.4352  0.3377  0.0391
 4738TIP3    H235774   4.234   2.095   0.503  0.5046 -0.0318  0.1312
 4739TIP3   OH235775   3.677   3.272   0.259  0.1360  0.5257 -0.1211
 4739TIP3    H135776   3.597   3.220   0.269  0.2263  0.7651  2.8606
 4739TIP3    H235777   3.748   3.208   0.253 -0.1197  0.3153 -0.9308
 4740TIP3   OH235778   0.305   5.749   0.084  0.0536 -0.4307  0.0222
 4740TIP3    H135779   0.214   5.777   0.094 -0.2790 -0.8717 -1.5457
 4740TIP3    H235780   0.302   5.675   0.024  1.4953 -0.0617 -0.5727
 4741TIP3   OH235781   3.653   1.249   7.158 -0.2556  0.3462  0.6725
 4741TIP3    H135782   3.635   1.341   7.140  0.0741 -0.0776 -2.5265
 4741TIP3    H235783   3.697   1.217   7.078 -0.3366 -2.5824  1.6594
 4742TIP3   OH235784   3.934   4.932   0.436  0.0405  0.2636  0.4797
 4742TIP3    H135785   3.876   4.957   0.509  1.3043  1.1929  1.2072
 4742TIP3    H235786   4.016   4.978   0.454  0.6702 -0.1917 -1.0879
 4743TIP3   OH235787   0.397   6.202   1.297  0.2773 -0.1857  0.2926
 4743TIP3    H135788   0.456   6.156   1.237 -1.5189 -0.6752 -1.1760
 4743TIP3    H235789   0.363   6.133   1.355  0.1853 -0.1089  0.3290
 4744TIP3   OH235790   4.074   5.102   7.944 -0.1321 -0.2126 -0.5828
 4744TIP3    H135791   4.040   5.013   7.934  0.3947 -0.2994 -1.7987
 4744TIP3    H235792   4.035   5.151   7.872  0.3480  0.2879 -0.5069
 4745TIP3   OH235793   3.432   4.274   1.156  0.4509 -0.4384  0.1109
 4745TIP3    H135794   3.461   4.251   1.067  1.6077  1.6047 -0.0918
 4745TIP3    H235795   3.353   4.327   1.142  1.2046  0.7345  0.2248
 4746TIP3   OH235796   2.152   4.394   0.596 -0.0934  0.4331 -0.3007
 4746TIP3    H135797   2.232   4.394   0.542  1.2630 -1.5180  1.5454
 4746TIP3    H235798   2.184   4.400   0.686 -1.7167 -3.5054  0.7399
 4747TIP3   OH235799   4.378   5.190   8.646  0.3254  0.5134  0.0292
 4747TIP3    H135800   4.418   5.258   8.591 -0.5020 -0.5544 -2.0118
 4747TIP3    H235801   4.444   5.122   8.652  0.1436  0.3062 -0.2936
 4748TIP3   OH235802   3.736   0.212   1.386  0.0153  0.1010  0.1820
 4748TIP3    H135803   3.700   0.297   1.365 -0.5798  0.4288  2.2992
 4748TIP3    H235804   3.660   0.153   1.389  0.4615 -0.6216 -1.6367
 4749TIP3   OH235805   3.519   3.632   2.003 -0.2681  0.0727 -0.0659
 4749TIP3    H135806   3.440   3.603   1.958 -1.8381  0.7290  2.0959
 4749TIP3    H235807   3.530   3.569   2.075  1.1250  0.0590 -0.2684
 4750TIP3   OH235808   1.431   1.144   8.096 -0.6968 -0.3476 -0.1215
 4750TIP3    H135809   1.476   1.093   8.029  0.8441 -1.0218  1.3638
 4750TIP3    H235810   1.394   1.218   8.048 -1.6137 -1.9591 -2.0661
 4751TIP3   OH235811   0.966   5.680   7.597  0.1337  0.0449  0.5462
 4751TIP3    H135812   0.885   5.633   7.576 -0.7578  1.6209  0.2731
 4751TIP3    H235813   1.023   5.664   7.522 -0.0858 -0.7106  0.5315
 4752TIP3   OH235814   5.577   6.358   0.526 -0.2643 -0.6098 -0.1465
 4752TIP3    H135815   5.637   6.391   0.459 -0.9095 -0.1392 -0.5074
 4752TIP3    H235816   5.490   6.371   0.488 -0.5643 -2.7641 -0.3274
 4753TIP3   OH235817   0.198   6.469   0.810  0.6719 -0.3146  0.0886
 4753TIP3    H135818   0.108   6.452   0.782  0.5727 -1.1494  0.8890
 4753TIP3    H235819   0.218   6.400   0.873  2.1397 -0.5976 -0.6352
 4754TIP3   OH235820   2.955   6.203   0.364  0.4386 -0.3688 -0.3515
 4754TIP3    H135821   2.864   6.173   0.370  0.7229 -1.1495  0.1935
 4754TIP3    H235822   2.983   6.213   0.455  1.0202 -0.5320 -0.5109
 4755TIP3   OH235823   0.248   6.295   1.053 -0.0337  0.2757 -0.0199
 4755TIP3    H135824   0.292   6.269   1.134 -0.6624  2.4482  1.0875
 4755TIP3    H235825   0.185   6.362   1.080 -1.9133 -0.5786 -1.9945
 4756TIP3   OH235826   6.372   2.526   0.671 -0.5581 -0.1894 -0.1884
 4756TIP3    H135827   6.417   2.443   0.687  0.4064 -0.1502 -2.3312
 4756TIP3    H235828   6.329   2.546   0.754  0.4142 -2.0626  0.8468
 4757TIP3   OH235829   1.490   5.722   0.684  0.0591 -0.6629  0.1766
 4757TIP3    H135830   1.516   5.796   0.630  1.1970 -0.3786  1.0817
 4757TIP3    H235831   1.400   5.702   0.656  0.2663  0.0980 -1.1020
 4758TIP3   OH235832   6.358   2.064   2.185  0.1234 -0.2779 -0.5409
 4758TIP3    H135833   6.408   2.109   2.253 -1.6861 -0.0337  0.7063
 4758TIP3    H235834   6.382   1.972   2.194 -1.4994 -0.5303  1.7684
 4759TIP3   OH235835   2.937   4.427   1.299  0.0612 -0.3131  0.2222
 4759TIP3    H135836   2.870   4.454   1.362  0.4175  1.0145  0.0678
 4759TIP3    H235837   2.963   4.339   1.328 -1.3042 -0.6079  0.6344
 4760TIP3   OH235838   0.394   4.898   7.560 -0.3003 -0.0517 -0.1409
 4760TIP3    H135839   0.430   4.813   7.583 -0.9907  0.1776  1.9759
 4760TIP3    H235840   0.471   4.954   7.549  0.1223 -0.6614 -0.3093
 4761TIP3   OH235841   4.181   5.473   8.638 -0.1784  0.0082 -0.0868
 4761TIP3    H135842   4.227   5.536   8.582 -2.1249  1.6620  0.0859
 4761TIP3    H235843   4.146   5.409   8.576  1.2564 -0.6037 -0.3218
 4762TIP3   OH235844   3.288   6.464   8.757 -0.3121 -0.0981  0.1536
 4762TIP3    H135845   3.328   6.483   8.842 -0.3402 -0.1475  0.1778
 4762TIP3    H235846   3.240   6.383   8.770 -0.7054  0.1439  0.2165
 4763TIP3   OH235847   1.792   3.467   7.897  0.5275  0.5427 -0.1128
 4763TIP3    H135848   1.719   3.504   7.947 -0.2761  0.0365 -0.8881
 4763TIP3    H235849   1.777   3.494   7.807  1.3385  0.4811 -0.2759
 4764TIP3   OH235850   6.392   0.195   1.123  0.4809 -0.0548  0.3957
 4764TIP3    H135851   6.343   0.267   1.082 -0.3438 -0.0400  1.3609
 4764TIP3    H235852   6.419   0.140   1.050  0.3272  0.7482 -0.2850
 4765TIP3   OH235853   4.790   4.830   2.297  0.2263 -0.1319  0.0306
 4765TIP3    H135854   4.756   4.777   2.225 -0.1179 -0.0919  0.1614
 4765TIP3    H235855   4.852   4.891   2.255  0.5257 -0.5442 -0.1365
 4766TIP3   OH235856   3.661   3.923   1.276  0.5235  0.0317 -0.3288
 4766TIP3    H135857   3.613   3.991   1.322 -1.7740  0.7991 -3.4985
 4766TIP3    H235858   3.747   3.962   1.257  0.8552  0.3310  1.5559
 4767TIP3   OH235859   1.848   3.660   1.331 -0.2561  0.0615 -0.3461
 4767TIP3    H135860   1.764   3.684   1.370  0.1069 -1.0963  1.2497
 4767TIP3    H235861   1.913   3.709   1.381  0.1192  0.0142 -0.7729
 4768TIP3   OH235862   0.537   6.554   2.116  0.1583 -0.2455 -0.8364
 4768TIP3    H135863   0.610   6.521   2.064  1.4561  0.0295  0.7059
 4768TIP3    H235864   0.538   6.649   2.101  0.7471 -0.1239 -0.0928
 4769TIP3   OH235865   5.006   6.597   1.302 -0.0573 -0.0044 -0.2855
 4769TIP3    H135866   4.938   6.642   1.351  0.3140 -0.8473  1.0544
 4769TIP3    H235867   5.002   6.636   1.214 -1.1996  1.0520  0.2037
 4770TIP3   OH235868   0.044   1.088   0.061  0.2890  0.2155  0.3054
 4770TIP3    H135869   0.034   1.151   0.132  1.9521  1.2339 -0.2974
 4770TIP3    H235870   0.125   1.041   0.082  0.1831 -0.2670 -0.3414
 4771TIP3   OH235871   2.354   1.010   8.727 -0.1946 -0.5158 -0.1952
 4771TIP3    H135872   2.436   1.041   8.690  0.7115 -2.2997  0.2032
 4771TIP3    H235873   2.379   0.934   8.781 -2.1479 -1.4768 -0.5487
 4772TIP3   OH235874   4.297   0.730   0.839 -0.6262 -0.1988  0.2146
 4772TIP3    H135875   4.297   0.645   0.882  1.2687 -0.3867 -0.0422
 4772TIP3    H235876   4.303   0.709   0.745  2.4994  0.1179  0.2422
 4773TIP3   OH235877   4.062   3.480   8.770  0.0357 -0.4661  0.1385
 4773TIP3    H135878   4.047   3.455   8.861 -1.8275 -0.8931 -0.2408
 4773TIP3    H235879   4.153   3.510   8.768  0.4674 -1.5096  1.8936
 4774TIP3   OH235880   5.829   6.226   8.599  0.1765 -0.2843 -0.1011
 4774TIP3    H135881   5.924   6.217   8.594  0.4108 -0.4107  2.8705
 4774TIP3    H235882   5.814   6.299   8.658 -1.5779 -0.6265 -0.0562
 4775TIP3   OH235883   3.193   5.932   7.919  0.4958 -0.6017 -0.3767
 4775TIP3    H135884   3.216   5.995   7.851  1.8631 -0.9025 -0.2077
 4775TIP3    H235885   3.200   5.846   7.877 -0.7019 -0.6982 -0.4204
 4776TIP3   OH235886   1.301   5.863   1.402  0.1529  0.1436  0.5774
 4776TIP3    H135887   1.304   5.780   1.449  1.9594  0.7373  1.6012
 4776TIP3    H235888   1.391   5.878   1.374 -0.3712  1.1873 -0.6505
 4777TIP3   OH235889   0.664   2.676   2.914 -0.4737  0.3393 -0.1090
 4777TIP3    H135890   0.665   2.683   3.009 -0.9514  1.3137 -0.1546
 4777TIP3    H235891   0.573   2.694   2.890 -0.0557  1.6196 -0.8363
 4778TIP3   OH235892   4.720   4.396   1.619 -0.5135 -0.0494 -0.2835
 4778TIP3    H135893   4.646   4.355   1.663  0.0148 -2.0495 -1.1539
 4778TIP3    H235894   4.703   4.385   1.525  1.5080 -1.9005 -0.5216
 4779TIP3   OH235895   4.379   2.199   0.611  0.9862  0.1249 -0.2261
 4779TIP3    H135896   4.385   2.289   0.644  0.7247 -0.5365  1.8042
 4779TIP3    H235897   4.306   2.160   0.660  0.2083 -0.8421 -2.0328
 4780TIP3   OH235898   4.545   3.194   1.158  0.3405 -0.0292 -0.2304
 4780TIP3    H135899   4.528   3.136   1.232  1.6799 -0.1434  0.0125
 4780TIP3    H235900   4.501   3.152   1.084 -0.7904 -0.0505  0.4290
 4781TIP3   OH235901   0.196   3.426   7.392  0.0830  0.6017  0.3886
 4781TIP3    H135902   0.138   3.498   7.369  0.8322  1.4946  1.2181
 4781TIP3    H235903   0.230   3.449   7.478  0.0417 -0.9367  0.8414
 4782TIP3   OH235904   6.017   6.273   0.507 -0.4769  0.1950 -0.1247
 4782TIP3    H135905   6.017   6.369   0.515 -0.1193  0.0573  2.0047
 4782TIP3    H235906   5.938   6.245   0.552  0.8564 -0.6254  1.8483
 4783TIP3   OH235907   1.554   4.230   1.959  0.0507 -0.4709  0.1224
 4783TIP3    H135908   1.641   4.198   1.983  0.9753  1.0825 -1.0086
 4783TIP3    H235909   1.533   4.183   1.879 -0.1593 -0.8193  0.3763
 4784TIP3   OH235910   3.284   0.334   7.738  0.0658  0.2777 -0.3289
 4784TIP3    H135911   3.243   0.298   7.659 -0.3660 -0.3592  0.1770
 4784TIP3    H235912   3.229   0.410   7.760 -0.9099 -0.5976  0.3699
 4785TIP3   OH235913   5.531   0.430   8.248 -0.1342 -0.1752 -0.7555
 4785TIP3    H135914   5.519   0.358   8.186 -1.0945  0.5182 -1.3958
 4785TIP3    H235915   5.461   0.491   8.228 -0.0731  0.3707  0.5982
 4786TIP3   OH235916   2.270   6.428   0.927 -0.3127  0.6538 -0.3580
 4786TIP3    H135917   2.263   6.343   0.970  0.4390  0.6576 -0.2165
 4786TIP3    H235918   2.227   6.415   0.842 -0.0681  0.0881 -0.4014
 4787TIP3   OH235919   2.057   1.762   8.151 -0.2311 -0.4113 -0.7440
 4787TIP3    H135920   2.042   1.842   8.101  0.8201  0.1708 -0.1471
 4787TIP3    H235921   2.013   1.778   8.235 -0.1583 -0.5312 -0.6844
 4788TIP3   OH235922   2.812   6.187   2.256 -0.4082 -0.3067  0.5933
 4788TIP3    H135923   2.767   6.170   2.338 -0.6305 -1.2264  0.2930
 4788TIP3    H235924   2.756   6.147   2.189 -0.2941  0.5289 -0.0249
 4789TIP3   OH235925   4.652   4.487   3.094  0.5286 -0.0414 -0.6905
 4789TIP3    H135926   4.558   4.501   3.080  0.5538  1.9344  0.6157
 4789TIP3    H235927   4.683   4.571   3.128  2.5054 -1.0907  0.2467
 4790TIP3   OH235928   0.020   4.306   2.644  0.2748  0.1398 -0.2788
 4790TIP3    H135929   0.061   4.367   2.706 -2.0187  0.2399  1.2587
 4790TIP3    H235930   0.037   4.219   2.680 -0.9280  0.1913  0.4943
 4791TIP3   OH235931   1.900   2.163   1.708 -0.0739 -0.3882 -0.0781
 4791TIP3    H135932   1.852   2.083   1.684 -0.8067  0.5107 -1.8516
 4791TIP3    H235933   1.985   2.154   1.667 -0.8790  0.5794 -2.1308
 4792TIP3   OH235934   4.774   6.571   0.830  0.2175 -0.1895  0.7704
 4792TIP3    H135935   4.753   6.497   0.887 -0.7109 -0.4027  0.1618
 4792TIP3    H235936   4.870   6.569   0.823  0.1811 -1.5636  0.4670
 4793TIP3   OH235937   2.782   1.260   8.825 -0.9173  0.7558  0.6221
 4793TIP3    H135938   2.731   1.336   8.851 -1.9755  0.5398 -0.7040
 4793TIP3    H235939   2.805   1.277   8.733  1.2544  0.7438  1.0929
 4794TIP3   OH235940   5.363   0.635   0.599 -0.4555 -0.2564  0.0113
 4794TIP3    H135941   5.306   0.626   0.522 -0.9490  1.2492  0.1524
 4794TIP3    H235942   5.305   0.615   0.673 -0.7591  0.9543  0.1330
 4795TIP3   OH235943   5.506   0.664   0.074  0.6975 -0.2615 -0.0071
 4795TIP3    H135944   5.601   0.655   0.065  0.6669 -0.3652 -0.2114
 4795TIP3    H235945   5.477   0.579   0.108  0.3458 -1.1591 -2.3972
 4796TIP3   OH235946   0.719   4.488   8.634 -0.4293 -0.0734 -0.2031
 4796TIP3    H135947   0.727   4.547   8.559 -0.8956 -0.0202 -0.2184
 4796TIP3    H235948   0.700   4.403   8.595 -2.1533  0.2310 -0.1219
 4797TIP3   OH235949   5.141   2.825   2.872 -0.1873 -0.2963  0.4749
 4797TIP3    H135950   5.072   2.868   2.922 -2.1119 -0.1804 -2.1041
 4797TIP3    H235951   5.206   2.893   2.856  0.2511 -0.2244  2.3023
 4798TIP3   OH235952   2.701   3.668   2.479  0.1967 -0.3792 -0.1898
 4798TIP3    H135953   2.708   3.629   2.566 -0.0561 -0.3910 -0.1730
 4798TIP3    H235954   2.685   3.594   2.420 -1.1284 -0.2283 -0.0486
 4799TIP3   OH235955   2.116   6.338   0.726 -0.2739  0.5504  0.3540
 4799TIP3    H135956   2.077   6.392   0.657  0.4257 -1.1493 -1.4716
 4799TIP3    H235957   2.054   6.267   0.738  0.1717  0.2098  0.6449
 4800TIP3   OH235958   1.012   1.688   2.575 -0.1633  0.1648 -0.0725
 4800TIP3    H135959   0.948   1.718   2.511 -1.1730 -0.1170  0.7822
 4800TIP3    H235960   1.028   1.763   2.632 -0.5299 -0.0653  0.3416
 4801TIP3   OH235961   0.432   3.588   1.953 -0.0539 -0.6676  0.5650
 4801TIP3    H135962   0.451   3.504   1.912  0.9822 -0.0771 -0.2039
 4801TIP3    H235963   0.507   3.643   1.931 -0.2034  0.1434  1.9606
 4802TIP3   OH235964   0.359   1.863   0.429 -0.9271 -0.7989 -0.1288
 4802TIP3    H135965   0.316   1.800   0.487 -0.2802 -1.7873 -0.6978
 4802TIP3    H235966   0.444   1.824   0.410 -1.6831 -1.2883 -2.9821
 4803TIP3   OH235967   0.056   2.805   7.796  0.5410  0.2393 -0.4736
 4803TIP3    H135968   0.147   2.774   7.798  0.6795  0.6415 -0.4168
 4803TIP3    H235969   0.021   2.781   7.881  0.5955  0.0856 -0.4940
 4804TIP3   OH235970   1.826   6.186   7.912 -0.2704 -0.4068  0.2356
 4804TIP3    H135971   1.809   6.206   7.820 -1.3512  2.6449  0.9871
 4804TIP3    H235972   1.921   6.176   7.917 -0.1771 -0.4982 -1.1686
 4805TIP3   OH235973   3.968   4.312   8.189 -0.4633  0.1124 -0.2536
 4805TIP3    H135974   3.942   4.230   8.148 -2.3476 -0.0090  1.0688
 4805TIP3    H235975   3.991   4.369   8.115 -0.0095 -1.2940 -1.2327
 4806TIP3   OH235976   6.079   6.164   1.639  0.0450 -0.6626 -0.2280
 4806TIP3    H135977   6.122   6.231   1.692 -1.2429 -0.1242  0.1807
 4806TIP3    H235978   6.013   6.212   1.588 -1.6597 -1.7091  0.8714
 4807TIP3   OH235979   3.097   5.253   2.580  0.4920 -0.0766  0.4027
 4807TIP3    H135980   3.106   5.203   2.498 -0.1442  0.9900 -0.3410
 4807TIP3    H235981   3.171   5.314   2.579 -0.0075  0.5384  0.1730
 4808TIP3   OH235982   4.439   2.286   7.019 -0.0968 -0.2081  0.6555
 4808TIP3    H135983   4.352   2.260   6.989 -0.0192  0.0907  0.1677
 4808TIP3    H235984   4.498   2.218   6.986  0.5337  1.8202 -3.0361
 4809TIP3   OH235985   4.247   1.879   8.087 -0.3826 -0.0802 -0.2989
 4809TIP3    H135986   4.227   1.800   8.137  0.1853  0.4492  0.8004
 4809TIP3    H235987   4.335   1.904   8.116 -0.7198  1.1899 -0.3284
 4810TIP3   OH235988   1.885   6.131   8.168  0.4354  0.2063  0.0466
 4810TIP3    H135989   1.901   6.219   8.201  1.3318 -0.0353  0.2861
 4810TIP3    H235990   1.847   6.144   8.081 -0.5456  0.8357  0.5535
 4811TIP3   OH235991   5.457   1.955   7.864  0.4758 -0.3705  0.0326
 4811TIP3    H135992   5.400   1.903   7.809  0.3083  1.0870 -1.2238
 4811TIP3    H235993   5.402   2.027   7.895  1.0668 -0.1313  0.5558
 4812TIP3   OH235994   6.406   5.670   0.669 -0.2444 -0.1928  0.7370
 4812TIP3    H135995   6.487   5.717   0.686 -0.3726 -0.4537  2.2315
 4812TIP3    H235996   6.419   5.629   0.583  1.0766  0.0247  0.8137
 4813TIP3   OH235997   3.069   3.631   0.176  0.2551 -0.5757  0.0684
 4813TIP3    H135998   3.138   3.693   0.152  0.4218 -0.6884  0.2502
 4813TIP3    H235999   3.100   3.593   0.259  1.1297 -2.3884 -1.0405
 4814TIP3   OH236000   1.729   1.552   2.778  0.3689  0.3923  0.0853
 4814TIP3    H136001   1.705   1.642   2.759  0.4223  0.5661  0.8134
 4814TIP3    H236002   1.696   1.536   2.866 -0.0637 -0.4562 -0.2132
 4815TIP3   OH236003   5.956   2.241   8.232 -0.5379  0.0281  0.1696
 4815TIP3    H136004   5.939   2.148   8.224 -3.5514  0.2929  1.8929
 4815TIP3    H236005   6.042   2.247   8.272  1.5458 -1.7759 -3.4890
 4816TIP3   OH236006   3.024   4.308   8.734 -0.1778  0.1288  0.1805
 4816TIP3    H136007   2.975   4.264   8.803 -0.5214  1.8347  1.0772
 4816TIP3    H236008   2.978   4.391   8.720  1.6442  1.1956  0.1054
 4817TIP3   OH236009   5.980   3.350   1.124  0.0501 -0.7171 -0.2995
 4817TIP3    H136010   5.929   3.329   1.203 -0.5641 -2.0579 -1.0113
 4817TIP3    H236011   6.033   3.271   1.109  1.1246  0.0276 -0.5109
 4818TIP3   OH236012   5.054   6.718   8.084 -0.3999 -0.5487  0.5941
 4818TIP3    H136013   4.968   6.741   8.118 -1.2093 -2.8863  0.3265
 4818TIP3    H236014   5.037   6.687   7.995  0.9037  0.1409  0.0871
 4819TIP3   OH236015   2.151   1.616   1.883 -0.1370  0.4117 -0.1851
 4819TIP3    H136016   2.170   1.657   1.798  0.3249 -0.1287 -0.3516
 4819TIP3    H236017   2.119   1.529   1.861  0.3708  0.1234  0.2039
 4820TIP3   OH236018   4.249   4.335   0.747 -0.3046  0.3510  0.2755
 4820TIP3    H136019   4.335   4.294   0.760 -0.3484 -0.0079 -0.5189
 4820TIP3    H236020   4.218   4.354   0.836 -0.1652 -1.0824  0.6513
 4821TIP3   OH236021   4.306   6.263   7.880 -0.0869  0.0052  0.5199
 4821TIP3    H136022   4.316   6.169   7.862 -0.8919 -0.4763  2.4069
 4821TIP3    H236023   4.395   6.295   7.891  0.1320 -1.0139  1.9933
 4822TIP3   OH236024   1.862   4.612   8.580  0.0600 -0.1496 -0.4782
 4822TIP3    H136025   1.942   4.564   8.558  0.3586  0.7943 -1.5655
 4822TIP3    H236026   1.875   4.639   8.671  1.2532  0.4487 -0.7942
 4823TIP3   OH236027   5.941   2.689   0.403 -0.3326 -0.0209  0.5606
 4823TIP3    H136028   5.949   2.707   0.496 -1.4606 -3.2482  1.3760
 4823TIP3    H236029   6.016   2.734   0.364  0.7607  0.5648  3.1239
 4824TIP3   OH236030   2.146   0.791   1.129  0.5923 -0.0116  0.0740
 4824TIP3    H136031   2.162   0.819   1.039 -0.7968 -1.5103 -0.6959
 4824TIP3    H236032   2.080   0.852   1.161  0.6654  0.1745 -0.1296
 4825TIP3   OH236033   3.895   0.298   1.879 -0.1481  0.5458  0.8947
 4825TIP3    H136034   3.868   0.355   1.808  0.4359 -1.2797 -0.8993
 4825TIP3    H236035   3.818   0.291   1.935 -0.2865  2.8752  1.0846
 4826TIP3   OH236036   5.710   0.280   7.139 -0.2563  0.4490  0.0609
 4826TIP3    H136037   5.666   0.333   7.205 -1.4018 -0.2447 -0.1330
 4826TIP3    H236038   5.646   0.269   7.069  0.0186 -1.0486  0.0225
 4827TIP3   OH236039   4.519   5.309   6.637  0.0260 -0.0651 -0.1615
 4827TIP3    H136040   4.432   5.302   6.677  0.6316 -2.3015  0.9200
 4827TIP3    H236041   4.510   5.379   6.572 -2.3357  0.3410  0.5113
 4828TIP3   OH236042   0.899   5.945   2.488 -0.2134 -0.1913 -0.1215
 4828TIP3    H136043   0.932   6.002   2.557  2.7001  0.7716 -2.1029
 4828TIP3    H236044   0.828   5.995   2.447  1.8394  1.8679 -1.3867
 4829TIP3   OH236045   3.706   4.186   0.164  0.5252  0.2346 -0.0468
 4829TIP3    H136046   3.718   4.202   0.257  2.2513 -1.2625  0.0414
 4829TIP3    H236047   3.624   4.231   0.142 -0.1965  0.1782  2.2727
 4830TIP3   OH236048   1.151   3.162   2.111 -0.2472  0.3426  0.1598
 4830TIP3    H136049   1.152   3.218   2.188 -1.5672  1.5773 -0.6712
 4830TIP3    H236050   1.058   3.151   2.090  0.0247 -1.3190 -0.3211
 4831TIP3   OH236051   4.018   2.891   7.573  0.3526 -0.4784 -0.1261
 4831TIP3    H136052   4.067   2.971   7.591  0.0258  0.0919 -1.5957
 4831TIP3    H236053   4.050   2.863   7.487 -0.4901 -1.1912 -0.2191
 4832TIP3   OH236054   5.853   5.863   2.481  0.1000  0.5310  0.0875
 4832TIP3    H136055   5.792   5.935   2.500  0.3355  0.8756 -0.4353
 4832TIP3    H236056   5.890   5.841   2.566 -2.0524 -0.9121  0.7448
 4833TIP3   OH236057   0.201   6.616   8.226  0.6213 -0.0379  0.0349
 4833TIP3    H136058   0.129   6.663   8.185 -0.1246 -1.2060 -0.0492
 4833TIP3    H236059   0.272   6.619   8.161  0.6395  1.0486  0.0858
 4834TIP3   OH236060   0.669   0.754   1.459  0.5300  0.1849 -0.3199
 4834TIP3    H136061   0.692   0.763   1.367  0.2603  2.1805 -0.2382
 4834TIP3    H236062   0.588   0.703   1.460 -0.1756  1.2548 -1.2967
 4835TIP3   OH236063   2.801   1.457   3.034  0.1205 -0.2143  0.5063
 4835TIP3    H136064   2.799   1.553   3.032  0.4837 -0.1819  1.3080
 4835TIP3    H236065   2.734   1.432   3.097 -0.1537 -0.5057  0.1075
 4836TIP3   OH236066   3.945   2.402   1.579  0.3952 -0.3651 -0.1225
 4836TIP3    H136067   3.917   2.444   1.660 -0.3561 -0.1251 -0.4992
 4836TIP3    H236068   3.969   2.475   1.522 -1.6422 -0.3531 -1.0545
 4837TIP3   OH236069   1.686   3.934   8.510  0.8764 -0.3583  0.4206
 4837TIP3    H136070   1.674   3.990   8.433 -1.7981  1.2690  1.8891
 4837TIP3    H236071   1.780   3.937   8.527  1.4084  0.0703 -2.1095
 4838TIP3   OH236072   4.277   5.531   2.106 -0.4948 -0.3929 -0.3979
 4838TIP3    H136073   4.344   5.465   2.125 -1.4164 -1.7807 -1.7945
 4838TIP3    H236074   4.312   5.578   2.030  0.6191  1.4729  1.1706
 4839TIP3   OH236075   3.059   2.236   1.055 -0.0238  0.0700  0.4336
 4839TIP3    H136076   2.995   2.185   1.006 -1.2905  0.9334  1.1345
 4839TIP3    H236077   3.112   2.279   0.988 -0.4756 -0.2699 -0.1532
 4840TIP3   OH236078   6.424   6.782   2.404 -0.4074 -0.2429 -0.0287
 4840TIP3    H136079   6.483   6.792   2.479  0.6260 -2.0411 -0.5335
 4840TIP3    H236080   6.344   6.745   2.442 -0.1533 -0.4816  0.2867
 4841TIP3   OH236081   6.472   0.615   1.319 -0.2966  1.3119 -0.3351
 4841TIP3    H136082   6.503   0.700   1.352 -1.4727  2.9496 -3.0942
 4841TIP3    H236083   6.551   0.560   1.318  0.8536  2.8712  0.0489
 4842TIP3   OH236084   1.253   4.681   1.564  0.4630  0.4434 -0.6608
 4842TIP3    H136085   1.173   4.733   1.569  0.5107  0.4996 -0.4688
 4842TIP3    H236086   1.322   4.741   1.594  0.1206 -0.6221  2.6227
 4843TIP3   OH236087   4.342   0.350   2.443  0.3619 -0.1354  0.5152
 4843TIP3    H136088   4.283   0.277   2.461 -0.1874  0.1081 -0.2569
 4843TIP3    H236089   4.287   0.428   2.455  0.5350  0.0970 -0.1584
 4844TIP3   OH236090   1.367   2.489   0.733 -0.6271  0.5050  0.3875
 4844TIP3    H136091   1.427   2.467   0.662 -1.8627 -0.2209 -0.4901
 4844TIP3    H236092   1.282   2.500   0.690 -1.0178  2.1512  1.4995
 4845TIP3   OH236093   1.697   2.981   2.642 -0.1044  0.0846 -0.3500
 4845TIP3    H136094   1.714   3.067   2.603 -1.0300  0.5369  0.2005
 4845TIP3    H236095   1.626   2.945   2.589  0.9934 -0.8167 -1.2426
 4846TIP3   OH236096   6.356   3.986   8.813 -0.8241  0.2654  0.2101
 4846TIP3    H136097   6.402   3.994   8.730  0.6007 -2.1222  0.6509
 4846TIP3    H236098   6.412   3.927   8.865 -3.2921 -0.9675  1.6321
 4847TIP3   OH236099   0.528   0.070   2.375 -0.5454  0.6695 -0.2090
 4847TIP3    H136100   0.530   0.036   2.286  1.4608  1.0788 -0.3802
 4847TIP3    H236101   0.525  -0.008   2.431  0.3333  0.3186 -0.6314
 4848TIP3   OH236102   1.211   2.766   0.566 -0.2267  0.2357 -0.3562
 4848TIP3    H136103   1.261   2.766   0.647  0.0540 -1.0077 -0.5076
 4848TIP3    H236104   1.276   2.753   0.497 -0.4900  1.0260 -0.7683
 4849TIP3   OH236105   6.600   1.940   3.398  0.2928  0.3349  0.8421
 4849TIP3    H136106   6.624   1.905   3.313 -1.2815 -1.0992  0.9334
 4849TIP3    H236107   6.551   2.020   3.378  0.6087  0.4250  0.4307
 4850TIP3   OH236108   1.881   0.181   0.660  0.1182 -0.2199  0.4143
 4850TIP3    H136109   1.884   0.114   0.728  3.2023 -0.6835 -0.0225
 4850TIP3    H236110   1.973   0.202   0.644 -0.6637  4.3360  0.6931
 4851TIP3   OH236111   3.767   2.646   1.334  0.0916 -0.0930  0.2171
 4851TIP3    H136112   3.750   2.562   1.290  0.2845  0.3885 -0.7913
 4851TIP3    H236113   3.694   2.702   1.307  0.8693  0.5923 -0.4974
 4852TIP3   OH236114   4.711   2.783   8.082  0.1032 -0.0048  0.2527
 4852TIP3    H136115   4.663   2.773   8.000 -1.9800  1.3357  1.2288
 4852TIP3    H236116   4.728   2.877   8.089 -0.8000  0.0877  1.8533
 4853TIP3   OH236117   6.222   6.035   0.935 -0.0064 -0.5048 -0.0156
 4853TIP3    H136118   6.174   6.117   0.951  1.0727  0.8110 -2.7883
 4853TIP3    H236119   6.293   6.036   0.999 -1.7988 -0.9321  2.0803
 4854TIP3   OH236120   0.508   2.093   0.953  0.2713  0.1924  0.0242
 4854TIP3    H136121   0.520   2.016   1.008  2.6832 -0.6210 -1.4564
 4854TIP3    H236122   0.526   2.062   0.864  0.5866  2.3157 -0.7174
 4855TIP3   OH236123   5.582   6.109   8.561 -0.1820 -0.7459 -0.2339
 4855TIP3    H136124   5.556   6.121   8.652  1.5037 -1.4911  0.3992
 4855TIP3    H236125   5.674   6.134   8.559 -0.4950  0.4686 -2.0371
 4856TIP3   OH236126   3.660   4.685   2.223 -0.4212  0.3021 -0.3440
 4856TIP3    H136127   3.719   4.655   2.154 -1.4840 -0.4307 -0.9813
 4856TIP3    H236128   3.716   4.701   2.298  0.5864 -0.3239 -0.9409
 4857TIP3   OH236129   3.229   4.285   1.940 -0.3860  0.4925 -0.0411
 4857TIP3    H136130   3.311   4.264   1.894  0.5686 -0.8510  2.1130
 4857TIP3    H236131   3.257   4.315   2.026 -2.1456  1.4327  0.2442
 4858TIP3   OH236132   3.012   4.958   1.940 -0.2274 -0.2765  0.2200
 4858TIP3    H136133   3.003   4.913   2.024  0.2820  0.4226  0.6622
 4858TIP3    H236134   2.926   4.999   1.925 -0.4370 -0.7163  0.2082
 4859TIP3   OH236135   0.910   3.938   8.709 -0.2075  0.4407  0.4735
 4859TIP3    H136136   0.829   3.887   8.700  1.0234 -1.4362 -0.5602
 4859TIP3    H236137   0.935   3.926   8.801 -1.5681  1.8787  1.0862
 4860TIP3   OH236138   2.957   1.877   1.306 -0.5428  0.0240  0.1434
 4860TIP3    H136139   3.050   1.855   1.312 -0.3680  0.7979  0.3848
 4860TIP3    H236140   2.915   1.826   1.375 -0.7252 -2.3903 -1.6176
 4861TIP3   OH236141   2.258   3.352   7.555 -0.4561  0.0077  0.1160
 4861TIP3    H136142   2.281   3.266   7.522  0.7442  0.1521  0.5371
 4861TIP3    H236143   2.303   3.413   7.498  0.4603  0.2910  1.1128
 4862TIP3   OH236144   0.766   1.534   8.601 -0.4287 -0.1260 -0.0710
 4862TIP3    H136145   0.691   1.578   8.640  0.4225 -0.3579  1.9267
 4862TIP3    H236146   0.837   1.544   8.665  1.3336  0.2443 -1.9568
 4863TIP3   OH236147   6.178   2.417   8.869  0.7743  0.0569  0.5006
 4863TIP3    H136148   6.247   2.468   8.827 -0.2861  1.0821 -0.0711
 4863TIP3    H236149   6.106   2.417   8.805 -0.0986 -0.1776  1.4497
 4864TIP3   OH236150   6.528   6.087   1.934  0.3935  0.0232  0.3865
 4864TIP3    H136151   6.437   6.096   1.962  0.3228  0.0823  0.1383
 4864TIP3    H236152   6.524   6.077   1.839  0.6972  0.8105  0.2821
 4865TIP3   OH236153   5.063   4.174   8.089 -0.1314 -0.6815  0.1075
 4865TIP3    H136154   5.023   4.253   8.125 -0.9619 -0.7255 -0.7193
 4865TIP3    H236155   5.081   4.120   8.166  1.5206  0.7686  0.8152
 4866TIP3   OH236156   0.315   3.685   8.408  0.0017 -0.2070 -0.4916
 4866TIP3    H136157   0.237   3.735   8.384 -0.9938 -0.3275  2.1502
 4866TIP3    H236158   0.283   3.616   8.466  1.9507 -0.9261 -0.1809
 4867TIP3   OH236159   5.278   4.975   2.383  0.0251 -0.0677 -0.7084
 4867TIP3    H136160   5.344   5.041   2.404 -0.3777  1.3614 -3.4420
 4867TIP3    H236161   5.230   4.962   2.465  2.1166  0.6518  0.7154
 4868TIP3   OH236162   2.520   0.357   7.203 -0.1991  0.4996  0.0820
 4868TIP3    H136163   2.473   0.416   7.144  0.1513  1.4152  0.7066
 4868TIP3    H236164   2.477   0.367   7.288 -1.9630 -2.2420 -0.3583
 4869TIP3   OH236165   5.744   0.070   0.447  0.2310  0.2274 -0.2462
 4869TIP3    H136166   5.752   0.163   0.428  2.3976 -0.2023 -1.8986
 4869TIP3    H236167   5.652   0.050   0.431  0.0064  1.8273 -1.1848
 4870TIP3   OH236168   2.757   0.851   0.368 -0.4712 -0.1555 -0.7102
 4870TIP3    H136169   2.744   0.939   0.403 -0.8679 -0.1283 -0.9266
 4870TIP3    H236170   2.822   0.862   0.298  0.7902 -0.3013  0.4058
 4871TIP3   OH236171   5.668   3.832   8.079  0.7277  0.2163  0.1666
 4871TIP3    H136172   5.684   3.846   8.173  1.9511  1.0826 -0.1527
 4871TIP3    H236173   5.725   3.895   8.035 -0.0911  0.0700 -1.1700
 4872TIP3   OH236174   2.106   3.604   6.853 -0.3227  0.2821  0.3391
 4872TIP3    H136175   2.033   3.662   6.832 -0.9391  0.0409  1.7038
 4872TIP3    H236176   2.071   3.516   6.842 -0.3049  0.1631  1.1461
 4873TIP3   OH236177   0.175   2.401   2.615 -0.1457  0.3292 -0.2892
 4873TIP3    H136178   0.116   2.476   2.621 -1.0064 -0.2879 -0.7887
 4873TIP3    H236179   0.138   2.336   2.674  1.5915  0.9100  1.5290
 4874TIP3   OH236180   1.014   2.588   7.562  0.2459 -0.5524 -0.2828
 4874TIP3    H136181   1.089   2.647   7.566  0.3313 -0.5492 -1.6190
 4874TIP3    H236182   1.001   2.571   7.469  1.5148 -4.2712  0.0508
 4875TIP3   OH236183   4.437   1.661   2.066 -0.5474  0.4211  0.3720
 4875TIP3    H136184   4.390   1.725   2.012 -0.0944 -1.4526 -2.4596
 4875TIP3    H236185   4.369   1.605   2.102 -0.7603  0.6819  0.3795
 4876TIP3   OH236186   5.754   0.577   0.685  0.2601  0.3457  0.8095
 4876TIP3    H136187   5.727   0.492   0.648  1.9203  0.1442 -0.0436
 4876TIP3    H236188   5.801   0.554   0.765  0.3232  0.4760  0.8105
 4877TIP3   OH236189   6.754   3.455   0.447 -0.3688 -0.1919 -0.6677
 4877TIP3    H136190   6.739   3.361   0.450 -1.2075 -0.0539  0.3290
 4877TIP3    H236191   6.845   3.466   0.475 -1.2297 -0.5585  2.7987
 4878TIP3   OH236192   2.133   2.523   0.831  0.0754 -0.3134 -0.0167
 4878TIP3    H136193   2.094   2.450   0.879 -0.2982 -1.2652 -1.7225
 4878TIP3    H236194   2.165   2.485   0.750 -2.0591  1.7283 -1.9839
 4879TIP3   OH236195   4.335   1.912   0.932 -0.3005  0.1135  0.1770
 4879TIP3    H136196   4.296   1.835   0.890  1.0853  0.1177 -1.2276
 4879TIP3    H236197   4.275   1.934   1.003 -0.1841 -2.9521  1.3663
 4880TIP3   OH236198   0.518   3.301   6.598  0.3899  0.3191  0.3036
 4880TIP3    H136199   0.582   3.250   6.648  0.5051  0.4717  0.3113
 4880TIP3    H236200   0.478   3.237   6.539  2.6423  0.7186 -1.8174
 4881TIP3   OH236201   2.472   4.400   1.396 -0.1835 -0.0106 -0.2400
 4881TIP3    H136202   2.395   4.418   1.342 -0.7854 -0.5619  0.4042
 4881TIP3    H236203   2.492   4.308   1.378  0.7856  0.3224 -0.9544
 4882TIP3   OH236204   2.032   3.451   0.120 -0.0699 -0.0205  0.4389
 4882TIP3    H136205   2.032   3.519   0.187  0.2342  0.0797  0.3382
 4882TIP3    H236206   1.968   3.387   0.151 -1.1943  0.8454 -0.0099
 4883TIP3   OH236207   2.149   2.942   6.986 -0.2107  0.4653  0.0947
 4883TIP3    H136208   2.169   3.013   6.926  0.0820  1.1091  0.9319
 4883TIP3    H236209   2.228   2.934   7.040  0.3628 -1.5012 -0.9444
 4884TIP3   OH236210   0.273   3.960   1.815  0.2443  0.6997  0.0444
 4884TIP3    H136211   0.233   3.907   1.885 -0.2419  0.2770 -0.5490
 4884TIP3    H236212   0.350   3.910   1.788  0.1541  0.6216 -0.0661
 4885TIP3   OH236213   4.688   4.788   2.040  0.0412 -0.6843 -0.6456
 4885TIP3    H136214   4.617   4.753   1.986  0.3559 -0.5823 -1.1282
 4885TIP3    H236215   4.660   4.878   2.061 -0.6523 -1.1201  0.3942
 4886TIP3   OH236216   0.453   5.042   0.940 -0.5331  0.2334 -0.0128
 4886TIP3    H136217   0.372   5.087   0.964 -0.9021 -0.0676 -0.6794
 4886TIP3    H236218   0.514   5.112   0.916 -1.8496  0.3759 -3.4335
 4887TIP3   OH236219   5.008   4.648   7.451 -0.5606  0.4286  0.4044
 4887TIP3    H136220   5.102   4.660   7.437 -0.6511  0.5180 -0.1226
 4887TIP3    H236221   4.966   4.697   7.380 -1.0038  0.3063  0.5777
 4888TIP3   OH236222   5.496   4.698   1.131  0.4573 -0.6215 -0.0122
 4888TIP3    H136223   5.505   4.677   1.038  1.7074 -0.3409  0.0176
 4888TIP3    H236224   5.571   4.654   1.172  0.2785 -0.2098  0.7701
 4889TIP3   OH236225   1.159   3.356   0.965  0.0903 -0.1586  0.1541
 4889TIP3    H136226   1.154   3.280   0.907  0.0499  0.0504 -0.1192
 4889TIP3    H236227   1.150   3.320   1.053  1.1183 -0.5778  0.0913
 4890TIP3   OH236228   5.711   6.624   7.086 -0.7664  0.8628 -0.0196
 4890TIP3    H136229   5.670   6.545   7.121  1.3610 -0.4054 -0.1584
 4890TIP3    H236230   5.647   6.661   7.026 -1.0977 -1.9322 -1.5613
 4891TIP3   OH236231   6.378   2.025   0.483 -0.4793  0.2839  0.2302
 4891TIP3    H136232   6.441   1.983   0.424  0.6890  1.4500  0.5929
 4891TIP3    H236233   6.364   1.961   0.553  1.0967  0.3706  0.6610
 4892TIP3   OH236234   0.776   2.394   1.936  0.3128  0.5500  0.4061
 4892TIP3    H136235   0.818   2.315   1.902  1.3371  0.7312  1.2151
 4892TIP3    H236236   0.837   2.465   1.914  0.1041  0.9143  0.9855
 4893TIP3   OH236237   3.721   3.844   7.781 -0.3496 -0.1560  0.9772
 4893TIP3    H136238   3.806   3.878   7.753  0.4526 -1.5138  1.6620
 4893TIP3    H236239   3.727   3.750   7.767 -2.4628 -0.1307 -0.7636
 4894TIP3   OH236240   6.408   0.204   0.163  0.0099  0.1412  0.0623
 4894TIP3    H136241   6.442   0.288   0.131 -0.6440 -0.3974 -2.2679
 4894TIP3    H236242   6.445   0.139   0.103 -0.8902 -1.0381  0.7485
 4895TIP3   OH236243   2.395   0.535   2.689 -0.4164 -0.1284 -0.6437
 4895TIP3    H136244   2.389   0.452   2.736  0.1139 -0.6941 -1.5634
 4895TIP3    H236245   2.361   0.517   2.602  0.4191  0.4154 -1.1013
 4896TIP3   OH236246   2.775   5.546   8.189  0.1233  0.4285 -0.1510
 4896TIP3    H136247   2.704   5.594   8.146  1.1959  1.4270 -0.8710
 4896TIP3    H236248   2.741   5.457   8.199 -0.6138  0.4340 -2.0561
 4897TIP3   OH236249   0.907   2.865   6.545 -0.1585  0.4829 -0.0928
 4897TIP3    H136250   0.917   2.943   6.599 -1.1116  0.7470 -0.2724
 4897TIP3    H236251   0.859   2.895   6.468  0.1863 -0.1202 -0.5512
 4898TIP3   OH236252   6.351   0.611   2.597  0.2657 -0.2439 -0.0373
 4898TIP3    H136253   6.319   0.550   2.530  4.1660 -1.0802 -1.3944
 4898TIP3    H236254   6.354   0.558   2.677  0.7235 -0.9554 -0.5084
 4899TIP3   OH236255   1.456   1.262   2.007 -0.5180 -0.0264 -0.2481
 4899TIP3    H136256   1.456   1.172   2.038  1.3288 -0.3494 -1.0834
 4899TIP3    H236257   1.440   1.314   2.086 -1.0262 -1.0496  0.3393
 4900TIP3   OH236258   3.060   2.018   0.087 -0.1912  0.2240  0.4165
 4900TIP3    H136259   3.015   1.938   0.117  0.0633 -0.0678  0.0277
 4900TIP3    H236260   2.993   2.086   0.093  0.0063  0.3119  2.2282
 4901TIP3   OH236261   4.307   0.959   6.938  0.1193 -0.6949  0.4056
 4901TIP3    H136262   4.278   0.869   6.922  0.4462 -0.5398 -1.2764
 4901TIP3    H236263   4.400   0.959   6.913 -0.4209  0.5983 -1.8729
 4902TIP3   OH236264   0.752   1.745   7.563 -0.4489 -0.0014  0.0435
 4902TIP3    H136265   0.738   1.697   7.482  0.6379 -0.6252  0.2068
 4902TIP3    H236266   0.756   1.837   7.537  0.8628 -0.2621 -0.7682
 4903TIP3   OH236267   3.545   2.325   7.613 -0.0923 -0.2506 -0.3383
 4903TIP3    H136268   3.503   2.389   7.556  0.5571 -0.4114 -1.0141
 4903TIP3    H236269   3.632   2.362   7.630 -0.2803 -0.2027  0.5552
 4904TIP3   OH236270   5.149   1.633   0.441  0.1359  0.1648 -0.0822
 4904TIP3    H136271   5.091   1.707   0.455  2.0065  1.9669 -1.2992
 4904TIP3    H236272   5.221   1.668   0.389  0.8884 -2.6271 -1.1240
 4905TIP3   OH236273   5.717   5.037   2.947  0.7559  0.2159  0.1730
 4905TIP3    H136274   5.630   5.069   2.926  1.3588  1.6169 -0.2635
 4905TIP3    H236275   5.714   4.943   2.926 -1.0639 -0.0891  1.5509
 4906TIP3   OH236276   3.510   5.450   8.842  0.3698  0.1379 -0.3605
 4906TIP3    H136277   3.577   5.404   8.894  0.2097 -0.2440 -0.4901
 4906TIP3    H236278   3.529   5.542   8.856  0.3728  0.0375  0.3276
 4907TIP3   OH236279   2.693   5.059   8.200  0.0032  0.3875  0.4014
 4907TIP3    H136280   2.786   5.055   8.223  0.2682  2.7722 -0.0216
 4907TIP3    H236281   2.691   5.037   8.107 -0.1649 -1.8184  0.8822
 4908TIP3   OH236282   4.558   2.176   2.977  0.3521 -0.6771  0.9755
 4908TIP3    H136283   4.479   2.183   2.923  0.7707 -0.6472  0.3532
 4908TIP3    H236284   4.582   2.083   2.973  0.3952 -0.6718  1.0929
 4909TIP3   OH236285   6.756   4.523   8.290 -0.0026 -0.3354 -0.2780
 4909TIP3    H136286   6.791   4.435   8.276  0.9386 -0.2034  1.0758
 4909TIP3    H236287   6.827   4.581   8.261 -0.6132 -0.0047 -1.1573
 4910TIP3   OH236288   1.495   4.781   8.251 -0.0433 -0.4343  0.4055
 4910TIP3    H136289   1.555   4.760   8.179 -0.8520  0.4796 -0.5732
 4910TIP3    H236290   1.546   4.764   8.330  0.8013 -1.6833 -0.3710
 4911TIP3   OH236291   2.070   5.922   1.180 -0.2855 -0.2123  0.4398
 4911TIP3    H136292   2.115   5.857   1.235 -0.1033  0.3060  0.9070
 4911TIP3    H236293   2.066   6.001   1.234 -0.5754  0.1450 -0.0979
 4912TIP3   OH236294   2.167   5.580   2.641  0.1855  0.1622 -0.0467
 4912TIP3    H136295   2.087   5.527   2.632 -0.5665  1.1491  0.6520
 4912TIP3    H236296   2.209   5.573   2.555  0.5624 -2.2192  0.2423
 4913TIP3   OH236297   6.751   0.213   0.104 -0.4514 -0.0768  0.9815
 4913TIP3    H136298   6.743   0.308   0.103 -0.8380 -0.1059 -0.0359
 4913TIP3    H236299   6.677   0.182   0.052  1.1866 -0.7831 -1.1145
 4914TIP3   OH236300   0.986   3.961   8.477  0.3170  0.4310  0.2781
 4914TIP3    H136301   0.983   4.050   8.440  0.2818  0.1727 -0.3601
 4914TIP3    H236302   0.978   3.974   8.571  0.4012  1.1147  0.1995
 4915TIP3   OH236303   3.839   5.769   0.363  0.3079 -0.0575 -0.3699
 4915TIP3    H136304   3.811   5.859   0.380 -1.2861 -0.2091 -1.9460
 4915TIP3    H236305   3.885   5.743   0.442  1.0543  2.2325  0.0231
 4916TIP3   OH236306   5.599   6.667   1.404 -0.2761  0.3466 -0.0840
 4916TIP3    H136307   5.650   6.652   1.325  0.5967 -1.0767  0.7046
 4916TIP3    H236308   5.650   6.731   1.454 -0.7254  1.0905 -0.5593
 4917TIP3   OH236309   4.066   0.859   1.240  0.0366 -0.1820 -0.2191
 4917TIP3    H136310   4.014   0.781   1.261  1.2029 -1.4090 -1.6743
 4917TIP3    H236311   4.003   0.922   1.205 -0.8216 -0.7148  0.3240
 4918TIP3   OH236312   5.730   2.147   7.309 -0.3279 -0.0193 -0.2825
 4918TIP3    H136313   5.666   2.158   7.239  0.5901  0.5250 -1.0806
 4918TIP3    H236314   5.777   2.067   7.286  0.3804  0.4880 -0.6462
 4919TIP3   OH236315   5.274   0.650   7.186 -0.2568  0.4887 -0.2481
 4919TIP3    H136316   5.260   0.672   7.094  2.0232 -0.0700 -0.7936
 4919TIP3    H236317   5.370   0.648   7.196 -0.3027 -3.3602  1.1356
 4920TIP3   OH236318   4.681   4.749   0.270  0.2009 -0.5607 -1.1016
 4920TIP3    H136319   4.722   4.832   0.297 -1.0281  1.0031 -3.6566
 4920TIP3    H236320   4.615   4.733   0.337 -0.2072  1.0934 -1.0490
 4921TIP3   OH236321   2.646   6.300   2.640 -0.1691 -0.4644 -0.1063
 4921TIP3    H136322   2.570   6.357   2.633 -0.1121 -0.4609 -0.7093
 4921TIP3    H236323   2.667   6.299   2.734 -2.8050 -2.9407  0.6079
 4922TIP3   OH236324   3.678   0.205   0.620 -0.2828 -0.4287 -0.1596
 4922TIP3    H136325   3.604   0.220   0.679 -0.2105  0.5112 -0.2867
 4922TIP3    H236326   3.643   0.147   0.553 -1.0030  0.2168 -0.3631
 4923TIP3   OH236327   5.567   2.180   1.316 -0.8999  0.1115 -0.3139
 4923TIP3    H136328   5.537   2.227   1.394  0.7793 -2.5548  2.1274
 4923TIP3    H236329   5.658   2.207   1.306 -0.3067 -1.5380  0.3456
 4924TIP3   OH236330   5.554   2.018   0.187  0.1444 -0.3576  0.1843
 4924TIP3    H136331   5.583   1.951   0.250 -1.3629 -0.1371  1.1546
 4924TIP3    H236332   5.497   2.076   0.238 -1.2929 -0.2902 -1.4277
 4925TIP3   OH236333   4.743   6.004   1.318  0.6130 -0.2788  0.1605
 4925TIP3    H136334   4.819   6.059   1.335 -0.8009  1.5461  0.8221
 4925TIP3    H236335   4.720   5.967   1.404  0.8341 -0.9914 -0.0732
 4926TIP3   OH236336   0.001   5.352   8.474 -0.0656  0.3960 -0.1064
 4926TIP3    H136337   0.004   5.419   8.542 -1.0351 -1.5967  2.0502
 4926TIP3    H236338  -0.089   5.318   8.478  0.0864 -0.3365 -1.8661
 4927TIP3   OH236339   3.974   5.664   0.851 -0.4014  0.4464 -0.3456
 4927TIP3    H136340   4.028   5.743   0.846  0.1998  0.2171  1.6932
 4927TIP3    H236341   3.917   5.670   0.774  1.7400  1.2481 -1.9802
 4928TIP3   OH236342   6.353   3.543   6.633  0.1078 -0.5508 -0.5145
 4928TIP3    H136343   6.272   3.494   6.647  0.8213 -1.6917 -0.2205
 4928TIP3    H236344   6.339   3.591   6.552 -1.0465 -0.3271 -0.1946
 4929TIP3   OH236345   2.018   4.895   2.068  0.1204  0.1031  0.7368
 4929TIP3    H136346   1.936   4.942   2.079 -1.1702 -2.0647  0.8817
 4929TIP3    H236347   2.057   4.894   2.156 -0.3598 -0.0319  0.9481
 4930TIP3   OH236348   3.855   2.731   7.751 -0.2151  0.1977  0.0822
 4930TIP3    H136349   3.869   2.798   7.684  1.1666 -0.8751 -0.7584
 4930TIP3    H236350   3.907   2.761   7.825 -0.3640  0.5230  0.0573
 4931TIP3   OH236351   5.773   2.098   8.634 -0.8946 -0.0144 -0.1093
 4931TIP3    H136352   5.859   2.128   8.603 -0.8663  0.4023  0.3502
 4931TIP3    H236353   5.773   2.120   8.728 -0.7642 -1.7370  0.3291
 4932TIP3   OH236354   1.258   6.083   1.603 -0.3231  0.4516  0.1737
 4932TIP3    H136355   1.195   6.150   1.576 -0.1861  1.2324  1.6738
 4932TIP3    H236356   1.263   6.024   1.528 -2.8892  0.3030  0.0266
 4933TIP3   OH236357   5.692   1.591   1.531  0.0074  0.4484  0.0388
 4933TIP3    H136358   5.774   1.577   1.578 -0.5948 -0.7652  0.7890
 4933TIP3    H236359   5.700   1.535   1.453 -0.2924 -0.0427  0.3570
 4934TIP3   OH236360   4.648   1.024   1.949 -0.1619 -0.2341 -0.4145
 4934TIP3    H136361   4.712   0.962   1.985 -1.3753 -1.2941  0.0049
 4934TIP3    H236362   4.623   1.078   2.024  1.0561  0.9642 -0.8257
 4935TIP3   OH236363   3.085   0.719   2.602 -0.4123  0.3761 -0.4248
 4935TIP3    H136364   3.095   0.751   2.512  1.7822 -1.3180 -0.8875
 4935TIP3    H236365   3.096   0.624   2.595 -2.9490 -0.1525  1.3447
 4936TIP3   OH236366   4.104   6.722   8.823  0.0804  0.4082  0.3069
 4936TIP3    H136367   4.059   6.737   8.905 -0.4319  0.2219  0.0620
 4936TIP3    H236368   4.140   6.807   8.799 -0.6299  0.6885  0.2171
 4937TIP3   OH236369   5.533   1.572   2.076 -0.1527  0.1511 -0.4736
 4937TIP3    H136370   5.526   1.504   2.143 -0.5365  0.0639 -0.6039
 4937TIP3    H236371   5.532   1.654   2.125 -2.5036  0.1771 -0.4950
 4938TIP3   OH236372   1.142   1.039   1.133 -0.7315 -0.2701  0.2720
 4938TIP3    H136373   1.118   0.976   1.065  1.3749 -0.6570 -0.1854
 4938TIP3    H236374   1.235   1.024   1.147 -0.7842  0.8712  2.1579
 4939TIP3   OH236375   5.134   4.479   7.918  0.4124 -0.5059 -0.5292
 4939TIP3    H136376   5.124   4.459   7.825  1.5801  0.0898 -0.7995
 4939TIP3    H236377   5.229   4.481   7.932  0.2704  0.5226  0.4236
 4940TIP3   OH236378   4.940   3.724   0.336  0.2440 -0.4352  0.0279
 4940TIP3    H136379   5.025   3.702   0.298 -0.2071  0.5649 -1.6631
 4940TIP3    H236380   4.933   3.819   0.326 -1.9818 -0.7159 -1.9829
 4941TIP3   OH236381   2.144   0.165   0.683  0.1412  0.4541  0.0522
 4941TIP3    H136382   2.158   0.083   0.731  0.1077  1.2371  1.4829
 4941TIP3    H236383   2.172   0.146   0.594 -1.3602 -1.5781 -0.0583
 4942TIP3   OH236384   5.369   5.137   1.613  0.0026 -0.0906  0.5907
 4942TIP3    H136385   5.283   5.096   1.607  0.9749 -2.0365 -0.8493
 4942TIP3    H236386   5.392   5.161   1.523  0.9228  0.5419  0.9716
 4943TIP3   OH236387   4.361   3.550   0.220  0.6362 -0.4408 -0.8823
 4943TIP3    H136388   4.371   3.479   0.284 -0.2818  0.5273  0.3913
 4943TIP3    H236389   4.443   3.598   0.224  0.8675 -0.8157 -0.9995
 4944TIP3   OH236390   2.028   4.136   0.614  0.0994 -0.0269 -0.1882
 4944TIP3    H136391   2.065   4.215   0.574 -1.1094  0.2983 -0.7175
 4944TIP3    H236392   2.091   4.067   0.593  1.3420  0.8273  0.5551
 4945TIP3   OH236393   3.391   0.713   2.240  0.0163  0.4108 -0.0887
 4945TIP3    H136394   3.461   0.658   2.205 -0.6547 -0.8447  0.4688
 4945TIP3    H236395   3.396   0.794   2.190  1.9151  0.3823 -0.0075
 4946TIP3   OH236396   2.865   4.714   1.329  0.0925  0.1884 -0.0350
 4946TIP3    H136397   2.777   4.678   1.322  0.3005 -0.1531 -1.2486
 4946TIP3    H236398   2.923   4.640   1.312  0.5821  0.5854 -0.1361
 4947TIP3   OH236399   6.279   0.546   0.003 -0.3229  0.1106  0.2297
 4947TIP3    H136400   6.282   0.472  -0.058 -0.2799  0.1370  0.1992
 4947TIP3    H236401   6.254   0.621  -0.050 -0.5982  0.0740  0.3034
 4948TIP3   OH236402   1.984   3.661   0.291 -0.1192  0.2231 -0.3536
 4948TIP3    H136403   1.984   3.750   0.327 -0.4042 -0.0740  0.3961
 4948TIP3    H236404   1.894   3.647   0.263 -0.3136 -0.1954  0.4639
 4949TIP3   OH236405   6.153   3.153   0.934  0.1001  0.4578 -0.0939
 4949TIP3    H136406   6.109   3.086   0.882 -0.1466  0.8641 -0.4175
 4949TIP3    H236407   6.244   3.123   0.940  0.3199  0.7849 -1.4333
 4950TIP3   OH236408   5.185   3.482   2.598 -0.0788  0.7479 -0.6244
 4950TIP3    H136409   5.238   3.525   2.665  1.2817  2.4706 -2.6877
 4950TIP3    H236410   5.221   3.393   2.592  0.4739  0.9072  0.1686
 4951TIP3   OH236411   4.353   6.388   1.897  0.2619 -0.1126  1.0812
 4951TIP3    H136412   4.382   6.396   1.806 -1.1932  0.5571  0.6341
 4951TIP3    H236413   4.350   6.294   1.913 -1.4060 -0.3549 -0.2841
 4952TIP3   OH236414   4.208   6.187   2.216  0.2675 -0.0262 -0.3341
 4952TIP3    H136415   4.112   6.191   2.218  0.2642  0.4103 -1.0104
 4952TIP3    H236416   4.229   6.103   2.258 -0.3765  0.1355  0.3433
 4953TIP3   OH236417   6.764   0.122   8.592  1.2315  0.1445 -0.5816
 4953TIP3    H136418   6.840   0.094   8.642  2.6967  1.3856 -1.9975
 4953TIP3    H236419   6.799   0.145   8.506 -0.7950  0.4833 -1.3783
 4954TIP3   OH236420   0.124   2.744   7.395  0.3029  0.1916 -0.9101
 4954TIP3    H136421   0.113   2.676   7.329  0.9456 -1.4964  0.6418
 4954TIP3    H236422   0.218   2.758   7.400  0.1812  1.2107 -1.1991
 4955TIP3   OH236423   5.069   4.452   7.648  0.2600  0.1669  0.0597
 4955TIP3    H136424   5.144   4.418   7.600  0.8496  1.1050  0.2830
 4955TIP3    H236425   5.001   4.465   7.582  0.0404 -1.3173 -0.0430
 4956TIP3   OH236426   6.019   6.306   0.198  0.3126 -0.4191  0.3132
 4956TIP3    H136427   6.033   6.293   0.292 -0.2902 -1.9474  0.2183
 4956TIP3    H236428   6.087   6.253   0.156  0.5995  0.2845 -0.1227
 4957TIP3   OH236429   4.929   5.196   0.796 -0.2288  0.2246 -0.3876
 4957TIP3    H136430   4.957   5.287   0.806  1.7008 -0.4124  0.4195
 4957TIP3    H236431   4.836   5.196   0.822  0.2706  1.6087  1.6522
 4958TIP3   OH236432   6.493   1.459   7.263 -0.2614  0.1345 -0.0287
 4958TIP3    H136433   6.453   1.411   7.191  1.5644  0.8770 -1.6484
 4958TIP3    H236434   6.588   1.452   7.247  0.2068  0.4631  2.2350
 4959TIP3   OH236435   1.386   3.901   7.978  0.5220  0.0582 -0.2581
 4959TIP3    H136436   1.405   3.910   8.072  0.7559 -0.5333 -0.2403
 4959TIP3    H236437   1.381   3.806   7.964  0.7411  0.1357 -0.8942
 4960TIP3   OH236438   3.098   0.162   1.524  0.6893  0.3824  0.3499
 4960TIP3    H136439   3.055   0.167   1.609  0.0518 -1.7690  0.2114
 4960TIP3    H236440   3.185   0.198   1.540  0.1080  1.3516  1.5438
 4961TIP3   OH236441   2.376   4.143   1.380  0.1908  0.3974  0.4079
 4961TIP3    H136442   2.371   4.074   1.314 -0.3437  0.4077  0.4305
 4961TIP3    H236443   2.301   4.127   1.437  1.6741 -0.7246  2.1358
 4962TIP3   OH236444   2.928   0.710   8.568 -0.1639  0.0106  0.2912
 4962TIP3    H136445   2.978   0.791   8.570 -1.6600  0.9517  1.7026
 4962TIP3    H236446   2.857   0.727   8.507 -0.6572 -0.1265  0.8208
 4963TIP3   OH236447   6.235   4.332   2.371 -0.3035 -0.7592  0.0279
 4963TIP3    H136448   6.301   4.274   2.333  0.4763  1.3019 -1.9609
 4963TIP3    H236449   6.272   4.357   2.456  0.4652 -1.3003 -0.1354
 4964TIP3   OH236450   4.782   4.479   7.283 -0.1432  0.6066 -0.2335
 4964TIP3    H136451   4.688   4.470   7.301 -0.1575 -1.1896 -1.0163
 4964TIP3    H236452   4.814   4.537   7.353 -1.5053 -0.2463  1.1568
 4965TIP3   OH236453   0.330   4.207   1.922 -0.2104 -0.4418  0.1866
 4965TIP3    H136454   0.301   4.137   1.864 -1.3643 -0.3428  0.5991
 4965TIP3    H236455   0.318   4.171   2.010  1.3127 -0.5164  0.3896
 4966TIP3   OH236456   4.176   3.285   2.486 -0.6225 -0.9083 -0.2902
 4966TIP3    H136457   4.081   3.289   2.478 -0.6289 -0.6215 -0.0905
 4966TIP3    H236458   4.192   3.249   2.573 -0.5488 -0.6508 -0.1962
 4967TIP3   OH236459   2.794   3.309   8.018  0.3418  0.0195 -0.4947
 4967TIP3    H136460   2.742   3.253   7.960 -0.3514  0.3214 -0.1906
 4967TIP3    H236461   2.845   3.249   8.071 -1.6498 -0.4630  1.0130
 4968TIP3   OH236462   2.392   1.099   0.730 -0.0324  0.2850  0.2046
 4968TIP3    H136463   2.431   1.015   0.706  1.2434  0.4646  1.5012
 4968TIP3    H236464   2.462   1.145   0.776 -0.6578  2.1244 -0.5951
 4969TIP3   OH236465   0.950   4.419   8.822 -0.5904  0.6765  0.1295
 4969TIP3    H136466   0.885   4.488   8.809 -2.0914 -0.8069 -0.5321
 4969TIP3    H236467   0.916   4.344   8.773 -0.3400 -1.3430  2.8230
 4970TIP3   OH236468   1.010   4.499   0.571 -0.5373 -0.5204  0.4544
 4970TIP3    H136469   1.091   4.465   0.607  0.8388 -0.3505 -2.2248
 4970TIP3    H236470   0.961   4.530   0.647  2.7784  1.2571  2.0962
 4971TIP3   OH236471   3.616   1.561   1.580  0.1100 -0.7441  0.1257
 4971TIP3    H136472   3.661   1.613   1.647  0.1435  1.2734 -1.3699
 4971TIP3    H236473   3.680   1.497   1.552  1.3531  0.6921 -0.4374
 4972TIP3   OH236474   5.163   0.495   2.663 -0.0484 -1.0881  0.3183
 4972TIP3    H136475   5.228   0.564   2.650 -0.7234 -0.4882  0.0632
 4972TIP3    H236476   5.102   0.531   2.727 -0.8528 -1.1292 -0.4100
 4973TIP3   OH236477   4.540   0.658   8.534  0.2456  0.4412  0.2853
 4973TIP3    H136478   4.501   0.675   8.448  0.7552  1.6104  0.2599
 4973TIP3    H236479   4.632   0.639   8.515  0.0149 -0.9225  0.4578
 4974TIP3   OH236480   6.177   4.567   0.543 -0.2713  0.3585  0.7377
 4974TIP3    H136481   6.257   4.589   0.495 -1.1148  1.1469 -0.3596
 4974TIP3    H236482   6.206   4.553   0.633  1.4224 -1.4689 -0.0209
 4975TIP3   OH236483   5.936   3.862   1.672  0.1878  0.0104  0.4456
 4975TIP3    H136484   6.028   3.871   1.699 -0.1018  1.8106  1.0126
 4975TIP3    H236485   5.906   3.782   1.715  1.3708 -0.3518  0.6321
 4976TIP3   OH236486   4.294   4.315   8.745 -0.1378 -0.6009 -0.0519
 4976TIP3    H136487   4.386   4.306   8.770 -0.0402 -0.5613 -0.3942
 4976TIP3    H236488   4.287   4.404   8.712 -0.3629 -0.5106  0.2343
 4977TIP3   OH236489   4.444   0.766   7.693 -0.1764 -0.0420  0.0003
 4977TIP3    H136490   4.368   0.765   7.752 -1.1844 -2.5867 -1.2186
 4977TIP3    H236491   4.418   0.711   7.620  1.6930  1.6284 -2.0453
 4978TIP3   OH236492   3.948   5.636   8.799  0.3237 -0.2837  0.2765
 4978TIP3    H136493   4.004   5.712   8.783  0.2497 -0.1025  0.8866
 4978TIP3    H236494   3.997   5.563   8.762  0.6925 -0.0360  0.2696
 4979TIP3   OH236495   2.667   1.410   7.178 -0.3086 -0.0365 -0.0146
 4979TIP3    H136496   2.718   1.438   7.253 -0.1034 -0.6957  0.1040
 4979TIP3    H236497   2.670   1.314   7.181 -0.2515 -0.0749 -0.8903
 4980TIP3   OH236498   2.914   5.808   7.859  0.2441 -0.1598 -0.7129
 4980TIP3    H136499   2.828   5.831   7.894 -0.8563 -0.2751 -3.1505
 4980TIP3    H236500   2.965   5.889   7.867 -0.6634  0.4499 -0.8450
 4981TIP3   OH236501   2.877   0.454   8.383 -0.4065 -0.1642  0.1454
 4981TIP3    H136502   2.786   0.477   8.366 -1.4481 -2.1165  2.4553
 4981TIP3    H236503   2.919   0.537   8.406 -1.1652  0.9943 -2.3570
 4982TIP3   OH236504   2.155   2.107   2.013  0.0585  0.2331 -0.7490
 4982TIP3    H136505   2.236   2.159   2.013  0.7554 -0.6196  2.3493
 4982TIP3    H236506   2.179   2.026   1.968  0.5031  0.5310 -1.0617
 4983TIP3   OH236507   0.748   2.157   0.730 -0.6745 -0.4358 -0.1106
 4983TIP3    H136508   0.788   2.238   0.696  0.6395 -0.5147  1.1420
 4983TIP3    H236509   0.798   2.087   0.689  0.1841 -0.5440  1.0690
 4984TIP3   OH236510   5.988   0.045   0.284  0.0047 -0.5010 -0.4308
 4984TIP3    H136511   6.005   0.136   0.260  2.1887 -0.4037  1.1935
 4984TIP3    H236512   5.904   0.047   0.329 -1.7349  0.0688 -3.4927
 4985TIP3   OH236513   6.142   5.725   0.633 -0.1413 -0.5420  0.3488
 4985TIP3    H136514   6.125   5.816   0.607 -0.9514 -0.8206 -0.1493
 4985TIP3    H236515   6.235   5.723   0.655  0.5772 -0.2104 -2.3393
 4986TIP3   OH236516   3.299   5.298   1.542 -0.0150 -0.6516  0.0927
 4986TIP3    H136517   3.222   5.324   1.592  0.4919  1.2776 -0.0665
 4986TIP3    H236518   3.286   5.336   1.455  1.4967  0.4646  0.3176
 4987TIP3   OH236519   5.909   1.672   2.721  0.3531  0.7166 -0.6860
 4987TIP3    H136520   5.998   1.672   2.758  0.3667  0.6109 -0.7190
 4987TIP3    H236521   5.852   1.689   2.796  0.1986 -1.6743 -0.1881
 4988TIP3   OH236522   3.208   0.996   2.895  0.5657 -0.5940 -0.6020
 4988TIP3    H136523   3.237   0.976   2.806  0.5116 -0.3737 -0.6703
 4988TIP3    H236524   3.216   0.914   2.942  1.4018 -0.5132 -0.5955
 4989TIP3   OH236525   1.909   6.784   0.861  0.5577 -0.5837  0.4502
 4989TIP3    H136526   1.880   6.782   0.952  1.0672 -1.0074  0.6110
 4989TIP3    H236527   1.978   6.717   0.856  1.0393 -0.0627 -0.0695
 4990TIP3   OH236528   1.871   5.597   8.671 -0.1615 -0.3826  0.0855
 4990TIP3    H136529   1.814   5.628   8.741  1.2191  1.5030  0.4469
 4990TIP3    H236530   1.955   5.579   8.715  0.5147  0.1547 -0.9670
 4991TIP3   OH236531   2.524   4.728   8.590  0.0269  0.1502 -0.5699
 4991TIP3    H136532   2.464   4.731   8.665  1.1916  0.6808  0.3768
 4991TIP3    H236533   2.471   4.695   8.518 -0.7115 -2.0780  0.8854
 4992TIP3   OH236534   0.944   0.472   0.026  0.5612  0.3079 -0.4447
 4992TIP3    H136535   1.024   0.518   0.000  1.6682 -0.0545  2.0188
 4992TIP3    H236536   0.884   0.541   0.053  0.9808  0.4959  0.0346
 4993TIP3   OH236537   4.270   1.847   8.646  0.1789  0.0280 -0.1765
 4993TIP3    H136538   4.228   1.933   8.640  0.7372  0.2591 -0.8864
 4993TIP3    H236539   4.259   1.821   8.737 -0.2495  0.7228 -0.0248
 4994TIP3   OH236540   1.306   1.499   1.387  0.4818  0.2439 -0.3039
 4994TIP3    H136541   1.254   1.459   1.317 -0.4252  0.3465  0.3004
 4994TIP3    H236542   1.354   1.569   1.344 -0.5958  0.7501 -0.6992
 4995TIP3   OH236543   0.019   0.271   0.792  1.2685 -0.6495  0.1016
 4995TIP3    H136544  -0.058   0.306   0.837  0.8553  0.9756 -1.7464
 4995TIP3    H236545   0.051   0.202   0.851 -0.6120 -0.2702  1.6997
 4996TIP3   OH236546   6.749   4.588   1.490  0.0277  0.0408 -0.5577
 4996TIP3    H136547   6.829   4.640   1.478  0.0224 -0.0770 -1.1550
 4996TIP3    H236548   6.700   4.636   1.557  0.8838 -0.2419  0.2897
 4997TIP3   OH236549   3.502   3.782   0.776  0.1549 -0.6550 -0.9035
 4997TIP3    H136550   3.408   3.794   0.790  0.2710  1.4775 -1.6107
 4997TIP3    H236551   3.534   3.743   0.858 -0.9445  1.0062  0.3883
 4998TIP3   OH236552   1.586   4.499   1.892 -0.2081 -0.0579 -0.5742
 4998TIP3    H136553   1.576   4.410   1.924  0.8321  0.5033  1.4717
 4998TIP3    H236554   1.507   4.515   1.840 -0.3325 -2.1935 -1.1264
 4999TIP3   OH236555   2.379   2.521   1.979  0.5467  0.1779 -0.3570
 4999TIP3    H136556   2.354   2.499   2.069  3.4404 -1.0974  0.2522
 4999TIP3    H236557   2.332   2.458   1.925  2.3536 -2.2629  0.7351
 5000TIP3   OH236558   4.055   1.804   2.081  0.5292 -0.1335 -0.5016
 5000TIP3    H136559   4.013   1.753   2.150 -1.5376  0.0326 -1.5749
 5000TIP3    H236560   4.055   1.747   2.004  2.8219 -0.3298 -0.4244
 5001TIP3   OH236561   2.103   3.123   8.484  0.9590 -0.6916  0.1061
 5001TIP3    H136562   2.140   3.197   8.532  1.7006  0.2226 -1.7561
 5001TIP3    H236563   2.094   3.054   8.549 -1.6354  1.5743  2.3966
 5002TIP3   OH236564   4.805   6.263   7.527 -0.2079 -0.2317 -0.1985
 5002TIP3    H136565   4.765   6.304   7.449 -1.4282  1.0983  1.0559
 5002TIP3    H236566   4.861   6.194   7.492 -2.4293 -1.1806 -2.1879
 5003TIP3   OH236567   4.040   2.577   1.398 -0.2100  0.5597  0.0801
 5003TIP3    H136568   3.951   2.589   1.366 -0.2769 -1.3682 -0.5641
 5003TIP3    H236569   4.093   2.567   1.319  0.4226  0.7095  0.4766
 5004TIP3   OH236570   6.196   1.345   0.057  0.3813 -0.1011 -0.1844
 5004TIP3    H136571   6.159   1.277   0.000 -0.8135  1.2232 -1.0640
 5004TIP3    H236572   6.163   1.323   0.144  0.2735 -0.8199 -0.3964
 5005TIP3   OH236573   4.411   6.273   0.362 -0.4595 -0.3585 -0.1513
 5005TIP3    H136574   4.426   6.339   0.429  0.5672  0.9359 -1.5789
 5005TIP3    H236575   4.316   6.277   0.345 -0.3492  1.1515 -0.5723
 5006TIP3   OH236576   4.504   6.759   0.005 -0.1004  0.2558  0.5484
 5006TIP3    H136577   4.443   6.745  -0.068  0.4978  0.2539  0.0434
 5006TIP3    H236578   4.559   6.681   0.005  2.5884  1.9922 -1.6309
 5007TIP3   OH236579   3.872   0.207   0.350 -0.1418  0.6368  0.4877
 5007TIP3    H136580   3.836   0.195   0.438  0.4927 -2.2665  0.4460
 5007TIP3    H236581   3.800   0.184   0.291 -0.2705  1.6417  0.2295
 5008TIP3   OH236582   2.446   4.495   1.011  0.4803 -0.2877  0.1108
 5008TIP3    H136583   2.541   4.503   0.999  0.6156 -2.9438 -1.2656
 5008TIP3    H236584   2.432   4.402   1.030 -1.9859 -0.2226 -1.0289
 5009TIP3   OH236585   5.217   2.449   1.330  0.0080 -0.0244 -0.4895
 5009TIP3    H136586   5.124   2.467   1.332 -0.0878 -0.4317 -1.0605
 5009TIP3    H236587   5.231   2.385   1.400 -0.1716 -0.0978 -0.5213
 5010TIP3   OH236588   4.516   1.884   8.786 -0.1254 -0.4544 -0.3501
 5010TIP3    H136589   4.458   1.879   8.862 -1.3069 -2.6182 -1.3415
 5010TIP3    H236590   4.459   1.874   8.710  1.3353 -0.8329 -1.4436
 5011TIP3   OH236591   4.543   1.763   2.705  0.2692  0.2977  0.1923
 5011TIP3    H136592   4.448   1.759   2.694  0.3752  0.7147 -1.0488
 5011TIP3    H236593   4.556   1.809   2.788 -0.6070  0.1938  0.3941
 5012TIP3   OH236594   4.026   5.651   2.101 -0.0328  0.7388  0.3205
 5012TIP3    H136595   4.045   5.675   2.192 -2.5963 -3.6650  2.3360
 5012TIP3    H236596   4.086   5.579   2.081 -0.9156  0.2387 -0.6621
 5013TIP3   OH236597   2.097   5.088   0.071 -0.0335  0.0666 -0.0606
 5013TIP3    H136598   2.167   5.042   0.117 -0.8776 -0.3617  0.8249
 5013TIP3    H236599   2.120   5.079  -0.022  1.2342  0.2002  0.2196
 5014TIP3   OH236600   4.859   3.617   2.189  0.2320 -0.0585  0.3228
 5014TIP3    H136601   4.821   3.540   2.147  2.5229 -1.3949  0.5694
 5014TIP3    H236602   4.783   3.670   2.214 -1.3821 -1.8155 -0.5857
 5015TIP3   OH236603   0.013   5.026   0.729  0.4393 -0.0042 -0.0757
 5015TIP3    H136604  -0.046   5.084   0.681 -0.5314 -1.5051 -0.7683
 5015TIP3    H236605  -0.016   5.033   0.820 -1.3153 -1.2479 -0.5033
 5016TIP3   OH236606   5.394   6.767   8.109  0.3164 -0.0438  0.4768
 5016TIP3    H136607   5.462   6.804   8.166  0.1018  0.6087  0.3173
 5016TIP3    H236608   5.416   6.799   8.022  0.2139 -0.4229  0.3117
 5017TIP3   OH236609   6.644   4.182   7.940  0.1427  0.0408  0.4140
 5017TIP3    H136610   6.669   4.089   7.938 -1.8591 -0.5545 -0.1629
 5017TIP3    H236611   6.720   4.228   7.907  0.1702 -1.7301 -2.3676
 5018TIP3   OH236612   1.924   3.899   1.920 -0.2612  0.2050 -0.0517
 5018TIP3    H136613   2.003   3.869   1.876 -0.2614 -0.0998  0.1549
 5018TIP3    H236614   1.903   3.830   1.983 -0.4012  0.5188  0.2528
 5019TIP3   OH236615   2.504   2.127   1.376  0.2926 -0.2659 -0.3169
 5019TIP3    H136616   2.468   2.148   1.290  1.1105  0.8771 -0.4057
 5019TIP3    H236617   2.572   2.192   1.390  0.7346 -0.9436  0.8504
 5020TIP3   OH236618   2.390   5.862   7.700  0.2048  0.4842 -0.1713
 5020TIP3    H136619   2.474   5.865   7.746 -0.1781 -1.0055  0.6778
 5020TIP3    H236620   2.391   5.940   7.643  3.0718 -0.6092 -1.8049
 5021TIP3   OH236621   2.429   5.492   2.031  0.5889 -0.3040 -0.0346
 5021TIP3    H136622   2.402   5.438   2.105  1.4027  2.0639  2.1076
 5021TIP3    H236623   2.379   5.572   2.040  0.5568 -0.0074 -2.2297
 5022TIP3   OH236624   4.667   1.691   0.238  0.1459  0.1005 -0.7791
 5022TIP3    H136625   4.737   1.629   0.257 -0.5279 -0.5897 -0.5100
 5022TIP3    H236626   4.709   1.777   0.244  1.1159 -0.3182 -1.2752
 5023TIP3   OH236627   1.453   3.006   2.009  0.1929 -0.8147  0.5481
 5023TIP3    H136628   1.368   2.962   2.005  1.5571 -3.7377  1.5855
 5023TIP3    H236629   1.484   2.991   2.098  2.8741 -2.0369 -0.5020
 5024TIP3   OH236630   5.590   3.933   2.589  0.6638  0.6428 -0.0889
 5024TIP3    H136631   5.561   3.964   2.675 -0.3286  1.2686 -0.6322
 5024TIP3    H236632   5.519   3.878   2.558  0.5635  1.2318 -0.9333
 5025TIP3   OH236633   4.810   2.612   2.945  0.1396  0.3673 -0.2299
 5025TIP3    H136634   4.728   2.568   2.921 -0.0802  0.3684  0.5050
 5025TIP3    H236635   4.782   2.692   2.990  0.5428  0.9521 -1.0027
 5026TIP3   OH236636   1.747   5.271   8.341  0.0915  0.0195  0.3911
 5026TIP3    H136637   1.688   5.218   8.394  1.0088 -1.0944  0.3382
 5026TIP3    H236638   1.748   5.227   8.256  0.6476  0.2856  0.2562
 5027TIP3   OH236639   4.650   1.921   1.662 -0.4878 -0.1481  0.7453
 5027TIP3    H136640   4.706   1.854   1.703  0.2583 -0.2327 -0.3902
 5027TIP3    H236641   4.673   2.002   1.707  0.8102 -0.1189  0.0455
 5028TIP3   OH236642   4.319   0.089   8.637 -0.3086  0.1303 -0.4726
 5028TIP3    H136643   4.410   0.074   8.609  0.3226  0.6558  1.1326
 5028TIP3    H236644   4.278   0.134   8.563  1.0918  0.9297 -0.8040
 5029TIP3   OH236645   5.189   3.623   0.199 -0.2540 -0.0886 -0.0743
 5029TIP3    H136646   5.199   3.571   0.119  1.1935  1.7204 -1.1682
 5029TIP3    H236647   5.265   3.681   0.199 -1.0625  1.0720  1.7938
 5030TIP3   OH236648   1.436   6.474   8.403 -0.1378  0.0180 -0.0385
 5030TIP3    H136649   1.399   6.465   8.491 -0.2858  0.1891 -0.0831
 5030TIP3    H236650   1.406   6.560   8.374 -0.3786 -0.1844 -0.3924
 5031TIP3   OH236651   1.890   4.827   0.880 -0.4933  0.8018  0.4683
 5031TIP3    H136652   1.884   4.743   0.926  1.1089  0.1143 -0.4987
 5031TIP3    H236653   1.799   4.855   0.870 -1.0947 -1.0161  0.4686
 5032TIP3   OH236654   1.257   5.910   8.213  0.6079  0.1756 -0.3397
 5032TIP3    H136655   1.193   5.901   8.142  2.8539 -2.2832 -2.2394
 5032TIP3    H236656   1.319   5.975   8.181  1.4063 -0.6377 -0.4625
 5033TIP3   OH236657   3.450   6.578   3.378  0.5192 -0.2790  0.4958
 5033TIP3    H136658   3.458   6.506   3.315 -0.6039  0.1396 -0.1536
 5033TIP3    H236659   3.373   6.626   3.349  1.2447  1.1904  0.9282
 5034TIP3   OH236660   0.054   2.082   7.078 -0.3404  0.4043  0.7323
 5034TIP3    H136661   0.032   2.124   6.994  2.3505  0.9908  0.2027
 5034TIP3    H236662   0.087   1.996   7.053 -0.7584  0.0707  1.3222
 5035TIP3   OH236663   0.022   0.694   1.566  0.2510  0.2166  0.2888
 5035TIP3    H136664  -0.010   0.666   1.651 -0.9162  1.0904  0.1800
 5035TIP3    H236665  -0.043   0.758   1.536  1.4151  1.0506 -0.5917
 5036TIP3   OH236666   0.896   3.113   2.042  0.0392 -0.4144  0.5287
 5036TIP3    H136667   0.881   3.105   1.948 -0.0965 -0.4201  0.5508
 5036TIP3    H236668   0.853   3.195   2.066  1.4702  0.4405  0.2910
 5037TIP3   OH236669   0.534   3.295   7.256  0.0877 -0.2357  0.6124
 5037TIP3    H136670   0.538   3.287   7.351 -1.8477 -1.4271  0.6403
 5037TIP3    H236671   0.480   3.372   7.240  0.2230 -0.1674  0.4756
 5038TIP3   OH236672   0.804   3.160   7.367 -0.2630 -0.1468  0.2915
 5038TIP3    H136673   0.844   3.107   7.299 -1.0734  0.1420 -0.4187
 5038TIP3    H236674   0.798   3.247   7.329  1.0844  0.4967  1.4571
 5039TIP3   OH236675   1.625   2.403   1.513  0.2918  0.1185  0.5569
 5039TIP3    H136676   1.572   2.324   1.526 -1.1761  1.1725  1.2136
 5039TIP3    H236677   1.673   2.387   1.432 -0.2777 -1.2832  0.4751
 5040TIP3   OH236678   1.415   6.453   7.802 -0.6255 -0.3739 -0.2848
 5040TIP3    H136679   1.414   6.436   7.896 -0.4299 -0.3746 -0.2827
 5040TIP3    H236680   1.360   6.384   7.764 -2.2781  0.7488  0.0116
 5041TIP3   OH236681   0.686   2.277   0.424 -0.1013  0.0509  0.0151
 5041TIP3    H136682   0.668   2.245   0.335  2.7058 -1.9465  0.0699
 5041TIP3    H236683   0.599   2.292   0.461 -1.3911 -0.1802 -2.6471
 5042TIP3   OH236684   4.040   3.584   2.838  0.1931  0.0179 -0.2171
 5042TIP3    H136685   4.009   3.584   2.929  2.3625  0.4073  0.5655
 5042TIP3    H236686   4.008   3.667   2.802  1.3286  0.9867  0.9420
 5043TIP3   OH236687   3.668   0.257   0.999  0.6242  0.1144  0.0086
 5043TIP3    H136688   3.746   0.313   0.990  1.3208 -0.9679 -0.9861
 5043TIP3    H236689   3.701   0.173   1.030  0.0398 -0.7019 -1.4444
 5044TIP3   OH236690   3.294   2.730   7.320 -0.3897 -0.3298  0.5716
 5044TIP3    H136691   3.229   2.673   7.362  0.3478 -1.4689  0.2194
 5044TIP3    H236692   3.257   2.818   7.328 -2.1915 -0.9845 -0.0243
 5045TIP3   OH236693   6.105   3.828   6.781  0.0844 -0.0586  0.0515
 5045TIP3    H136694   6.144   3.905   6.740 -1.6755  1.0904  0.4231
 5045TIP3    H236695   6.018   3.822   6.741 -0.6860 -0.4546  1.7148
 5046TIP3   OH236696   0.464   3.718   7.653 -0.6666 -0.5425  0.3005
 5046TIP3    H136697   0.441   3.810   7.636 -0.7329 -0.7786 -0.9356
 5046TIP3    H236698   0.558   3.715   7.638 -0.7605 -0.7998 -0.2507
 5047TIP3   OH236699   1.640   4.727   2.574 -1.0152 -0.6841  0.1033
 5047TIP3    H136700   1.644   4.641   2.616  0.7319 -1.8519 -2.2510
 5047TIP3    H236701   1.560   4.724   2.521 -1.3660 -0.5394  0.6173
 5048TIP3   OH236702   4.976   1.394   8.233  0.1415  0.1884  0.3443
 5048TIP3    H136703   5.046   1.334   8.259 -0.4376 -0.1962  1.0594
 5048TIP3    H236704   4.952   1.367   8.144  0.5042 -0.0550  0.3179
 5049TIP3   OH236705   0.137   6.317   1.443 -0.4063 -0.4557 -0.8290
 5049TIP3    H136706   0.194   6.387   1.410 -0.7300 -0.2358 -0.9209
 5049TIP3    H236707   0.193   6.268   1.503 -0.6623  0.9030  0.5569
 5050TIP3   OH236708   1.647   5.107   6.707 -0.2684  0.3825  0.2743
 5050TIP3    H136709   1.625   5.193   6.743  0.7478  1.4856 -1.5956
 5050TIP3    H236710   1.585   5.094   6.636  1.2225  0.8277 -1.1704
 5051TIP3   OH236711   1.112   1.446   7.760  0.1495  0.5098  0.2607
 5051TIP3    H136712   1.060   1.479   7.686  1.4939  0.6011 -0.6629
 5051TIP3    H236713   1.050   1.445   7.833 -0.8866  1.6234 -0.5540
 5052TIP3   OH236714   4.846   5.297   7.967 -0.3855 -0.4005  0.4321
 5052TIP3    H136715   4.908   5.313   8.038 -0.0908 -1.0779  0.3296
 5052TIP3    H236716   4.813   5.209   7.984 -0.2120 -0.6166 -0.3513
 5053TIP3   OH236717   0.840   2.796   7.664 -0.8324 -0.4790 -0.7870
 5053TIP3    H136718   0.880   2.744   7.594  1.0263 -0.3862  0.1387
 5053TIP3    H236719   0.906   2.797   7.734 -2.6290 -0.5818  0.9977
 5054TIP3   OH236720   1.856   4.151   7.481  0.2763  0.3694 -0.6113
 5054TIP3    H136721   1.948   4.139   7.502 -0.1783  0.3087  1.6031
 5054TIP3    H236722   1.841   4.245   7.490 -0.3518  0.1093  1.3848
 5055TIP3   OH236723   2.867   2.618   0.237 -0.5775 -0.2687  0.0711
 5055TIP3    H136724   2.850   2.633   0.144  0.0547  1.6132  0.2374
 5055TIP3    H236725   2.782   2.632   0.279 -0.4752  0.7103 -0.0318
 5056TIP3   OH236726   4.831   4.353   7.018  0.1093  0.3881 -0.1464
 5056TIP3    H136727   4.798   4.403   7.093  1.0816  0.4643  0.2466
 5056TIP3    H236728   4.824   4.262   7.045  1.2368  0.4369  0.4065
 5057TIP3   OH236729   2.883   2.053   7.526 -0.4265  0.4725  0.3962
 5057TIP3    H136730   2.837   2.108   7.462  0.5289 -2.1938 -2.8734
 5057TIP3    H236731   2.821   2.043   7.598 -2.2349  2.3848 -0.7860
 5058TIP3   OH236732   4.464   0.764   3.114 -0.0793  0.2401 -0.1502
 5058TIP3    H136733   4.407   0.748   3.189  0.0488 -0.5050 -0.2013
 5058TIP3    H236734   4.521   0.836   3.142 -0.6069  0.5452  0.1416
 5059TIP3   OH236735   2.264   4.690   1.843 -0.5841 -0.5193  0.4151
 5059TIP3    H136736   2.245   4.597   1.829 -2.1007  0.0462 -1.8699
 5059TIP3    H236737   2.187   4.724   1.889  0.3659 -0.5092  2.0920
 5060TIP3   OH236738   0.965   0.273   1.416  0.5914  0.3601  0.0123
 5060TIP3    H136739   1.014   0.306   1.491 -0.6189  1.2616  0.4419
 5060TIP3    H236740   1.031   0.235   1.358  1.8210  1.8385  0.3964
 5061TIP3   OH236741   5.439   0.731   1.372  0.2837 -0.4702  0.6821
 5061TIP3    H136742   5.393   0.749   1.290 -0.3348  2.0229  1.4833
 5061TIP3    H236743   5.381   0.766   1.440  1.2941 -1.4538  2.1239
 5062TIP3   OH236744   4.517   5.908   1.833 -0.7916 -0.5699  0.4343
 5062TIP3    H136745   4.464   5.835   1.865 -0.2850  0.0350  2.8085
 5062TIP3    H236746   4.603   5.895   1.872  0.4806 -0.7392 -2.2125
 5063TIP3   OH236747   0.876   2.103   0.388 -0.3442 -0.0280 -0.3394
 5063TIP3    H136748   0.957   2.150   0.370 -0.1842  0.1499  0.7839
 5063TIP3    H236749   0.816   2.170   0.420 -1.0749 -0.0915 -1.5290
 5064TIP3   OH236750   1.059   0.864   2.790 -0.4612 -0.1867 -0.3171
 5064TIP3    H136751   1.022   0.899   2.708 -2.6248 -1.7654 -0.0746
 5064TIP3    H236752   1.024   0.776   2.797  0.2131 -0.3326  2.0121
 5065TIP3   OH236753   5.725   0.934   8.593  0.0337 -0.2817  0.3549
 5065TIP3    H136754   5.723   0.879   8.514  0.1782 -1.3526  1.0768
 5065TIP3    H236755   5.773   0.881   8.658 -0.9823  0.1372  1.4792
 5066TIP3   OH236756   6.247   1.939   6.964  0.4429  0.1603  0.0438
 5066TIP3    H136757   6.180   2.003   6.941  0.2233 -0.3314 -0.7206
 5066TIP3    H236758   6.284   1.911   6.881  1.0253 -0.1927  0.4105
 5067TIP3   OH236759   2.129   5.011   0.960  0.1892 -0.1408  0.0859
 5067TIP3    H136760   2.081   4.935   0.925  0.9415 -0.4225 -0.3800
 5067TIP3    H236761   2.179   5.043   0.885  1.0031 -0.0826  0.6437
 5068TIP3   OH236762   2.336   2.164   8.885  0.0657  0.1410  0.1810
 5068TIP3    H136763   2.375   2.093   8.935 -1.3657 -1.3141 -0.7096
 5068TIP3    H236764   2.261   2.193   8.937  0.9512  1.4268  0.8084
 5069TIP3   OH236765   2.806   0.568   7.446 -0.1219  0.2917  0.1666
 5069TIP3    H136766   2.808   0.632   7.375 -1.2408  1.0760  0.8060
 5069TIP3    H236767   2.717   0.573   7.481 -0.2401 -1.6316  0.2504
 5070TIP3   OH236768   1.010   4.300   1.873  0.4819  0.3330 -0.0322
 5070TIP3    H136769   0.944   4.357   1.913  1.8022  2.1577 -0.2964
 5070TIP3    H236770   1.052   4.257   1.947  1.0823  1.6038  0.3979
 5071TIP3   OH236771   5.059   3.912   8.373  0.2171 -0.1594 -0.3833
 5071TIP3    H136772   5.098   3.836   8.330 -2.2077 -2.4492  1.1309
 5071TIP3    H236773   5.091   3.908   8.463  1.1163  1.4907 -0.5824
 5072TIP3   OH236774   3.932   4.670   1.004  0.0722  0.2635 -0.5384
 5072TIP3    H136775   3.871   4.598   1.018 -0.6047  1.2515  2.0602
 5072TIP3    H236776   3.882   4.734   0.952 -0.6052  0.4179  0.2846
 5073TIP3   OH236777   3.963   0.902   7.921 -0.0281 -0.3468  0.0793
 5073TIP3    H136778   4.043   0.927   7.874  0.6228 -0.5998  1.0421
 5073TIP3    H236779   3.910   0.858   7.855  0.3545  0.3673 -0.7315
 5074TIP3   OH236780   6.262   0.834   8.282 -0.0770 -0.0980  0.1601
 5074TIP3    H136781   6.341   0.861   8.328  1.0575 -0.6106 -1.4291
 5074TIP3    H236782   6.193   0.891   8.318  0.1836 -1.9114  4.1136
 5075TIP3   OH236783   4.565   6.364   2.876  0.6303  0.4779 -0.0517
 5075TIP3    H136784   4.526   6.442   2.915 -0.4568  1.3497 -2.6728
 5075TIP3    H236785   4.635   6.397   2.820  0.5073 -0.4563 -0.7848
 5076TIP3   OH236786   1.642   5.844   2.546 -0.1784 -0.3483  0.5473
 5076TIP3    H136787   1.691   5.909   2.596 -0.7973 -0.7400  1.6971
 5076TIP3    H236788   1.692   5.763   2.557  0.0580 -0.2866 -0.0564
 5077TIP3   OH236789   0.759   1.180   8.218 -0.2498  0.0260  0.2498
 5077TIP3    H136790   0.792   1.238   8.287  1.6698 -0.2672 -0.3705
 5077TIP3    H236791   0.775   1.092   8.252 -0.1051 -0.1166 -0.1843
 5078TIP3   OH236792   5.123   5.314   7.457  0.5212  0.5191  0.2631
 5078TIP3    H136793   5.177   5.382   7.419  0.7385  0.5257  0.5780
 5078TIP3    H236794   5.176   5.234   7.452  0.0194  0.2287 -0.6960
 5079TIP3   OH236795   4.097   4.392   7.208  0.5876 -0.3981 -0.7427
 5079TIP3    H136796   4.024   4.395   7.269  0.4053 -1.1508 -0.9166
 5079TIP3    H236797   4.108   4.483   7.180  0.0523 -0.1993 -0.3281
 5080TIP3   OH236798   6.079   5.902   1.680 -0.6916  0.1601 -0.2891
 5080TIP3    H136799   6.100   5.995   1.677 -0.1916  0.0842  0.4730
 5080TIP3    H236800   6.066   5.877   1.588  4.7471 -0.2183 -1.2819
 5081TIP3   OH236801   2.602   3.422   1.791  0.7426  0.5863 -1.0714
 5081TIP3    H136802   2.523   3.447   1.839  0.9208  1.6421 -1.3074
 5081TIP3    H236803   2.574   3.348   1.736  0.0774  0.5550 -0.7067
 5082TIP3   OH236804   1.607   4.930   7.292  0.6587  0.6413 -0.1875
 5082TIP3    H136805   1.590   5.009   7.343 -0.1084  0.6376 -0.4338
 5082TIP3    H236806   1.525   4.881   7.294  0.7647  0.4131 -1.0230
 5083TIP3   OH236807   0.033   2.478   7.645  0.0415  0.0119 -0.1540
 5083TIP3    H136808   0.040   2.444   7.556 -0.8545  1.4663 -0.8203
 5083TIP3    H236809  -0.000   2.567   7.634 -0.9270 -0.0709  1.6742
 5084TIP3   OH236810   2.472   6.556   1.123  0.1438 -0.0433 -0.1046
 5084TIP3    H136811   2.405   6.544   1.056  0.1736  0.3994 -0.2206
 5084TIP3    H236812   2.424   6.549   1.206  0.6271 -3.9337 -0.0138
 5085TIP3   OH236813   5.115   0.752   7.849  0.0622  0.2048 -0.1205
 5085TIP3    H136814   5.139   0.798   7.930 -0.5139  0.5022 -0.1102
 5085TIP3    H236815   5.193   0.702   7.826  0.1306 -0.1332  0.7970
 5086TIP3   OH236816   3.647   5.561   2.930 -0.1006 -0.0720  0.2529
 5086TIP3    H136817   3.657   5.649   2.967 -1.8276 -0.5222  1.9432
 5086TIP3    H236818   3.598   5.575   2.848 -2.2661  0.4580  1.5388
 5087TIP3   OH236819   0.477   0.991   2.449  0.6138  0.7172  0.1925
 5087TIP3    H136820   0.483   0.986   2.354  1.2211  1.1378  0.2037
 5087TIP3    H236821   0.393   1.035   2.465 -0.4457 -1.1302 -0.0865
 5088TIP3   OH236822   6.056   4.147   7.850  0.9210  0.1887 -0.3742
 5088TIP3    H136823   6.022   4.226   7.808  2.0126  1.1562  0.4726
 5088TIP3    H236824   6.037   4.077   7.788  1.5374  1.3960 -2.0138
 5089TIP3   OH236825   4.683   1.047   7.993 -0.4076  0.2091  0.1895
 5089TIP3    H136826   4.646   1.045   8.081 -0.6085  2.1141  0.1852
 5089TIP3    H236827   4.685   1.140   7.969  1.3946 -0.0942 -1.0800
 5090TIP3   OH236828   5.872   3.891   8.842 -0.2035  0.0084  0.2073
 5090TIP3    H136829   5.794   3.939   8.813 -0.8329 -0.2079  1.4563
 5090TIP3    H236830   5.882   3.820   8.779 -2.3652 -1.3068  1.2523
 5091TIP3   OH236831   4.157   3.138   7.535  0.3407  0.4105  0.6436
 5091TIP3    H136832   4.130   3.165   7.447 -0.1963  0.0327  0.6917
 5091TIP3    H236833   4.148   3.218   7.588 -0.4920  0.3446  0.6132
 5092TIP3   OH236834   2.694   5.648   8.458 -0.0815 -0.0492 -0.0619
 5092TIP3    H136835   2.728   5.614   8.376  2.5763  1.0840  0.4500
 5092TIP3    H236836   2.600   5.627   8.457  0.2602 -1.7889 -2.4413
 5093TIP3   OH236837   1.339   1.865   2.735  0.2043 -0.7282 -0.0159
 5093TIP3    H136838   1.336   1.867   2.831  1.2204 -0.0596  0.0224
 5093TIP3    H236839   1.250   1.887   2.707  0.2727  0.7022  0.7857
 5094TIP3   OH236840   5.656   0.248   7.972 -0.3779  0.0380  0.4931
 5094TIP3    H136841   5.617   0.199   7.899 -0.6958  0.2571  0.5151
 5094TIP3    H236842   5.714   0.312   7.929  1.1223 -1.2635  0.5053
 5095TIP3   OH236843   1.311   5.269   0.080 -0.2426 -0.1098 -0.1474
 5095TIP3    H136844   1.234   5.324   0.062 -0.0458  0.1331 -0.2456
 5095TIP3    H236845   1.365   5.322   0.138 -0.6170 -0.6725  0.7496
 5096TIP3   OH236846   6.051   5.233   0.038 -0.4292  0.1975 -0.3865
 5096TIP3    H136847   5.986   5.231   0.108 -2.1492 -4.0963 -1.8096
 5096TIP3    H236848   6.118   5.171   0.066 -0.1428 -0.0901 -1.6539
 5097TIP3   OH236849   4.995   6.625   7.821  0.3752  0.0662 -0.0286
 5097TIP3    H136850   4.924   6.562   7.834  0.8989 -0.8027 -1.1734
 5097TIP3    H236851   4.975   6.667   7.737  0.3734  0.9776  0.4158
 5098TIP3   OH236852   4.435   2.074   7.776  0.2442 -0.1668 -0.1516
 5098TIP3    H136853   4.418   2.159   7.816  1.3840  2.1851 -4.1083
 5098TIP3    H236854   4.527   2.056   7.796  0.5369  0.5382 -0.7652
 5099TIP3   OH236855   6.034   3.904   6.485  0.5570  0.3551  0.3353
 5099TIP3    H136856   5.941   3.888   6.503  0.7177  1.4178  2.3725
 5099TIP3    H236857   6.049   3.994   6.515  2.4912 -0.1729  1.0595
 5100TIP3   OH236858   4.798   2.313   2.981 -0.3165  0.0412  0.0887
 5100TIP3    H136859   4.706   2.290   2.993 -0.3910  0.7987  1.0479
 5100TIP3    H236860   4.800   2.408   2.982  0.2662  0.0827 -1.6774
 5101TIP3   OH236861   3.029   6.157   8.396  0.2719  0.6455 -0.3762
 5101TIP3    H136862   3.003   6.066   8.414 -0.8365  0.9706 -0.2716
 5101TIP3    H236863   3.121   6.151   8.371  0.6709 -0.3327  1.1643
 5102TIP3   OH236864   2.335   1.334   7.901 -0.0777  0.1652 -0.1658
 5102TIP3    H136865   2.350   1.386   7.980 -1.9896 -0.2220  0.5130
 5102TIP3    H236866   2.290   1.393   7.841  2.8110  0.9824 -1.7338
 5103TIP3   OH236867   3.600   5.192   3.217 -0.3630  0.4749 -0.5695
 5103TIP3    H136868   3.556   5.223   3.296  0.1075  0.2136 -0.1990
 5103TIP3    H236869   3.616   5.270   3.165 -1.3971  0.5590 -0.7799
 5104TIP3   OH236870   1.117   6.478   7.627  0.1100  0.1024 -0.0810
 5104TIP3    H136871   1.076   6.548   7.678 -0.1771  0.0964 -0.3039
 5104TIP3    H236872   1.171   6.523   7.563 -1.9229  0.2094 -1.8170
 5105TIP3   OH236873   4.368   6.488   2.160 -0.5094  0.2773 -0.3019
 5105TIP3    H136874   4.358   6.462   2.068  2.1529  1.3242 -0.9596
 5105TIP3    H236875   4.386   6.406   2.206 -2.7399 -0.3909 -0.4666
 5106TIP3   OH236876   1.311   4.139   2.288 -0.6467 -0.1411 -0.1948
 5106TIP3    H136877   1.267   4.064   2.248 -2.0403  0.4989  0.0628
 5106TIP3    H236878   1.262   4.155   2.369  0.2622  0.4192  0.2581
 5107TIP3   OH236879   1.702   6.358   0.212  0.0234 -0.5025 -0.4403
 5107TIP3    H136880   1.767   6.338   0.145 -1.1053  0.8598 -2.0117
 5107TIP3    H236881   1.633   6.293   0.198 -0.0660 -0.4207 -0.3766
 5108TIP3   OH236882   2.912   6.031   7.455 -0.2308  0.1107  0.0401
 5108TIP3    H136883   2.853   6.060   7.524 -1.2582 -0.3450 -0.6280
 5108TIP3    H236884   2.932   6.110   7.405  0.0162  0.3281  0.4796
 5109TIP3   OH236885   4.234   0.677   7.892  0.2025 -0.3310  0.3710
 5109TIP3    H136886   4.186   0.680   7.809 -0.0853  0.2183  0.5492
 5109TIP3    H236887   4.284   0.596   7.888  0.8362  0.0876 -0.7004
 5110TIP3   OH236888   0.301   0.771   7.420 -0.0407  0.2580  0.1069
 5110TIP3    H136889   0.334   0.717   7.349 -0.4270  0.3979 -0.1834
 5110TIP3    H236890   0.206   0.769   7.410 -0.1994 -0.8695  1.4554
 5111TIP3   OH236891   5.662   0.703   7.927  0.3122 -0.3013  0.0431
 5111TIP3    H136892   5.734   0.663   7.976  1.2102  1.3306  0.1362
 5111TIP3    H236893   5.704   0.738   7.848  0.3266  3.4246  1.5312
 5112TIP3   OH236894   0.817   1.826   2.903  0.1013 -0.3277 -0.3755
 5112TIP3    H136895   0.852   1.900   2.953 -0.5762 -0.4086  0.2302
 5112TIP3    H236896   0.723   1.843   2.898 -0.0591 -1.1580 -0.2189
 5113TIP3   OH236897   2.170   3.313   0.631 -0.5034  0.0097  0.2363
 5113TIP3    H136898   2.091   3.347   0.672 -0.5161 -0.3931  0.5496
 5113TIP3    H236899   2.197   3.381   0.570 -0.4970  0.6142  0.8959
 5114TIP3   OH236900   2.746   2.257   7.391 -0.0694  0.2157  0.0688
 5114TIP3    H136901   2.795   2.329   7.353  0.8052 -0.9528 -1.1062
 5114TIP3    H236902   2.662   2.296   7.418  0.0246  1.4741 -1.3422
 5115TIP3   OH236903   5.541   5.181   8.860  0.0875  0.0559 -0.5479
 5115TIP3    H136904   5.486   5.111   8.896  0.7728 -0.1495  0.1099
 5115TIP3    H236905   5.569   5.232   8.936 -0.1179  0.8528 -0.9891
 5116TIP3   OH236906   3.997   5.469   7.306  0.0575  0.0100 -0.5184
 5116TIP3    H136907   4.063   5.450   7.240  1.3737  1.3130  0.3598
 5116TIP3    H236908   3.975   5.561   7.293  0.1520  0.2153  0.6653
 5117TIP3   OH236909   0.917   5.332   0.933 -0.6665 -0.0718 -0.0460
 5117TIP3    H136910   0.941   5.382   1.011  2.2012  1.1484 -1.5797
 5117TIP3    H236911   0.999   5.291   0.904 -1.5912 -0.3897 -2.4803
 5118TIP3   OH236912   2.970   0.238   8.564 -0.3527 -0.2788 -0.0659
 5118TIP3    H136913   3.000   0.322   8.598  2.7243 -1.5281  0.6357
 5118TIP3    H236914   2.917   0.261   8.488  1.4864  2.2821 -0.7104
 5119TIP3   OH236915   0.602   0.045   2.106 -0.3803  0.1489 -0.1943
 5119TIP3    H136916   0.586   0.134   2.073  0.0953  0.1132 -0.5245
 5119TIP3    H236917   0.695   0.030   2.092 -0.6027 -0.6924 -0.8516
 5120TIP3   OH236918   4.154   2.591   0.392 -0.6412  0.0429 -0.0994
 5120TIP3    H136919   4.067   2.629   0.380 -0.8823 -0.7362 -0.9027
 5120TIP3    H236920   4.214   2.666   0.385 -1.1416  0.3683 -1.0743
 5121TIP3   OH236921   2.084   0.197   2.601 -0.2908 -0.3733  0.1866
 5121TIP3    H136922   2.103   0.211   2.694 -0.9566  2.8231 -0.0486
 5121TIP3    H236923   2.170   0.192   2.559  0.0044 -0.9967  0.8286
 5122TIP3   OH236924   6.446   6.130   8.822  0.0176  0.2195  0.3721
 5122TIP3    H136925   6.446   6.172   8.908 -3.4126  0.1982  0.5286
 5122TIP3    H236926   6.466   6.200   8.761  0.7031  0.6302  1.0513
 5123TIP3   OH236927   1.759   4.668   0.512 -0.7081 -0.0932  0.2314
 5123TIP3    H136928   1.680   4.666   0.458 -0.9596  0.9296  0.5259
 5123TIP3    H236929   1.744   4.602   0.580 -0.5057 -1.1938 -0.7647
 5124TIP3   OH236930   1.205   0.971   7.087  0.5389 -0.1178  0.2992
 5124TIP3    H136931   1.144   0.923   7.031 -1.0360  1.4441  0.5875
 5124TIP3    H236932   1.239   1.041   7.031 -0.2436  0.8153  0.9473
 5125TIP3   OH236933   6.588   6.105   8.334 -0.7413 -0.1366  0.0288
 5125TIP3    H136934   6.533   6.083   8.409 -1.2546  1.9799  0.3541
 5125TIP3    H236935   6.657   6.160   8.371 -0.1059 -0.3331 -0.8314
 5126TIP3   OH236936   6.667   0.371   7.160 -0.5329  0.1547  0.3824
 5126TIP3    H136937   6.639   0.299   7.105 -1.1684  0.3770  0.4083
 5126TIP3    H236938   6.591   0.392   7.214  0.0802 -0.0616  1.3541
 5127TIP3   OH236939   3.094   3.346   1.190  0.7752 -0.6446  0.4355
 5127TIP3    H136940   3.020   3.362   1.133  0.2043 -0.2419  1.2723
 5127TIP3    H236941   3.121   3.433   1.220  3.3125 -0.4757 -1.9199
 5128TIP3   OH236942   0.989   0.738   1.006 -0.1137 -0.1764  0.0599
 5128TIP3    H136943   1.008   0.660   1.059 -0.3995  0.8918  1.8118
 5128TIP3    H236944   1.075   0.779   0.994 -0.3450  1.0233  2.1081
 5129TIP3   OH236945   1.169   5.678   7.429 -0.1972  0.0626 -0.4422
 5129TIP3    H136946   1.191   5.695   7.337 -1.9900 -0.4517 -1.0192
 5129TIP3    H236947   1.181   5.763   7.472 -0.6266  0.6704 -1.4614
 5130TIP3   OH236948   4.363   1.135   7.163 -0.2891 -0.1149 -0.4299
 5130TIP3    H136949   4.329   1.075   7.096  0.2248  1.6317 -2.3687
 5130TIP3    H236950   4.454   1.108   7.176 -0.3361 -0.3493 -0.5895
 5131TIP3   OH236951   0.637   0.380   7.259 -0.3367  0.4779 -0.2156
 5131TIP3    H136952   0.548   0.345   7.253  0.5424 -2.2592  1.0402
 5131TIP3    H236953   0.693   0.309   7.228  1.6084  0.5993  2.6514
 5132TIP3   OH236954   4.093   0.467   2.016  0.0996 -0.4571  0.1337
 5132TIP3    H136955   4.007   0.504   2.040  0.6319  0.0317  1.3726
 5132TIP3    H236956   4.072   0.387   1.969 -1.0550  0.0599 -0.2740
 5133TIP3   OH236957   0.275   0.234   8.377  0.0305 -0.4197  0.1584
 5133TIP3    H136958   0.296   0.303   8.440  1.1920 -0.6086  0.0133
 5133TIP3    H236959   0.254   0.158   8.431 -1.9778  0.1989  0.3313
 5134TIP3   OH236960   2.637   0.637   0.524  0.0084  0.2043 -0.4257
 5134TIP3    H136961   2.634   0.550   0.484  0.3269 -0.1171  0.2165
 5134TIP3    H236962   2.663   0.695   0.453  0.8004 -0.3869 -0.6444
 5135TIP3   OH236963   5.243   1.256   8.001  0.1322  0.2505  0.0148
 5135TIP3    H136964   5.289   1.339   7.988 -0.5833  0.6062 -0.2925
 5135TIP3    H236965   5.222   1.254   8.095 -1.3556  1.2431 -0.2577
 5136TIP3   OH236966   5.962   5.136   1.094  0.3681  0.1332  0.1935
 5136TIP3    H136967   6.047   5.110   1.130 -1.3612 -2.5292  2.8516
 5136TIP3    H236968   5.949   5.077   1.020 -0.0569 -1.0687  1.1900
 5137TIP3   OH236969   2.823   2.335   8.190 -0.7372  0.3273 -0.2303
 5137TIP3    H136970   2.875   2.306   8.265 -0.1090  1.3612 -0.2456
 5137TIP3    H236971   2.886   2.375   8.131 -1.3179  0.0537 -1.0481
 5138TIP3   OH236972   3.370   4.784   0.335  0.4217 -0.3492  0.5526
 5138TIP3    H136973   3.377   4.800   0.241 -1.8959  0.7882  0.5011
 5138TIP3    H236974   3.389   4.869   0.376  2.3283 -1.0367  1.2358
 5139TIP3   OH236975   0.693   3.752   1.650 -0.0967 -0.2020  0.4746
 5139TIP3    H136976   0.726   3.730   1.737  0.1761  0.3378  0.5161
 5139TIP3    H236977   0.662   3.669   1.614  0.2500 -0.5198  0.8923
 5140TIP3   OH236978   2.553   4.344   2.352  0.0372 -0.2192  0.0592
 5140TIP3    H136979   2.581   4.359   2.442  0.1321 -1.4423  0.2480
 5140TIP3    H236980   2.590   4.259   2.329  0.0834  0.1111 -1.1721
 5141TIP3   OH236981   2.998   3.735   1.549  0.0004 -0.9247  0.6950
 5141TIP3    H136982   2.974   3.755   1.639 -0.9072 -0.3187  0.3291
 5141TIP3    H236983   3.087   3.771   1.539 -1.0357  1.7934  0.4831
 5142TIP3   OH236984   1.511   3.811   6.870 -0.2349 -0.4962 -0.0511
 5142TIP3    H136985   1.503   3.758   6.791  0.6574 -0.8179  0.0610
 5142TIP3    H236986   1.533   3.899   6.838  0.4360 -0.6971 -0.1545
 5143TIP3   OH236987   6.402   6.222   0.204 -0.2417 -0.1178 -0.3500
 5143TIP3    H136988   6.408   6.315   0.225 -0.3218 -0.3706  0.8627
 5143TIP3    H236989   6.454   6.178   0.272 -1.2935 -1.0463 -0.1151
 5144TIP3   OH236990   0.621   1.181   7.671  0.0331  0.3029  0.9221
 5144TIP3    H136991   0.715   1.165   7.684  0.4433  1.6244 -0.1567
 5144TIP3    H236992   0.616   1.218   7.583 -1.2966  1.9772  1.6704
 5145TIP3   OH236993   2.344   1.865   0.831  0.8514 -0.2364  0.5767
 5145TIP3    H136994   2.264   1.835   0.873  0.7315 -0.5788  0.1093
 5145TIP3    H236995   2.414   1.818   0.878  0.6978 -0.8685  0.1916
 5146TIP3   OH236996   6.160   0.202   0.930  0.6618  0.1399 -0.2477
 5146TIP3    H136997   6.072   0.226   0.958  0.3775  1.7351 -2.2321
 5146TIP3    H236998   6.177   0.117   0.971 -1.8541 -0.3040  0.0000
 5147TIP3   OH236999   4.192   6.769   1.839  0.0670 -0.7260 -0.0014
 5147TIP3    H137000   4.121   6.797   1.897 -0.0319 -0.7395 -0.1174
 5147TIP3    H237001   4.225   6.850   1.800  0.7280 -0.6128  0.7534
 5148TIP3   OH237002   2.828   2.723   2.088 -0.0586  0.3691  0.7280
 5148TIP3    H137003   2.812   2.668   2.165 -0.4000 -0.3448  0.1636
 5148TIP3    H237004   2.923   2.722   2.077 -0.0588 -0.0742  0.7510
 5149TIP3   OH237005   3.901   1.084   1.208  0.0427 -0.0274  0.9604
 5149TIP3    H137006   3.839   1.057   1.140  1.5601  0.4735 -0.7068
 5149TIP3    H237007   3.853   1.149   1.260 -1.1434 -0.3804  0.3501
 5150TIP3   OH237008   5.846   5.618   1.795  0.1592  0.4970  0.0686
 5150TIP3    H137009   5.794   5.628   1.875  0.2873  1.1578  0.0724
 5150TIP3    H237010   5.853   5.706   1.759  1.6210  0.5060  0.2872
 5151TIP3   OH237011   0.684   6.339   1.053 -0.1148 -0.4739 -0.3709
 5151TIP3    H137012   0.616   6.291   1.006  1.4734 -0.2240 -3.1382
 5151TIP3    H237013   0.742   6.272   1.087  1.1260 -0.6845 -2.7028
 5152TIP3   OH237014   6.324   0.452   1.033  0.3265  0.1169 -0.1291
 5152TIP3    H137015   6.340   0.528   1.090  0.9012  1.2452 -1.7138
 5152TIP3    H237016   6.229   0.449   1.025  0.3282  1.7042 -1.3059
 5153TIP3   OH237017   5.185   5.082   8.838 -0.3966  0.5510 -0.4486
 5153TIP3    H137018   5.165   5.133   8.916  1.9818  1.8753 -0.6144
 5153TIP3    H237019   5.266   5.035   8.860 -0.8596 -0.7536 -1.3885
 5154TIP3   OH237020   6.034   0.224   2.075  0.5805 -0.3265  0.3128
 5154TIP3    H137021   6.070   0.136   2.078  1.5540  0.0707  2.6229
 5154TIP3    H237022   6.099   0.278   2.122 -0.7557  1.3024  0.3816
 5155TIP3   OH237023   0.652   1.548   7.753  0.0768  0.1775 -0.7046
 5155TIP3    H137024   0.706   1.509   7.684  1.7398 -0.6307  0.9945
 5155TIP3    H237025   0.604   1.618   7.708  1.5776  0.1095 -2.5367
 5156TIP3   OH237026   2.274   4.498   1.245  0.3956  0.3764  0.4798
 5156TIP3    H137027   2.308   4.490   1.155  1.1814 -0.6252  0.8427
 5156TIP3    H237028   2.205   4.564   1.239  0.0723 -0.0568 -0.9635
 5157TIP3   OH237029   3.194   4.800   1.795  0.3943  0.0788  0.1602
 5157TIP3    H137030   3.185   4.862   1.723  0.5843 -0.5962 -0.4548
 5157TIP3    H237031   3.157   4.846   1.871  0.1229  0.7673 -0.3762
 5158TIP3   OH237032   1.745   6.145   1.894 -0.6103  0.0853  0.1638
 5158TIP3    H137033   1.770   6.075   1.954 -0.9956 -0.5934 -0.4573
 5158TIP3    H237034   1.679   6.195   1.943 -2.0417 -1.3451 -0.2030
 5159TIP3   OH237035   0.013   0.794   0.923  0.2959 -0.1522  0.5961
 5159TIP3    H137036   0.106   0.772   0.922  0.2934 -0.1587  0.2292
 5159TIP3    H237037  -0.026   0.728   0.979  0.3699 -0.7756 -0.0612
 5160TIP3   OH237038   0.287   1.313   2.526  0.0908 -0.2285 -0.3332
 5160TIP3    H137039   0.298   1.300   2.620  0.9109 -1.1282 -0.5450
 5160TIP3    H237040   0.224   1.385   2.520  2.6528  2.3208  0.9386
 5161TIP3   OH237041   4.788   0.894   8.743  0.2620 -0.1540 -0.2538
 5161TIP3    H137042   4.757   0.852   8.663  1.6574 -0.9232 -0.4341
 5161TIP3    H237043   4.819   0.821   8.797  0.6822  0.4770  0.3611
 5162TIP3   OH237044   1.316   6.670   0.732  0.6323  0.0621 -0.0804
 5162TIP3    H137045   1.265   6.649   0.654  0.8849  0.4169 -0.3490
 5162TIP3    H237046   1.259   6.727   0.783  1.4590  2.1428 -1.3388
 5163TIP3   OH237047   3.963   0.088   1.492 -0.0501  0.2476 -0.1625
 5163TIP3    H137048   4.007   0.171   1.476  0.6758  0.1752  1.3659
 5163TIP3    H237049   3.881   0.095   1.443  0.7449  1.1771 -1.4227
 5164TIP3   OH237050   5.215   5.221   2.802  0.0815 -0.6982 -0.1973
 5164TIP3    H137051   5.176   5.303   2.774  0.6166 -0.1868  0.5159
 5164TIP3    H237052   5.187   5.157   2.736 -1.8852 -0.3559  0.2429
 5165TIP3   OH237053   0.697   3.945   8.425 -0.2251 -0.1223  0.2271
 5165TIP3    H137054   0.653   3.879   8.371  1.4656 -1.9278  0.9126
 5165TIP3    H237055   0.690   3.912   8.515 -2.6805  2.6488  1.2059
 5166TIP3   OH237056   6.422   5.582   8.353 -0.1004  0.4838 -0.1591
 5166TIP3    H137057   6.332   5.548   8.349  0.2125 -0.5887  1.1536
 5166TIP3    H237058   6.419   5.649   8.421  0.5449 -1.2372  1.6768
 5167TIP3   OH237059   6.494   1.768   0.940 -0.4054  0.1648  0.1503
 5167TIP3    H137060   6.588   1.757   0.926  0.1174  4.6822 -1.4583
 5167TIP3    H237061   6.488   1.817   1.022 -1.3701 -0.0885  0.2456
 5168TIP3   OH237062   6.535   0.112   8.845 -0.3568  0.0733 -0.0083
 5168TIP3    H137063   6.560   0.042   8.784  2.3219  0.7383  0.2141
 5168TIP3    H237064   6.520   0.188   8.788 -0.1407  0.1043 -0.0258
 5169TIP3   OH237065   5.195   2.787   1.364  0.1572  0.2901 -0.3092
 5169TIP3    H137066   5.204   2.706   1.315 -1.4368 -1.3976  1.9491
 5169TIP3    H237067   5.219   2.763   1.454  0.1384  2.4592  0.3346
 5170TIP3   OH237068   3.335   5.896   1.294 -0.2337 -0.1496 -0.1868
 5170TIP3    H137069   3.308   5.816   1.341  0.3879  0.0866  0.5989
 5170TIP3    H237070   3.356   5.958   1.364  1.2485  0.0456 -0.7793
 5171TIP3   OH237071   5.258   3.454   0.968 -0.2405  0.3912 -0.0656
 5171TIP3    H137072   5.244   3.383   1.031  2.7180  0.3006  0.6341
 5171TIP3    H237073   5.270   3.410   0.884  0.7464  0.0848  0.2214
 5172TIP3   OH237074   3.726   3.990   8.280 -0.1522  0.9017 -0.4067
 5172TIP3    H137075   3.739   4.007   8.373  2.5331 -2.0259 -0.0669
 5172TIP3    H237076   3.672   3.911   8.277 -1.5649  1.8705 -1.4306
 5173TIP3   OH237077   1.830   5.607   7.779  0.3293  0.1283 -0.5051
 5173TIP3    H137078   1.811   5.532   7.835 -2.2541  0.6325 -0.5695
 5173TIP3    H237079   1.787   5.587   7.695  0.2428  1.3098 -0.7711
 5174TIP3   OH237080   5.723   6.147   0.906  0.4663  0.3387 -0.0432
 5174TIP3    H137081   5.669   6.206   0.853  3.0859  0.1615 -3.1875
 5174TIP3    H237082   5.772   6.206   0.964  1.4483  1.1702 -1.6235
 5175TIP3   OH237083   2.781   3.373   7.717 -0.5919 -0.0060 -0.2435
 5175TIP3    H137084   2.863   3.325   7.728 -0.3026  0.4896 -0.1998
 5175TIP3    H237085   2.728   3.347   7.793 -0.1538  0.3058  0.1757
 5176TIP3   OH237086   3.190   1.129   2.555 -0.4593 -0.1499  0.5651
 5176TIP3    H137087   3.259   1.064   2.565 -1.4189 -0.9815  2.1899
 5176TIP3    H237088   3.142   1.102   2.476  0.7838  0.2091 -0.3421
 5177TIP3   OH237089   1.219   2.845   0.123 -0.3627 -0.1182 -0.4455
 5177TIP3    H137090   1.299   2.877   0.081  0.0651 -0.5522  0.0204
 5177TIP3    H237091   1.213   2.753   0.096  0.2994 -0.6089  0.9665
 5178TIP3   OH237092   3.398   5.891   7.704 -0.6169  0.2798  0.3901
 5178TIP3    H137093   3.324   5.871   7.646 -0.6624 -1.7748  1.0815
 5178TIP3    H237094   3.373   5.853   7.788  0.5739  0.9348  1.0609
 5179TIP3   OH237095   6.227   1.354   2.307 -0.2055 -0.1584 -0.2294
 5179TIP3    H137096   6.260   1.280   2.256  0.6092  0.4182 -0.5618
 5179TIP3    H237097   6.166   1.315   2.370  0.1928 -1.1045 -0.4153
 5180TIP3   OH237098   6.675   1.637   1.291 -0.3762 -0.1342 -0.1699
 5180TIP3    H137099   6.664   1.542   1.282 -1.1868 -0.1247  0.5364
 5180TIP3    H237100   6.767   1.653   1.270 -0.3057 -1.0381 -0.5939
 5181TIP3   OH237101   2.822   1.101   0.479  0.6619  0.0388  0.2297
 5181TIP3    H137102   2.818   1.182   0.530 -1.3906  0.8694 -1.1273
 5181TIP3    H237103   2.879   1.122   0.405  0.0635  0.2795 -0.1660
 5182TIP3   OH237104   5.404   4.836   7.621  0.4654  0.1915  0.1056
 5182TIP3    H137105   5.497   4.822   7.602  0.4668  1.0659 -0.6080
 5182TIP3    H237106   5.403   4.861   7.713  1.2024  2.2399 -0.3901
 5183TIP3   OH237107   0.413   3.709   2.781  0.0460 -0.2373 -0.7632
 5183TIP3    H137108   0.432   3.627   2.826  0.2103 -0.0876 -0.5605
 5183TIP3    H237109   0.486   3.767   2.804 -0.8144  0.4595  0.3065
 5184TIP3   OH237110   2.129   6.134   0.194  0.2548  0.1165 -0.0451
 5184TIP3    H137111   2.037   6.114   0.179  0.2310 -0.1299  0.4019
 5184TIP3    H237112   2.175   6.051   0.179  0.1902 -0.2410  1.5035
 5185TIP3   OH237113   5.547   1.173   1.879  0.0085 -0.0986 -0.1184
 5185TIP3    H137114   5.494   1.167   1.799  0.7134 -1.1985 -0.5255
 5185TIP3    H237115   5.540   1.265   1.906 -1.7445 -0.1105 -0.3927
 5186TIP3   OH237116   6.641   1.870   0.558  0.0816 -0.1576  0.4303
 5186TIP3    H137117   6.693   1.912   0.627  2.0794  0.0558 -1.1026
 5186TIP3    H237118   6.657   1.777   0.569  3.1185 -0.0376 -1.5574
 5187TIP3   OH237119   5.597   0.219   8.612 -0.0622  0.3684 -0.4512
 5187TIP3    H137120   5.684   0.195   8.581 -0.0118  0.2598 -0.2336
 5187TIP3    H237121   5.536   0.168   8.558 -0.0360  1.2709 -1.3457
 5188TIP3   OH237122   0.895   6.571   8.198 -0.0334  0.3213  0.1777
 5188TIP3    H137123   0.919   6.647   8.251 -2.2221  0.4862  1.0377
 5188TIP3    H237124   0.931   6.591   8.111  1.1731  1.3735  0.8796
 5189TIP3   OH237125   5.706   3.953   2.189 -0.0655  0.1876  0.2909
 5189TIP3    H137126   5.706   3.863   2.157  0.6697  0.0286  0.7221
 5189TIP3    H237127   5.720   4.007   2.111 -2.3330  0.0599 -0.2641
 5190TIP3   OH237128   5.467   1.918   0.578  0.0208  0.0950 -0.2359
 5190TIP3    H137129   5.503   1.891   0.494 -2.6038 -3.3014 -0.4743
 5190TIP3    H237130   5.516   1.867   0.642 -2.1763 -2.3563 -0.3516
 5191TIP3   OH237131   3.334   2.055   1.039  0.6925  0.0659  0.8848
 5191TIP3    H137132   3.255   2.108   1.051  0.4658 -0.7379  3.5742
 5191TIP3    H237133   3.305   1.979   0.990  0.9305  2.0466 -2.6471
 5192TIP3   OH237134   2.489   4.888   3.053 -1.0913  0.4914  0.2963
 5192TIP3    H137135   2.503   4.795   3.036 -0.6586  0.3220  1.5436
 5192TIP3    H237136   2.406   4.893   3.099 -1.1015  0.7234  0.2573
 5193TIP3   OH237137   3.311   6.290   1.013  0.0221 -0.1816 -0.2245
 5193TIP3    H137138   3.247   6.222   1.035 -0.4051 -1.2250 -3.8869
 5193TIP3    H237139   3.391   6.263   1.058 -0.9064 -1.4818  0.7174
 5194TIP3   OH237140   3.142   2.516   7.427 -0.4892 -0.0382 -0.2448
 5194TIP3    H137141   3.127   2.428   7.462 -0.1810 -0.8957 -2.1031
 5194TIP3    H237142   3.054   2.549   7.409 -0.6994  0.7239  1.8953
 5195TIP3   OH237143   4.812   5.367   2.848  0.0796  0.2045  0.4136
 5195TIP3    H137144   4.761   5.287   2.860 -1.3322  0.8361 -0.9776
 5195TIP3    H237145   4.869   5.348   2.773 -0.3362  0.5289  0.0127
 5196TIP3   OH237146   2.228   4.664   0.955  0.0290 -0.0713  0.3866
 5196TIP3    H137147   2.232   4.681   0.861  2.4071  0.1267  0.4626
 5196TIP3    H237148   2.317   4.641   0.980 -0.9253 -2.1872  2.2584
 5197TIP3   OH237149   1.884   3.303   8.588  0.0487  0.5815  0.3302
 5197TIP3    H137150   1.880   3.385   8.637  0.4142  1.1777 -0.6271
 5197TIP3    H237151   1.913   3.328   8.500  0.1411 -0.5658  0.0168
 5198TIP3   OH237152   0.514   3.859   8.238 -0.0148 -0.3955 -0.1899
 5198TIP3    H137153   0.522   3.857   8.143 -0.2902 -1.0542 -0.2062
 5198TIP3    H237154   0.448   3.792   8.257 -1.2536  0.9197  0.3291
 5199TIP3   OH237155   1.178   4.233   8.685  0.5618 -0.6243 -0.0308
 5199TIP3    H137156   1.212   4.150   8.719  0.0327 -0.3689  1.1822
 5199TIP3    H237157   1.139   4.276   8.761  1.3512  1.0168 -0.5018
 5200TIP3   OH237158   0.633   0.684   0.242  0.0833 -0.4532 -0.3514
 5200TIP3    H137159   0.559   0.664   0.185 -0.9384 -0.6285  0.9742
 5200TIP3    H237160   0.660   0.599   0.276  1.0243 -0.4082 -0.9556
 5201TIP3   OH237161   1.169   1.586   2.881 -0.3054  0.4581  0.2380
 5201TIP3    H137162   1.200   1.665   2.837  0.1899 -0.7236 -1.6529
 5201TIP3    H237163   1.241   1.560   2.938  0.2461  0.3963 -0.4797
 5202TIP3   OH237164   1.591   0.701   0.503 -0.2492 -0.4363  0.4862
 5202TIP3    H137165   1.530   0.628   0.506  0.3251 -0.9442 -0.0454
 5202TIP3    H237166   1.667   0.668   0.455  0.7095 -0.0148  1.6645
 5203TIP3   OH237167   0.910   3.791   7.041 -0.9117  0.0925 -0.3505
 5203TIP3    H137168   0.970   3.865   7.042  0.6588 -1.1138 -0.3846
 5203TIP3    H237169   0.835   3.820   6.990 -0.5520  1.8031  0.0547
 5204TIP3   OH237170   6.124   6.051   0.636  0.0363 -0.9254 -0.1723
 5204TIP3    H137171   6.090   6.134   0.604  0.0075 -1.4431 -1.5676
 5204TIP3    H237172   6.149   6.068   0.727 -0.6806  0.3883 -0.2012
 5205TIP3   OH237173   4.578   5.036   1.314 -0.3598 -0.0423 -0.0397
 5205TIP3    H137174   4.656   5.048   1.259 -0.8116  2.0915 -0.2961
 5205TIP3    H237175   4.610   5.048   1.404  0.4273 -3.7685  0.3576
 5206TIP3   OH237176   4.415   1.007   1.751 -0.1219  0.1462 -0.3931
 5206TIP3    H137177   4.416   1.095   1.713  0.8708 -0.0661 -0.9148
 5206TIP3    H237178   4.490   1.007   1.811 -0.6816 -0.0563  0.3121
 5207TIP3   OH237179   0.492   0.957   7.564 -0.2697 -0.1162 -0.1339
 5207TIP3    H137180   0.468   0.880   7.616 -1.0709 -0.0766 -0.4345
 5207TIP3    H237181   0.536   1.015   7.625 -1.2835 -0.0297  0.5413
 5208TIP3   OH237182   2.802   1.288   6.561  0.2106  0.1168 -0.2889
 5208TIP3    H137183   2.816   1.365   6.507 -0.6372 -0.2450 -1.0459
 5208TIP3    H237184   2.714   1.257   6.538  1.0742 -1.9043 -1.0745
 5209TIP3   OH237185   3.112   5.683   2.040  0.2983  1.0464 -0.1626
 5209TIP3    H137186   3.151   5.606   2.081 -2.3567 -0.6933 -0.6233
 5209TIP3    H237187   3.186   5.741   2.020  2.3965 -1.3513  0.2247
 5210TIP3   OH237188   0.638   1.956   0.488  0.1180  0.5645  0.8615
 5210TIP3    H137189   0.700   2.028   0.471 -1.7401  2.1899  0.5670
 5210TIP3    H237190   0.657   1.892   0.420  0.8681  1.4471  0.2030
 5211TIP3   OH237191   6.050   3.805   7.365 -0.7635  0.2876 -0.2280
 5211TIP3    H137192   6.044   3.850   7.450  0.0196 -1.5784  0.8724
 5211TIP3    H237193   5.969   3.753   7.360 -0.2551 -0.5426 -0.0317
 5212TIP3   OH237194   3.246   3.630   1.253 -0.1136 -1.2242  0.3478
 5212TIP3    H137195   3.282   3.667   1.334 -1.7865  0.4084  0.4218
 5212TIP3    H237196   3.322   3.602   1.203  1.3458  2.3389  0.3221
 5213TIP3   OH237197   6.035   4.590   7.571  0.2676  0.3280  0.0081
 5213TIP3    H137198   5.948   4.563   7.542  0.7282  0.2691 -1.4153
 5213TIP3    H237199   6.095   4.540   7.515  1.2913 -1.0881  2.2228
 5214TIP3   OH237200   5.462   0.940   2.025  0.1764  0.1456 -0.3880
 5214TIP3    H137201   5.415   0.906   2.101 -1.0642 -0.4181 -1.3756
 5214TIP3    H237202   5.419   1.023   2.006  2.7307  2.0925  1.5731
 5215TIP3   OH237203   4.559   1.105   6.762 -0.3421  0.0395 -0.2799
 5215TIP3    H137204   4.575   1.025   6.813  0.1326 -0.3681 -1.0446
 5215TIP3    H237205   4.612   1.172   6.806 -0.2847 -0.2033  0.0259
 5216TIP3   OH237206   3.135   6.114   8.121  0.2262 -0.1351  0.8803
 5216TIP3    H137207   3.150   6.066   8.040  0.5520  0.0473  0.8279
 5216TIP3    H237208   3.042   6.101   8.141  0.1498 -0.1893  0.4873
 5217TIP3   OH237209   2.266   5.180   7.907 -0.2686 -0.6868 -0.3955
 5217TIP3    H137210   2.352   5.172   7.948 -0.3761  2.4197  0.6709
 5217TIP3    H237211   2.282   5.223   7.823 -0.7199 -0.8552 -0.5755
 5218TIP3   OH237212   0.690   4.469   8.330 -0.3229 -0.2198 -0.3408
 5218TIP3    H137213   0.758   4.506   8.274  0.2388  0.5709  0.8239
 5218TIP3    H237214   0.629   4.542   8.346  0.3757  0.0529  1.3375
 5219TIP3   OH237215   1.615   2.126   6.775 -0.5213 -0.0112  0.5698
 5219TIP3    H137216   1.684   2.189   6.794 -0.6386  0.2279  0.2174
 5219TIP3    H237217   1.635   2.050   6.830  0.8845 -0.5698 -0.6543
 5220TIP3   OH237218   4.334   5.584   7.972 -0.0227  0.5534 -0.1952
 5220TIP3    H137219   4.294   5.499   7.955 -2.0313  0.9150  2.1451
 5220TIP3    H237220   4.262   5.647   7.965  0.5917  1.5591  1.7596
 5221TIP3   OH237221   5.258   1.695   7.701  0.2676  0.1188 -0.5109
 5221TIP3    H137222   5.196   1.739   7.759  0.1998 -1.4181  0.6553
 5221TIP3    H237223   5.287   1.763   7.640 -0.5486  1.5078  0.5933
 5222TIP3   OH237224   2.040   6.322   1.670  0.2446  0.0588  0.1549
 5222TIP3    H137225   2.038   6.226   1.662 -1.7181  0.2308 -3.1645
 5222TIP3    H237226   1.969   6.342   1.732 -0.0997 -0.5907 -0.0177
 5223TIP3   OH237227   0.680   6.787   2.821  0.3509  0.0018  0.0115
 5223TIP3    H137228   0.591   6.818   2.840  0.6405  0.6514  0.3108
 5223TIP3    H237229   0.673   6.750   2.733 -0.6225 -1.5528  0.6959
 5224TIP3   OH237230   6.598   4.077   1.480 -0.0000 -0.2249 -0.4334
 5224TIP3    H137231   6.663   4.143   1.457  1.0603 -1.2678 -0.4927
 5224TIP3    H237232   6.554   4.057   1.398  0.0228  0.0373 -0.5107
 5225TIP3   OH237233   4.442   4.216   7.668  0.1146 -0.1499 -0.2557
 5225TIP3    H137234   4.465   4.168   7.748 -0.3361 -1.2671 -0.7850
 5225TIP3    H237235   4.526   4.242   7.631  0.3196  0.7705  0.8024
 5226TIP3   OH237236   5.576   5.012   1.777 -0.2928  0.1776  1.1314
 5226TIP3    H137237   5.523   4.969   1.844 -1.1243 -1.1300 -0.2912
 5226TIP3    H237238   5.512   5.045   1.714  0.5188  0.1070  0.2516
 5227TIP3   OH237239   6.527   4.480   1.981 -0.3994  0.6219 -0.3025
 5227TIP3    H137240   6.538   4.469   1.886  1.0294  2.3264 -0.4005
 5227TIP3    H237241   6.571   4.405   2.019 -2.2656 -0.8882 -0.9585
 5228TIP3   OH237242   3.715   6.030   0.390 -0.7372 -0.3200  0.3157
 5228TIP3    H137243   3.779   6.041   0.461 -0.5888 -1.9828  0.4716
 5228TIP3    H237244   3.647   6.095   0.409 -0.1145  0.0697  1.3032
 5229TIP3   OH237245   2.253   4.426   1.746  0.4094 -0.4147 -0.2657
 5229TIP3    H137246   2.234   4.428   1.652  0.7661  1.3293 -0.3401
 5229TIP3    H237247   2.346   4.408   1.751  0.3224 -0.8538 -0.2335
 5230TIP3   OH237248   0.854   0.636   1.670  0.2449 -0.6471 -0.1904
 5230TIP3    H137249   0.815   0.664   1.588 -0.5275 -1.3278 -0.0789
 5230TIP3    H237250   0.788   0.656   1.736  1.5039  1.4206  0.5400
 5231TIP3   OH237251   0.617   5.230   1.215  0.2497  0.0139 -0.3595
 5231TIP3    H137252   0.608   5.165   1.285  1.6193 -0.4051 -0.5464
 5231TIP3    H237253   0.656   5.182   1.143  0.6021  0.8839 -0.7561
 5232TIP3   OH237254   4.346   6.110   1.892 -0.4369  0.4147 -0.1190
 5232TIP3    H137255   4.429   6.063   1.905 -0.2288  0.6979 -0.4060
 5232TIP3    H237256   4.355   6.149   1.805 -1.3464 -0.5211 -0.6525
 5233TIP3   OH237257   1.145   0.748   1.745  0.0157 -0.5479 -0.2121
 5233TIP3    H137258   1.061   0.706   1.763  1.5716 -3.9692 -0.1224
 5233TIP3    H237259   1.210   0.679   1.758  2.6700  1.1598 -2.9094
 5234TIP3   OH237260   1.234   4.325   7.839  0.0955  0.0731  0.0999
 5234TIP3    H137261   1.296   4.252   7.838  0.7110  0.5396 -1.9373
 5234TIP3    H237262   1.239   4.361   7.750 -2.0960  0.9931  0.2894
 5235TIP3   OH237263   0.661   0.143   8.715 -0.1531  0.0516 -0.2426
 5235TIP3    H137264   0.670   0.080   8.786  0.1977 -0.1526 -0.4665
 5235TIP3    H237265   0.736   0.201   8.724 -0.2412  0.1773 -0.3011
 5236TIP3   OH237266   2.552   5.495   1.455 -0.2687  0.4605 -0.3965
 5236TIP3    H137267   2.494   5.542   1.515 -1.2034  1.4397 -1.9715
 5236TIP3    H237268   2.496   5.430   1.413  0.1618  0.3077 -0.7466
 5237TIP3   OH237269   1.723   6.535   2.087  0.1230 -0.2770  0.2431
 5237TIP3    H137270   1.675   6.484   2.152 -3.0675  1.8601 -0.1911
 5237TIP3    H237271   1.767   6.603   2.138 -0.4200 -0.0185  0.3755
 5238TIP3   OH237272   4.081   2.447   0.011  0.1242 -0.3077  0.5053
 5238TIP3    H137273   4.000   2.400  -0.011  0.0053 -0.3614  1.0358
 5238TIP3    H237274   4.059   2.539  -0.002  0.5233 -0.4162 -1.0588
 5239TIP3   OH237275   3.829   0.792   1.022 -0.2950  0.0205  0.0767
 5239TIP3    H137276   3.853   0.729   1.090  0.4164  0.7533  0.5222
 5239TIP3    H237277   3.775   0.857   1.067 -0.5249  0.0631 -0.2511
 5240TIP3   OH237278   4.571   4.685   0.540 -0.2629 -0.4428  0.2144
 5240TIP3    H137279   4.595   4.725   0.624  0.8660 -0.6543  0.0157
 5240TIP3    H237280   4.500   4.625   0.561 -1.4943  1.1053  0.6437
 5241TIP3   OH237281   1.651   2.484   6.981  0.1812  0.4971  0.5117
 5241TIP3    H137282   1.690   2.399   6.962  0.5181  1.0335 -1.3061
 5241TIP3    H237283   1.716   2.547   6.951 -0.8079  1.3949  0.2213
 5242TIP3   OH237284   1.637   0.065   7.996 -0.3288 -0.0882  0.0921
 5242TIP3    H137285   1.592   0.135   8.043 -1.0310 -0.0604 -0.5931
 5242TIP3    H237286   1.571   0.030   7.936  0.3016 -0.6645 -0.2817
 5243TIP3   OH237287   3.695   5.220   0.629  0.4339 -0.4034 -0.2670
 5243TIP3    H137288   3.693   5.298   0.573 -1.5555  0.2177  0.5706
 5243TIP3    H237289   3.675   5.147   0.570 -0.6650  0.1161 -0.5658
 5244TIP3   OH237290   6.208   2.347   8.402  0.3916 -0.1334  0.3324
 5244TIP3    H137291   6.276   2.281   8.418  0.4204  0.1753  1.6117
 5244TIP3    H237292   6.237   2.393   8.323  0.8352 -1.0458 -0.0535
 5245TIP3   OH237293   4.826   0.632   8.858 -1.1184 -0.1927 -0.1511
 5245TIP3    H137294   4.911   0.668   8.883 -0.1634 -1.7565 -0.9652
 5245TIP3    H237295   4.799   0.580   8.933 -1.4513  0.4470  0.1769
 5246TIP3   OH237296   1.463   5.590   1.028 -0.4278 -0.1021  0.4524
 5246TIP3    H137297   1.429   5.673   0.994  0.3074  0.5825  1.3425
 5246TIP3    H237298   1.442   5.526   0.960 -0.2772  0.9671 -0.6371
 5247TIP3   OH237299   3.925   4.962   1.531 -0.1675 -0.2123 -0.0358
 5247TIP3    H137300   3.840   4.920   1.518 -0.4787  0.1296  0.8083
 5247TIP3    H237301   3.940   5.012   1.450  0.2195 -1.9243 -1.0625
 5248TIP3   OH237302   1.411   1.914   7.054 -0.3333 -0.0880  0.0356
 5248TIP3    H137303   1.388   1.982   6.991 -0.7121 -1.6709 -1.6480
 5248TIP3    H237304   1.505   1.901   7.042 -0.2580  0.1672  0.3678
 5249TIP3   OH237305   2.465   2.382   8.681 -0.1665 -0.6022  0.0673
 5249TIP3    H137306   2.555   2.394   8.650 -0.1742  2.4770  0.8979
 5249TIP3    H237307   2.472   2.315   8.748  1.2050 -1.6279 -1.0399
 5250TIP3   OH237308   1.679   2.379   7.718 -0.0602 -0.1725 -0.3572
 5250TIP3    H137309   1.618   2.418   7.655 -0.6152 -0.3689  0.0482
 5250TIP3    H237310   1.696   2.449   7.781 -0.2762 -0.2728 -0.1847
 5251TIP3   OH237311   2.123   3.351   1.018  0.7486  0.6908 -0.5825
 5251TIP3    H137312   2.054   3.291   0.991 -0.9269  1.3176  2.0066
 5251TIP3    H237313   2.195   3.294   1.047 -0.4167 -0.1063  0.8600
 5252TIP3   OH237314   5.388   3.577   7.708 -0.2902 -0.0595  0.3269
 5252TIP3    H137315   5.470   3.619   7.735  0.5913 -1.4484 -0.0427
 5252TIP3    H237316   5.324   3.648   7.703  1.2034  1.2913 -0.6629
 5253TIP3   OH237317   0.692   1.036   2.184  0.6120 -0.9332 -0.1111
 5253TIP3    H137318   0.716   0.958   2.134 -0.0363 -0.5947 -0.9750
 5253TIP3    H237319   0.596   1.040   2.179  0.5532 -0.7042  0.8908
 5254TIP3   OH237320   0.605   0.418   1.183 -0.7200 -0.0323  0.7750
 5254TIP3    H137321   0.549   0.340   1.178 -1.2838  0.2794  1.8769
 5254TIP3    H237322   0.547   0.491   1.159 -0.1470  0.0452 -0.4397
 5255TIP3   OH237323   0.958   3.737   1.545 -0.0741 -0.2437  0.5436
 5255TIP3    H137324   0.936   3.711   1.455  0.9412 -1.1827  0.5384
 5255TIP3    H237325   0.876   3.727   1.593 -0.5882  0.0851 -0.2377
 5256TIP3   OH237326   5.505   1.989   8.737  0.0313 -0.4734  0.1583
 5256TIP3    H137327   5.449   2.066   8.748  0.6520 -0.0616  0.4943
 5256TIP3    H237328   5.589   2.016   8.774  0.5902 -0.9180 -0.7633
 5257TIP3   OH237329   3.031   6.444   2.035  0.0031  0.8712 -0.6553
 5257TIP3    H137330   3.052   6.466   1.944 -1.9002  2.4167 -0.7769
 5257TIP3    H237331   3.109   6.470   2.084 -0.0812  2.9100 -1.5075
 5258TIP3   OH237332   1.236   3.431   2.129 -0.7054  0.0982 -0.0442
 5258TIP3    H137333   1.205   3.425   2.219 -0.5942 -2.0252 -0.0981
 5258TIP3    H237334   1.218   3.521   2.104  0.1981  1.0575  2.4168
 5259TIP3   OH237335   3.246   3.214   0.395 -0.0925  1.0288  0.1908
 5259TIP3    H137336   3.199   3.160   0.332  0.8511  0.9024 -0.4266
 5259TIP3    H237337   3.271   3.292   0.347  0.1547  1.1841  0.5652
 5260TIP3   OH237338   0.434   3.744   8.842 -0.0886 -0.3191 -0.6523
 5260TIP3    H137339   0.445   3.764   8.935 -1.1978  1.0592 -0.7788
 5260TIP3    H237340   0.346   3.775   8.822 -0.9713 -3.1333 -1.5426
 5261TIP3   OH237341   2.588   1.031   1.754 -0.2517  0.6425 -0.3008
 5261TIP3    H137342   2.548   0.962   1.806  0.7998 -0.3732 -0.7872
 5261TIP3    H237343   2.660   1.063   1.807  0.6695 -0.2259 -0.9992
 5262TIP3   OH237344   4.366   5.081   1.846  0.3773  0.1438  0.1815
 5262TIP3    H137345   4.419   5.047   1.774  0.1485  2.4981 -1.2023
 5262TIP3    H237346   4.278   5.089   1.810 -0.0174  0.2327  1.1263
 5263TIP3   OH237347   5.322   2.669   8.605 -0.4303  0.1642 -0.3071
 5263TIP3    H137348   5.323   2.695   8.513 -1.7897 -0.2088 -0.4449
 5263TIP3    H237349   5.285   2.581   8.604  2.8616 -1.3781  0.2686
 5264TIP3   OH237350   2.883   2.086   0.904  0.1065  0.3705 -0.2496
 5264TIP3    H137351   2.913   2.018   0.844 -0.4823 -1.4733  1.4340
 5264TIP3    H237352   2.792   2.065   0.921  0.9638 -1.0340  3.5121
 5265TIP3   OH237353   5.961   4.715   0.569 -0.1330  0.4591 -0.2719
 5265TIP3    H137354   5.989   4.735   0.658 -0.7537 -2.6917  0.7695
 5265TIP3    H237355   6.030   4.657   0.535 -1.6729 -1.4254 -0.3703
 5266TIP3   OH237356   1.605   6.400   2.314 -0.1012  0.2209 -0.2390
 5266TIP3    H137357   1.550   6.476   2.334  0.4569  0.4683  0.3883
 5266TIP3    H237358   1.608   6.350   2.396 -2.5599 -1.8833 -1.2831
 5267TIP3   OH237359   1.972   4.311   7.790  0.0156 -0.5553 -0.6688
 5267TIP3    H137360   1.970   4.239   7.727 -0.3823 -2.5159  1.4314
 5267TIP3    H237361   1.880   4.329   7.809  0.1152  0.4941 -1.1262
 5268TIP3   OH237362   4.460   6.424   7.454  0.6243  0.0083 -0.1981
 5268TIP3    H137363   4.389   6.441   7.392  2.1493  1.0666 -1.7526
 5268TIP3    H237364   4.514   6.503   7.452  1.7089 -0.6478  1.1366
 5269TIP3   OH237365   6.385   4.266   0.623 -0.2460  0.2906 -0.2297
 5269TIP3    H137366   6.429   4.330   0.566 -0.6909  0.4576 -0.3886
 5269TIP3    H237367   6.370   4.191   0.566  0.3933 -0.0103 -0.0085
 5270TIP3   OH237368   3.870   3.613   7.918  0.9227 -0.1561  0.5405
 5270TIP3    H137369   3.882   3.655   8.003  2.4851 -0.9934  0.7760
 5270TIP3    H237370   3.956   3.578   7.896 -0.2633 -3.4718  0.5352
 5271TIP3   OH237371   2.461   4.481   0.024  0.0603  0.0271  0.0426
 5271TIP3    H137372   2.412   4.478   0.106 -1.0121  0.6524 -0.5608
 5271TIP3    H237373   2.501   4.568   0.024 -1.9759  1.0322 -1.2113
 5272TIP3   OH237374   4.081   0.657   7.227  0.0146  0.2076  0.0913
 5272TIP3    H137375   4.069   0.700   7.312  3.6625  1.2126  0.2867
 5272TIP3    H237376   4.082   0.729   7.164  2.2295  0.1062 -0.0779
 5273TIP3   OH237377   2.515   3.274   6.959 -0.0057  0.1558  0.6724
 5273TIP3    H137378   2.447   3.313   7.014 -1.1907 -1.1863  0.2177
 5273TIP3    H237379   2.571   3.226   7.020 -1.7228 -1.9203  0.7162
 5274TIP3   OH237380   3.219   1.671   0.369 -0.2779 -0.2898 -0.2062
 5274TIP3    H137381   3.127   1.649   0.383 -0.5316  0.2972 -0.8727
 5274TIP3    H237382   3.243   1.723   0.446 -0.7135  0.1629 -0.3722
 5275TIP3   OH237383   3.519   5.808   0.298  0.0133  0.0892 -0.1341
 5275TIP3    H137384   3.608   5.829   0.329 -0.0127 -0.6596  0.4761
 5275TIP3    H237385   3.463   5.874   0.339  0.3421  0.9716 -1.0340
 5276TIP3   OH237386   1.100   4.003   7.935 -0.2205  0.4773 -0.2048
 5276TIP3    H137387   1.193   3.986   7.950 -0.3029  0.2671  0.0623
 5276TIP3    H237388   1.071   4.048   8.014 -0.8442 -1.3386  0.6400
 5277TIP3   OH237389   4.176   1.432   7.344 -0.1747 -0.4697  0.5648
 5277TIP3    H137390   4.169   1.341   7.371 -0.2948 -0.5283  0.3384
 5277TIP3    H237391   4.127   1.480   7.412  0.5801 -0.4840  1.1347
 5278TIP3   OH237392   3.993   5.374   0.924 -0.5227 -0.2806 -0.3483
 5278TIP3    H137393   4.031   5.461   0.913 -1.2456  0.1034  0.1362
 5278TIP3    H237394   4.066   5.314   0.909 -0.2549  0.3637 -1.7647
 5279TIP3   OH237395   0.477   5.440   8.606  0.0677 -0.4225 -0.5528
 5279TIP3    H137396   0.513   5.466   8.521  2.3541 -2.4599 -0.3300
 5279TIP3    H237397   0.553   5.441   8.665 -1.5116  1.2212  1.6141
 5280TIP3   OH237398   0.111   4.315   7.477  0.3335  0.1424  0.2199
 5280TIP3    H137399   0.093   4.251   7.408  0.5242 -0.4337  0.6968
 5280TIP3    H237400   0.025   4.351   7.499  0.1141 -0.5727  0.5457
 5281TIP3   OH237401   4.432   6.528   3.060  0.2617  0.1060  0.0653
 5281TIP3    H137402   4.395   6.508   3.146 -1.2729  1.0957 -0.3273
 5281TIP3    H237403   4.506   6.586   3.079 -0.4404  0.8090  0.6984
 5282TIP3   OH237404   1.595   4.100   7.597 -0.5377 -0.3677 -0.3994
 5282TIP3    H137405   1.667   4.105   7.535  2.8042 -3.7150  2.7493
 5282TIP3    H237406   1.550   4.019   7.576  0.0760 -1.0790  0.9261
 5283TIP3   OH237407   2.652   6.371   1.041  0.0382  0.0453  0.3275
 5283TIP3    H137408   2.592   6.444   1.053  0.2247  0.2773 -0.1395
 5283TIP3    H237409   2.716   6.382   1.112 -0.3134 -0.0527  0.6639
 5284TIP3   OH237410   3.364   4.374   2.804  0.3598 -0.6766 -0.2364
 5284TIP3    H137411   3.358   4.466   2.829 -0.0274 -0.5963 -0.6185
 5284TIP3    H237412   3.358   4.326   2.886  1.6635 -0.3272  0.0920
 5285TIP3   OH237413   5.933   0.259   0.644  0.4386  0.6521  0.0286
 5285TIP3    H137414   5.888   0.182   0.678  1.8830  0.2071  1.0576
 5285TIP3    H237415   5.892   0.276   0.559 -1.5941  0.2818  0.8909
 5286TIP3   OH237416   4.433   4.891   0.443 -0.3077 -0.3398 -0.4539
 5286TIP3    H137417   4.458   4.806   0.479 -0.9700 -0.3258  0.0447
 5286TIP3    H237418   4.517   4.932   0.420  0.1672 -0.2584  1.2860
 5287TIP3   OH237419   6.342   0.107   0.420  0.1522 -0.6272  0.3418
 5287TIP3    H137420   6.375   0.136   0.334 -0.3629  0.3995  0.4713
 5287TIP3    H237421   6.361   0.181   0.478 -1.6537 -0.3298  0.5900
 5288TIP3   OH237422   6.449   1.307   1.876  0.1638  0.0848 -0.1973
 5288TIP3    H137423   6.472   1.326   1.785  0.2673  0.1624 -0.1553
 5288TIP3    H237424   6.533   1.304   1.922  0.1071  0.1216 -0.0903
 5289TIP3   OH237425   3.840   1.032   8.150 -0.1244 -0.2864 -0.4412
 5289TIP3    H137426   3.913   1.006   8.095 -0.1524 -1.4080  0.0458
 5289TIP3    H237427   3.765   1.034   8.090 -0.0846 -1.1395 -0.5290
 5290TIP3   OH237428   4.361   2.467   0.649 -0.2641  0.5957  0.1197
 5290TIP3    H137429   4.429   2.533   0.638  0.2241  0.1050  0.0908
 5290TIP3    H237430   4.320   2.460   0.562  2.6643 -2.2878 -1.2795
 5291TIP3   OH237431   6.764   1.173   7.906  0.4614 -0.3959  0.0493
 5291TIP3    H137432   6.745   1.254   7.857  0.5500 -0.3879  0.0283
 5291TIP3    H237433   6.783   1.203   7.995 -0.9825 -0.5138  0.4205
 5292TIP3   OH237434   1.039   0.165   2.433 -0.0651 -0.4884 -0.2790
 5292TIP3    H137435   1.096   0.104   2.481  0.2920  1.1120  1.4153
 5292TIP3    H237436   0.952   0.126   2.439  0.4351 -1.7516 -0.8395
 5293TIP3   OH237437   2.286   4.147   8.029 -0.4477  0.4876 -0.7204
 5293TIP3    H137438   2.372   4.106   8.018 -1.4342 -1.0034 -3.9705
 5293TIP3    H237439   2.228   4.075   8.055 -1.6320  0.2777 -3.6088
 5294TIP3   OH237440   3.187   4.418   1.049 -0.7730 -0.0430 -0.1967
 5294TIP3    H137441   3.180   4.420   0.953 -1.3736  0.4766 -0.1499
 5294TIP3    H237442   3.194   4.510   1.074 -2.9461  0.0186  0.4055
 5295TIP3   OH237443   4.471   6.663   1.473 -0.3373  0.0782 -0.1827
 5295TIP3    H137444   4.376   6.648   1.469 -0.3868  0.4671 -0.5259
 5295TIP3    H237445   4.480   6.752   1.507 -0.0825 -0.1158  0.2606
 5296TIP3   OH237446   0.142   3.025   8.627 -0.0367 -0.4884  0.5761
 5296TIP3    H137447   0.089   3.041   8.549 -0.8795  0.6088  1.3506
 5296TIP3    H237448   0.099   3.075   8.696  0.4367 -1.7936  1.8649
 5297TIP3   OH237449   6.479   1.835   1.224  0.0020  0.3033  0.5891
 5297TIP3    H137450   6.544   1.765   1.225 -2.3748 -2.0574  1.6960
 5297TIP3    H237451   6.418   1.813   1.295 -2.5688  1.7770 -0.9886
 5298TIP3   OH237452   4.812   5.261   6.666  0.3534  0.0397  0.3248
 5298TIP3    H137453   4.833   5.209   6.743  0.9515 -1.0168 -0.5205
 5298TIP3    H237454   4.717   5.255   6.658  0.5201 -2.4926 -0.7593
 5299TIP3   OH237455   0.972   5.288   7.443 -0.0397 -0.3201  0.5352
 5299TIP3    H137456   0.946   5.339   7.367 -0.3957  1.9729  2.1130
 5299TIP3    H237457   1.051   5.331   7.476  0.1582 -1.3091  1.4437
 5300TIP3   OH237458   6.587   3.472   7.427  0.2370  0.7927  0.0576
 5300TIP3    H137459   6.586   3.554   7.476  1.2134 -0.4277  2.2426
 5300TIP3    H237460   6.503   3.430   7.449 -0.8877  1.7233 -2.1385
 5301TIP3   OH237461   3.766   6.518   6.972 -0.8403 -0.0827 -0.7703
 5301TIP3    H137462   3.759   6.589   7.036 -1.4835 -0.2228 -0.6857
 5301TIP3    H237463   3.689   6.528   6.917 -0.8874 -0.6661 -0.8100
 5302TIP3   OH237464   1.908   1.698   1.641  0.1293  0.2890  0.1407
 5302TIP3    H137465   1.934   1.614   1.604 -0.3358 -0.7571  2.0399
 5302TIP3    H237466   1.839   1.676   1.703 -0.3320  2.1446  0.3331
 5303TIP3   OH237467   0.714   3.279   1.064  0.3684  0.5219  0.2535
 5303TIP3    H137468   0.636   3.301   1.115 -1.1702 -0.0841 -1.7112
 5303TIP3    H237469   0.739   3.192   1.095 -2.1947 -1.0633 -1.7390
 5304TIP3   OH237470   1.171   5.724   7.798 -0.3801  0.2003  0.3303
 5304TIP3    H137471   1.098   5.768   7.755  2.3948  4.0429 -1.0335
 5304TIP3    H237472   1.217   5.678   7.728 -0.2519 -0.3576  0.7660
 5305TIP3   OH237473   6.771   1.901   7.752  0.5438  0.1683 -0.6749
 5305TIP3    H137474   6.733   1.929   7.669  1.2365  0.1315 -1.0097
 5305TIP3    H237475   6.817   1.978   7.785 -1.8246  0.9828  0.9452
 5306TIP3   OH237476   0.414   4.001   7.700  0.2622  0.3990 -0.1201
 5306TIP3    H137477   0.324   4.030   7.715  0.0585 -0.7530  1.0223
 5306TIP3    H237478   0.443   4.053   7.625 -1.2976  0.8892 -0.4275
 5307TIP3   OH237479   5.893   5.352   0.789  0.1095 -0.2741 -0.4097
 5307TIP3    H137480   5.928   5.263   0.788 -0.1058 -0.3829  0.5793
 5307TIP3    H237481   5.970   5.408   0.803 -0.0625 -0.5225  1.9233
 5308TIP3   OH237482   2.325   4.219   8.693  0.4847  0.6604  0.4248
 5308TIP3    H137483   2.314   4.216   8.788 -0.7651  0.4273  0.2921
 5308TIP3    H237484   2.416   4.196   8.679 -0.0904 -2.6719  1.3978
 5309TIP3   OH237485   6.630   6.360   0.997  0.0277  0.0529 -0.4021
 5309TIP3    H137486   6.590   6.411   0.926  0.8016 -0.5291 -1.2823
 5309TIP3    H237487   6.632   6.421   1.071  0.9615  1.3542 -1.4344
 5310TIP3   OH237488   4.912   3.391   7.121  0.4027 -0.3824 -0.2894
 5310TIP3    H137489   4.948   3.479   7.127  1.6318 -0.7380 -1.7383
 5310TIP3    H237490   4.866   3.378   7.204  2.6463  0.5700  1.2103
 5311TIP3   OH237491   5.671   4.769   1.358 -0.4366 -0.5216 -0.1314
 5311TIP3    H137492   5.689   4.793   1.449  0.9058  0.4668 -0.6136
 5311TIP3    H237493   5.634   4.681   1.363 -0.0022 -0.6551  1.3437
 5312TIP3   OH237494   3.819   4.719   8.235  0.0176 -0.0274 -0.5094
 5312TIP3    H137495   3.797   4.729   8.328 -1.3205 -0.4790 -0.7504
 5312TIP3    H237496   3.904   4.676   8.234  0.3545  0.5764  0.4999
 5313TIP3   OH237497   4.124   0.660   7.644  0.2386  0.0555 -0.3251
 5313TIP3    H137498   4.140   0.719   7.570  0.4017 -1.0049 -1.1515
 5313TIP3    H237499   4.048   0.608   7.617 -0.4536  0.4562  0.7667
 5314TIP3   OH237500   0.559   2.699   3.175  0.4993  0.2747 -0.0887
 5314TIP3    H137501   0.541   2.620   3.227 -1.2869  1.4715  1.2396
 5314TIP3    H237502   0.472   2.737   3.160  1.2700  1.6101 -1.3428
 5315TIP3   OH237503   5.711   4.382   8.770  0.2939  0.2453  0.1776
 5315TIP3    H137504   5.796   4.341   8.757  0.3554 -0.1424  1.5909
 5315TIP3    H237505   5.697   4.435   8.692  1.0807 -0.9653 -0.8157
 5316TIP3   OH237506   6.107   0.600   7.950  0.5397  0.0637 -0.2737
 5316TIP3    H137507   6.193   0.617   7.988  0.1679  0.3496  0.4648
 5316TIP3    H237508   6.045   0.622   8.020 -0.1224 -0.3942 -0.6988
 5317TIP3   OH237509   4.619   3.861   1.718 -0.7055  0.0829 -0.5853
 5317TIP3    H137510   4.612   3.831   1.809 -1.5711  1.9020  0.0063
 5317TIP3    H237511   4.693   3.812   1.682  0.0748 -0.2303  1.3052
 5318TIP3   OH237512   4.730   6.108   1.618 -0.8326 -0.5289  0.2478
 5318TIP3    H137513   4.722   6.014   1.603  1.1288 -0.6779 -0.1957
 5318TIP3    H237514   4.772   6.115   1.704  0.6455 -0.1619 -0.4729
 5319TIP3   OH237515   1.695   6.444   8.088 -0.1315 -0.2467  0.0834
 5319TIP3    H137516   1.746   6.524   8.082 -0.7551  0.1511  0.0161
 5319TIP3    H237517   1.756   6.379   8.123  0.8303 -0.1552 -1.3298
 5320TIP3   OH237518   3.133   5.555   8.048  0.3154 -0.0776 -0.3188
 5320TIP3    H137519   3.102   5.494   7.982  0.9654 -1.4690  0.6117
 5320TIP3    H237520   3.091   5.527   8.129  0.6389  0.7030  0.1351
 5321TIP3   OH237521   1.987   1.901   7.944 -0.0612 -0.7743 -0.0483
 5321TIP3    H137522   1.995   1.881   7.851 -0.5210 -3.7396  0.4481
 5321TIP3    H237523   1.997   1.996   7.949  1.6479 -0.6749 -2.9205
 5322TIP3   OH237524   6.637   2.187   8.601 -0.1642 -0.4598  0.3949
 5322TIP3    H137525   6.701   2.128   8.641  0.5763  0.1071  0.0823
 5322TIP3    H237526   6.659   2.273   8.636 -0.7023 -0.2393  0.2022
 5323TIP3   OH237527   3.315   5.197   0.917 -0.0467 -0.3049  0.4621
 5323TIP3    H137528   3.246   5.169   0.978  0.5030 -0.1590  1.1596
 5323TIP3    H237529   3.397   5.177   0.962  0.5837 -4.6388 -2.0917
 5324TIP3   OH237530   0.424   5.454   1.806 -0.2779  0.3297  0.4406
 5324TIP3    H137531   0.463   5.402   1.736 -0.2435  2.3261 -1.0973
 5324TIP3    H237532   0.498   5.498   1.847 -0.5328  1.1245  0.0572
 5325TIP3   OH237533   5.441   6.190   1.453 -0.0541 -0.5300  0.1249
 5325TIP3    H137534   5.521   6.148   1.484  0.2876 -0.3591 -0.5269
 5325TIP3    H237535   5.371   6.136   1.491  0.3775 -1.4609 -0.3578
 5326TIP3   OH237536   1.828   5.090   8.660  0.5821 -0.4601  0.0939
 5326TIP3    H137537   1.832   5.078   8.755 -0.4284  0.8204  0.3298
 5326TIP3    H237538   1.794   5.179   8.649 -1.4827 -1.3616 -1.4466
 5327TIP3   OH237539   0.163   6.189   2.755 -0.6337  0.0316  0.6964
 5327TIP3    H137540   0.171   6.284   2.746 -0.0791 -0.0435  0.3729
 5327TIP3    H237541   0.252   6.159   2.774 -0.7112 -0.4697  0.2998
 5328TIP3   OH237542   6.425   3.300   1.204 -0.5753 -0.2974  0.1123
 5328TIP3    H137543   6.437   3.254   1.121 -1.5855 -0.9284  0.2967
 5328TIP3    H237544   6.477   3.250   1.267  0.9286  0.7074 -0.2903
 5329TIP3   OH237545   5.939   2.192   0.206 -0.3188 -0.1766  0.2588
 5329TIP3    H137546   5.928   2.231   0.293 -1.9448 -1.9687  0.9325
 5329TIP3    H237547   6.031   2.208   0.184 -0.6000  3.0180  0.9019
 5330TIP3   OH237548   2.423   4.224   0.986  0.3482  0.1469  0.1573
 5330TIP3    H137549   2.506   4.184   0.961  0.5121 -0.3664  1.4329
 5330TIP3    H237550   2.357   4.178   0.934  0.8187  0.3323 -0.6212
 5331TIP3   OH237551   5.402   2.015   1.479  0.5404  0.0665  0.3934
 5331TIP3    H137552   5.475   2.027   1.418 -0.9038  0.2248 -1.4040
 5331TIP3    H237553   5.326   2.001   1.422 -1.0322  1.0210  2.1654
 5332TIP3   OH237554   5.448   5.215   2.094 -0.1880 -0.6316  0.2209
 5332TIP3    H137555   5.452   5.265   2.012 -1.6725 -1.7741 -0.6094
 5332TIP3    H237556   5.454   5.123   2.066  3.3797 -1.0198  1.7681
 5333TIP3   OH237557   0.582   6.429   1.638  0.5205  0.4698 -0.6254
 5333TIP3    H137558   0.628   6.359   1.592 -0.4684  0.0405 -1.0053
 5333TIP3    H237559   0.631   6.442   1.719  1.1809 -0.1033 -0.9281
 5334TIP3   OH237560   3.818   3.219   0.632  0.3660 -0.5277  0.9223
 5334TIP3    H137561   3.780   3.307   0.628  0.0406 -0.6133  1.7729
 5334TIP3    H237562   3.913   3.234   0.629  0.2997 -0.2403 -0.1362
 5335TIP3   OH237563   4.404   5.729   0.560 -0.2869 -0.5392 -0.1700
 5335TIP3    H137564   4.468   5.734   0.632 -0.1409  1.3766 -0.3894
 5335TIP3    H237565   4.338   5.667   0.591 -0.4318  0.5128  1.8172
 5336TIP3   OH237566   4.005   0.915   0.846  0.0775 -0.2020 -0.5874
 5336TIP3    H137567   4.078   0.854   0.849  0.5360  0.3936  1.5499
 5336TIP3    H237568   3.933   0.869   0.890 -0.2490 -0.0214 -0.9187
 5337TIP3   OH237569   6.237   3.995   7.545 -0.3474  0.0791 -0.2955
 5337TIP3    H137570   6.289   3.934   7.492  2.6252  1.4933  0.7474
 5337TIP3    H237571   6.217   3.946   7.624 -0.5346 -0.4646 -0.6709
 5338TIP3   OH237572   3.039   5.266   8.754  0.3728 -0.4714  0.0360
 5338TIP3    H137573   2.990   5.292   8.832  0.4044  2.5613 -0.7959
 5338TIP3    H237574   2.973   5.223   8.698 -0.5362  0.4915  0.3320
 5339TIP3   OH237575   3.896   5.086   0.203 -0.2188 -0.1303 -0.0388
 5339TIP3    H137576   3.930   5.037   0.128 -0.1838 -2.3222  1.3151
 5339TIP3    H237577   3.903   5.025   0.277 -2.6890  0.9669  1.2376
 5340TIP3   OH237578   1.123   2.262   0.431  0.3835 -0.0334 -0.0792
 5340TIP3    H137579   1.097   2.350   0.458  0.1827  0.1104 -0.7279
 5340TIP3    H237580   1.129   2.267   0.336 -1.3548 -1.1656 -0.2944
 5341TIP3   OH237581   0.203   5.083   8.855  0.2413 -0.1545  0.3469
 5341TIP3    H137582   0.156   5.041   8.783 -1.1347 -1.2847  1.8331
 5341TIP3    H237583   0.250   5.011   8.897  0.5058  0.3826  0.9819
 5342TIP3   OH237584   2.206   1.733   8.515 -0.2040  0.6903 -0.1167
 5342TIP3    H137585   2.290   1.751   8.473  0.8094 -0.1318  1.4453
 5342TIP3    H237586   2.183   1.814   8.560  0.1550  0.6809  0.0847
 5343TIP3   OH237587   5.543   5.941   1.793 -0.0276  0.3257 -0.2887
 5343TIP3    H137588   5.553   5.907   1.704 -0.2467  1.7440 -0.8806
 5343TIP3    H237589   5.630   5.933   1.832  0.3158  0.5973 -0.9758
 5344TIP3   OH237590   4.475   4.832   7.287  0.0589 -0.2731 -0.3274
 5344TIP3    H137591   4.432   4.776   7.222  0.9482 -2.0687  0.5657
 5344TIP3    H237592   4.469   4.920   7.250 -0.3816 -1.0901 -2.3455
 5345TIP3   OH237593   2.516   5.836   7.107  0.0602  0.5421 -0.1822
 5345TIP3    H137594   2.559   5.859   7.190  0.5726 -1.0476  0.0287
 5345TIP3    H237595   2.524   5.916   7.053  0.5985  1.2690  0.9318
 5346TIP3   OH237596   1.848   1.158   1.786 -0.1082 -0.3619 -0.4013
 5346TIP3    H137597   1.856   1.125   1.697 -3.0172 -1.0495 -0.5045
 5346TIP3    H237598   1.769   1.117   1.820 -0.8029  2.2225  1.4280
 5347TIP3   OH237599   3.648   5.000   0.488  0.1709 -0.1452 -0.5715
 5347TIP3    H137600   3.558   5.028   0.467  0.7265  3.3230  0.9303
 5347TIP3    H237601   3.637   4.921   0.540 -2.1948  0.9876  0.8446
 5348TIP3   OH237602   0.217   2.285   8.686 -0.2091  0.3588 -0.2888
 5348TIP3    H137603   0.173   2.325   8.611 -1.6537 -2.5379 -1.1046
 5348TIP3    H237604   0.286   2.231   8.648 -0.8924 -1.0700  0.4390
 5349TIP3   OH237605   5.485   1.681   2.549  0.5538 -0.1328  0.0448
 5349TIP3    H137606   5.434   1.603   2.531 -0.3921  0.4473  0.1461
 5349TIP3    H237607   5.472   1.698   2.643  1.6735 -0.4829  0.2882
 5350TIP3   OH237608   3.567   5.885   1.777  0.2839  0.4936  0.2781
 5350TIP3    H137609   3.654   5.900   1.738  0.4735  1.3341  0.9728
 5350TIP3    H237610   3.554   5.961   1.834 -0.4728 -0.1372  0.9602
 5351TIP3   OH237611   1.986   1.336   2.432 -0.2978 -0.7924 -0.3976
 5351TIP3    H137612   2.062   1.303   2.479 -1.7364 -1.5745  1.4860
 5351TIP3    H237613   1.919   1.269   2.444 -1.4057  0.0180 -1.7292
 5352TIP3   OH237614   0.827   2.158   1.014 -0.3638  0.0778 -0.7224
 5352TIP3    H137615   0.820   2.187   0.923 -2.7836 -2.0919 -1.3259
 5352TIP3    H237616   0.802   2.066   1.012  0.2040 -0.2230  2.0692
 5353TIP3   OH237617   1.105   4.744   8.160 -0.1659  0.0305  0.3610
 5353TIP3    H137618   1.047   4.732   8.085 -1.1453  3.9784  0.2628
 5353TIP3    H237619   1.056   4.801   8.220  1.9384 -0.1274  2.3775
 5354TIP3   OH237620   6.247   1.265   2.957 -0.3310  0.4586 -0.7122
 5354TIP3    H137621   6.184   1.302   2.896 -0.0376 -0.1812 -1.4167
 5354TIP3    H237622   6.332   1.299   2.928 -0.3676  1.7832  0.5763
 5355TIP3   OH237623   5.737   0.018   1.603  0.5588 -0.1436 -0.1897
 5355TIP3    H137624   5.738   0.114   1.601 -0.4819 -0.0993  0.5554
 5355TIP3    H237625   5.674  -0.004   1.672  0.7014 -1.3688 -0.4232
 5356TIP3   OH237626   6.743   1.757   7.348 -0.1408 -0.0191  0.2389
 5356TIP3    H137627   6.723   1.675   7.391 -1.2469 -0.0103 -0.2413
 5356TIP3    H237628   6.830   1.743   7.309 -0.6507 -1.2287 -0.5034
 5357TIP3   OH237629   2.269   1.139   8.143  1.0011  0.3147  0.1014
 5357TIP3    H137630   2.266   1.186   8.226 -0.0874  1.8670 -0.7590
 5357TIP3    H237631   2.193   1.172   8.094  0.8243 -1.5676 -0.9917
 5358TIP3   OH237632   5.476   2.862   1.248  0.0144 -0.4526  0.2093
 5358TIP3    H137633   5.462   2.832   1.338  1.4970 -2.6188 -0.2093
 5358TIP3    H237634   5.447   2.789   1.193  0.3629  0.3074 -1.0347
 5359TIP3   OH237635   0.825   5.494   0.105  0.3771 -0.0755  0.3949
 5359TIP3    H137636   0.785   5.413   0.137  0.9586 -0.1539  0.9469
 5359TIP3    H237637   0.816   5.555   0.178  0.7877  0.0708  0.3236
 5360TIP3   OH237638   2.799   1.443   0.707  0.5245  0.0357  0.4482
 5360TIP3    H137639   2.830   1.524   0.748  1.1073  0.9485 -1.6779
 5360TIP3    H237640   2.876   1.407   0.664 -0.4441  0.1523 -1.4691
 5361TIP3   OH237641   0.466   4.497   8.119  0.0071  0.2933 -0.0348
 5361TIP3    H137642   0.501   4.581   8.089 -0.6492 -0.5878 -3.7127
 5361TIP3    H237643   0.430   4.517   8.206  2.8170  2.9363  0.7141
 5362TIP3   OH237644   6.433   5.452   0.843 -0.5836  0.5357 -0.0080
 5362TIP3    H137645   6.439   5.538   0.802  0.3492  0.7836  0.6127
 5362TIP3    H237646   6.470   5.464   0.930  2.7805 -1.1665 -0.9943
 5363TIP3   OH237647   0.210   5.165   7.820  0.7423 -0.6193  0.5915
 5363TIP3    H137648   0.181   5.136   7.733  2.4471 -1.0882  0.1471
 5363TIP3    H237649   0.132   5.156   7.875 -0.6677  0.6780 -1.0788
 5364TIP3   OH237650   2.791   0.027   7.819  0.2410  0.0742  0.3019
 5364TIP3    H137651   2.881  -0.007   7.815 -0.4245 -1.7084 -0.3520
 5364TIP3    H237652   2.794   0.092   7.890  2.2540  0.7733 -0.3434
 5365TIP3   OH237653   3.462   0.284   0.785 -0.2730  0.5067 -0.1572
 5365TIP3    H137654   3.388   0.338   0.759 -1.7165 -0.7704  1.0626
 5365TIP3    H237655   3.510   0.337   0.848 -0.3071  1.2394 -0.7362
 5366TIP3   OH237656   6.559   3.759   1.957  0.1485  0.0887 -0.5591
 5366TIP3    H137657   6.494   3.806   1.906  1.0327  2.0828  0.0252
 5366TIP3    H237658   6.514   3.737   2.039  0.0619  1.0097 -0.3545
 5367TIP3   OH237659   6.295   4.516   2.121 -0.0175  0.4760 -0.5920
 5367TIP3    H137660   6.302   4.450   2.190  0.8260  0.5180 -0.6262
 5367TIP3    H237661   6.379   4.512   2.075  0.1838  1.7822 -0.3989
 5368TIP3   OH237662   0.054   1.125   2.235 -0.5472  0.0605  0.1086
 5368TIP3    H137663   0.036   1.116   2.328 -0.1110 -0.8176  0.1212
 5368TIP3    H237664   0.076   1.037   2.206  1.2369  0.6251 -0.4061
 5369TIP3   OH237665   3.867   0.048   1.781  0.1416  0.2921 -0.1955
 5369TIP3    H137666   3.898   0.132   1.814  1.6970 -0.6306  0.8050
 5369TIP3    H237667   3.900   0.045   1.691 -1.0395  1.2790 -0.6914
 5370TIP3   OH237668   3.284   6.499   2.116 -0.0573 -0.0294 -0.2266
 5370TIP3    H137669   3.363   6.449   2.137 -1.4005 -1.9451  0.4887
 5370TIP3    H237670   3.317   6.576   2.070  2.2845 -0.3922  0.6686
 5371TIP3   OH237671   6.534   5.718   0.157  0.0181 -0.4085 -0.2024
 5371TIP3    H137672   6.485   5.727   0.238  0.7637  2.3649  0.0346
 5371TIP3    H237673   6.469   5.691   0.092 -2.0743  3.3645  0.0456
 5372TIP3   OH237674   5.889   0.503   2.802  0.0784  0.5067  0.2414
 5372TIP3    H137675   5.831   0.451   2.857 -0.9044 -0.2374 -1.4115
 5372TIP3    H237676   5.973   0.459   2.806 -0.0477  0.3214  0.9330
 5373TIP3   OH237677   3.021   2.471   8.042 -0.1011  0.4725 -0.2919
 5373TIP3    H137678   3.033   2.435   7.954  0.2176  0.8845 -0.4195
 5373TIP3    H237679   3.039   2.564   8.032  1.1691  0.3232  0.4482
 5374TIP3   OH237680   4.625   2.648   2.594 -0.3686  0.4125  0.3998
 5374TIP3    H137681   4.572   2.646   2.514 -1.5065 -0.0152  1.1498
 5374TIP3    H237682   4.609   2.734   2.632  2.3417  1.7875 -1.1948
 5375TIP3   OH237683   5.281   5.359   8.103  0.6077 -0.2709 -0.3418
 5375TIP3    H137684   5.265   5.379   8.195 -0.5822  1.8073 -0.9193
 5375TIP3    H237685   5.224   5.420   8.055  1.7959 -0.7180 -2.4632
 5376TIP3   OH237686   5.950   2.412   0.408  0.0717 -0.7563 -0.4190
 5376TIP3    H137687   6.002   2.416   0.488 -0.6521  0.8585  0.0028
 5376TIP3    H237688   5.912   2.499   0.399  0.4164 -0.7846 -2.7182
 5377TIP3   OH237689   0.283   2.697   2.535 -0.0323  0.1818  0.3819
 5377TIP3    H137690   0.282   2.629   2.468 -1.8235  0.2255  0.3220
 5377TIP3    H237691   0.224   2.765   2.502 -1.7681 -0.2398  2.3759
 5378TIP3   OH237692   4.150   6.399   3.092 -0.1246 -0.4586 -0.7592
 5378TIP3    H137693   4.225   6.339   3.096 -0.0279 -0.3202 -0.4042
 5378TIP3    H237694   4.162   6.457   3.168  1.2333  1.7129 -2.5021
 5379TIP3   OH237695   1.485   3.560   2.634 -0.4760  0.2195  0.0095
 5379TIP3    H137696   1.483   3.575   2.540  0.4681 -1.6022 -0.3389
 5379TIP3    H237697   1.425   3.626   2.670  0.4326  2.0680 -1.6638
 5380TIP3   OH237698   1.179   1.355   8.869 -0.3605  0.3577 -0.6025
 5380TIP3    H137699   1.165   1.262   8.847 -2.0373  0.7314 -1.2994
 5380TIP3    H237700   1.259   1.355   8.921 -0.7971 -1.5970  0.1785
 5381TIP3   OH237701   5.378   6.445   7.194 -0.5947  0.3034 -0.2721
 5381TIP3    H137702   5.466   6.457   7.228  0.0072 -1.1047 -1.2058
 5381TIP3    H237703   5.348   6.363   7.234 -1.4651  0.7392 -0.0110
 5382TIP3   OH237704   5.625   0.022   8.254  0.0252  0.2820  0.7921
 5382TIP3    H137705   5.702  -0.020   8.290 -0.1549 -0.6846  0.0904
 5382TIP3    H237706   5.658   0.075   8.181  0.4150  2.3929  2.4216
 5383TIP3   OH237707   6.269   6.261   8.366  0.4252 -0.4232  0.1822
 5383TIP3    H137708   6.274   6.326   8.436  0.0836 -2.3535  2.1098
 5383TIP3    H237709   6.176   6.247   8.353  0.4837 -1.8189  1.1058
 5384TIP3   OH237710   1.034   0.424   1.685  0.3506  0.2106  0.0080
 5384TIP3    H137711   1.125   0.444   1.708  0.5961 -0.2241 -0.5431
 5384TIP3    H237712   0.992   0.509   1.676  0.4750  0.3991  1.1344
 5385TIP3   OH237713   1.867   1.866   0.630 -0.2742  0.4940 -0.3366
 5385TIP3    H137714   1.889   1.803   0.561 -2.3068  2.3386 -2.8266
 5385TIP3    H237715   1.772   1.876   0.624 -0.1650  2.7881  0.8870
 5386TIP3   OH237716   0.352   0.875   0.321  0.5910  0.1476  0.2874
 5386TIP3    H137717   0.380   0.962   0.351  0.7665  0.9421 -1.9599
 5386TIP3    H237718   0.258   0.885   0.303  0.9207  0.3721 -1.4552
 5387TIP3   OH237719   1.705   3.351   0.872 -0.3820  0.1707 -0.4753
 5387TIP3    H137720   1.753   3.428   0.901  0.5504 -0.0555 -1.3688
 5387TIP3    H237721   1.725   3.284   0.937  0.0881  0.2299 -0.5580
 5388TIP3   OH237722   6.650   5.814   0.903 -0.0167 -0.6795  0.1243
 5388TIP3    H137723   6.735   5.778   0.924  1.2209  1.4254 -0.8889
 5388TIP3    H237724   6.651   5.823   0.807 -0.8373  0.5105  0.1976
 5389TIP3   OH237725   0.829   3.629   0.427 -0.0097  0.0139  0.4064
 5389TIP3    H137726   0.844   3.664   0.340 -2.3859 -0.9667 -0.4731
 5389TIP3    H237727   0.816   3.535   0.414 -2.4117  0.1202  1.4790
 5390TIP3   OH237728   4.172   5.185   0.823  0.1402 -0.0608 -0.1123
 5390TIP3    H137729   4.246   5.138   0.783 -1.1545 -1.2963 -1.1579
 5390TIP3    H237730   4.127   5.226   0.749 -2.2923 -2.3802 -0.0624
 5391TIP3   OH237731   4.031   5.893   8.710 -0.1104 -0.3895 -1.0919
 5391TIP3    H137732   3.979   5.970   8.731  0.7671 -0.5187  2.2323
 5391TIP3    H237733   4.090   5.921   8.641  1.5050  2.6671  1.2661
 5392TIP3   OH237734   6.127   1.363   8.084 -0.4485 -0.2621  0.7188
 5392TIP3    H137735   6.140   1.457   8.101  1.5509  0.1818 -2.4520
 5392TIP3    H237736   6.054   1.359   8.022 -0.1534 -0.7285  0.3931
 5393TIP3   OH237737   4.147   5.797   7.275  0.1965 -0.0110 -0.0404
 5393TIP3    H137738   4.092   5.875   7.269 -0.3789 -0.4015  0.1347
 5393TIP3    H237739   4.160   5.770   7.184 -0.1530 -0.0957 -0.0654
 5394TIP3   OH237740   5.139   5.253   0.407 -0.2273  0.0956 -0.5902
 5394TIP3    H137741   5.105   5.315   0.343  0.9636 -0.5049 -1.8535
 5394TIP3    H237742   5.226   5.229   0.374  0.7442  0.3216  1.6466
 5395TIP3   OH237743   4.753   0.432   2.732  0.4343  0.1644 -0.4222
 5395TIP3    H137744   4.824   0.370   2.713 -0.3948 -1.0322  0.2129
 5395TIP3    H237745   4.680   0.401   2.678 -0.1396  0.2855  0.2732
 5396TIP3   OH237746   6.055   6.532   7.589 -0.2552  0.1843 -0.3959
 5396TIP3    H137747   6.138   6.542   7.541 -0.8232  0.9175 -1.2500
 5396TIP3    H237748   6.061   6.596   7.660  0.8825 -1.3711  1.0200
 5397TIP3   OH237749   3.566   3.880   2.111  0.3722 -0.2099 -0.0407
 5397TIP3    H137750   3.567   3.787   2.087  1.7022 -0.1793 -0.1813
 5397TIP3    H237751   3.538   3.925   2.031  1.4632 -0.3668 -0.5291
 5398TIP3   OH237752   2.147   1.773   1.331 -0.0433 -0.0089  0.4276
 5398TIP3    H137753   2.186   1.843   1.278 -0.1129 -0.3185 -0.0338
 5398TIP3    H237754   2.055   1.799   1.341 -0.0534 -0.0024  0.3142
 5399TIP3   OH237755   2.224   5.109   2.687 -0.7517 -0.3034 -0.2315
 5399TIP3    H137756   2.311   5.137   2.657 -0.2806 -2.9571 -1.7124
 5399TIP3    H237757   2.182   5.189   2.718  1.8134  1.2548 -0.4913
 5400TIP3   OH237758   5.632   0.467   8.733 -0.1730  0.1034 -0.0555
 5400TIP3    H137759   5.651   0.379   8.700 -1.0848 -0.7822  1.6533
 5400TIP3    H237760   5.543   0.485   8.703  0.9092  1.6125 -2.6607
 5401TIP3   OH237761   0.791   2.469   0.820 -0.0995 -0.4146 -0.5659
 5401TIP3    H137762   0.765   2.555   0.790  0.1624  0.5245  1.7326
 5401TIP3    H237763   0.713   2.432   0.861  0.1949 -0.6230 -0.1823
 5402TIP3   OH237764   5.472   2.424   2.129 -0.0401 -0.2288  0.1072
 5402TIP3    H137765   5.567   2.423   2.134 -0.0504  1.2362  1.1858
 5402TIP3    H237766   5.453   2.441   2.036  0.7691  0.2911  0.0302
 5403TIP3   OH237767   2.770   3.015   1.105  0.1460  0.6495 -0.0545
 5403TIP3    H137768   2.776   2.991   1.012 -0.6824 -0.9285  0.2744
 5403TIP3    H237769   2.730   3.102   1.104 -2.4857 -0.4594 -1.1383
 5404TIP3   OH237770   5.078   4.004   2.788 -0.1065  0.8120 -0.0655
 5404TIP3    H137771   5.132   3.963   2.857  1.0056 -0.2889 -1.5203
 5404TIP3    H237772   4.988   3.986   2.815  0.3132 -2.2386 -0.3221
 5405TIP3   OH237773   1.211   3.695   7.589 -0.0293 -0.7997  0.5146
 5405TIP3    H137774   1.137   3.643   7.621 -0.5519  0.3442  1.2410
 5405TIP3    H237775   1.195   3.783   7.624  0.6941 -0.0829 -0.8726
 5406TIP3   OH237776   3.699   5.480   8.266  0.2121 -0.1099 -0.2986
 5406TIP3    H137777   3.651   5.467   8.348  1.2035  0.0430  0.3228
 5406TIP3    H237778   3.766   5.545   8.287  0.3125  0.1292 -1.3023
 5407TIP3   OH237779   2.950   3.125   0.636  0.2753  0.5759 -0.4205
 5407TIP3    H137780   2.861   3.142   0.603  0.6229 -1.6344 -2.8456
 5407TIP3    H237781   2.936   3.078   0.718 -0.9179 -0.9986 -1.4567
 5408TIP3   OH237782   1.459   2.286   2.264 -0.0241  0.2085  0.6129
 5408TIP3    H137783   1.527   2.238   2.216 -0.3729 -0.7671  1.0562
 5408TIP3    H237784   1.453   2.370   2.221 -0.5944 -0.7725 -1.3322
 5409TIP3   OH237785   1.758   5.872   1.718  0.3259 -0.2615  0.3373
 5409TIP3    H137786   1.768   5.777   1.715 -0.2113 -0.3062 -0.1592
 5409TIP3    H237787   1.702   5.888   1.794  1.3605 -0.2477  1.1211
 5410TIP3   OH237788   1.615   3.371   0.188 -0.5331 -0.1363  0.4131
 5410TIP3    H137789   1.693   3.337   0.233 -0.1983  1.3660  1.0439
 5410TIP3    H237790   1.560   3.294   0.174  1.2331 -1.3367 -0.4468
 5411TIP3   OH237791   0.819   2.500   7.815 -0.1812 -0.0810  0.2078
 5411TIP3    H137792   0.883   2.523   7.749  0.7295 -1.1669  0.6907
 5411TIP3    H237793   0.736   2.492   7.767  0.2332  0.2971 -0.5851
 5412TIP3   OH237794   1.892   0.053   8.857 -0.0553 -0.1465 -0.0359
 5412TIP3    H137795   1.823   0.102   8.902  2.3155  1.7572  1.8213
 5412TIP3    H237796   1.933   0.002   8.926 -0.1097 -1.9553 -1.2797
 5413TIP3   OH237797   6.205   5.934   7.754  0.4850  0.2667 -0.0975
 5413TIP3    H137798   6.249   5.939   7.839 -0.9777 -0.5689  0.7635
 5413TIP3    H237799   6.126   5.883   7.772  0.2785 -0.1572 -2.0314
 5414TIP3   OH237800   3.340   1.773   1.559 -0.1904 -0.1398  0.0194
 5414TIP3    H137801   3.427   1.810   1.546  0.5139 -1.2403  1.2869
 5414TIP3    H237802   3.285   1.815   1.493  1.0818  1.3139 -0.1551
 5415TIP3   OH237803   5.270   3.870   0.455  0.4828  0.5477 -0.6178
 5415TIP3    H137804   5.316   3.851   0.537  0.6805  0.2727 -0.7890
 5415TIP3    H237805   5.340   3.873   0.389  0.1495 -1.1258 -1.0976
 5416TIP3   OH237806   3.169   5.703   7.764  0.2309 -0.7156 -0.9579
 5416TIP3    H137807   3.154   5.651   7.685  0.9070 -1.2186 -0.7584
 5416TIP3    H237808   3.083   5.707   7.806  0.1417 -1.5633 -1.0408
 5417TIP3   OH237809   6.353   5.716   0.387 -0.0086 -0.1779 -0.0232
 5417TIP3    H137810   6.333   5.808   0.403  0.3543  0.2580 -1.8913
 5417TIP3    H237811   6.267   5.673   0.388 -0.6656  0.8567 -2.9407
 5418TIP3   OH237812   4.311   3.693   2.694  0.1708 -0.0224 -0.7896
 5418TIP3    H137813   4.353   3.611   2.719  0.9091  0.9294  1.2701
 5418TIP3    H237814   4.217   3.673   2.696  0.3877 -1.2234 -1.9206
 5419TIP3   OH237815   1.733   3.336   0.584  1.3496  0.2249  0.0648
 5419TIP3    H137816   1.754   3.381   0.665  0.0666  0.5447  0.2519
 5419TIP3    H237817   1.641   3.359   0.567  1.2617 -0.7195 -0.8890
 5420TIP3   OH237818   5.803   1.822   0.229  0.1667  0.6013  0.1623
 5420TIP3    H137819   5.731   1.786   0.281 -0.7264  0.6033 -1.0092
 5420TIP3    H237820   5.863   1.859   0.293  0.0257 -1.0093  1.2833
 5421TIP3   OH237821   3.440   5.545   7.771 -0.1625 -0.1876  0.2258
 5421TIP3    H137822   3.381   5.613   7.738  1.8105  1.2431 -0.5139
 5421TIP3    H237823   3.448   5.564   7.864  0.1984  0.4669  0.0668
 5422TIP3   OH237824   5.613   1.988   2.695 -0.2951 -1.0573 -0.0355
 5422TIP3    H137825   5.632   2.076   2.730  2.2934 -1.1673 -0.9974
 5422TIP3    H237826   5.577   1.941   2.770  0.0704  0.2627  1.0207
 5423TIP3   OH237827   1.966   6.755   0.373  0.1753  0.4786 -0.6809
 5423TIP3    H137828   1.879   6.782   0.400  0.2698 -0.6477  0.8926
 5423TIP3    H237829   1.997   6.698   0.443  1.2255 -1.1046 -2.3361
 5424TIP3   OH237830   3.928   0.674   8.131 -0.1367 -0.0676 -0.0860
 5424TIP3    H137831   3.928   0.740   8.062 -0.9590 -0.1129 -0.1426
 5424TIP3    H237832   4.019   0.643   8.135 -0.2487 -0.7388 -1.7950
 5425TIP3   OH237833   5.968   4.316   1.027  0.3564 -0.1717 -0.5535
 5425TIP3    H137834   5.978   4.240   0.968  0.1276  0.1692 -1.0377
 5425TIP3    H237835   6.057   4.338   1.053  0.5665  0.3444 -1.6398
 5426TIP3   OH237836   3.683   5.398   0.435  0.4829  0.3614 -0.6918
 5426TIP3    H137837   3.670   5.342   0.359  1.9021 -0.2162 -0.5456
 5426TIP3    H237838   3.631   5.476   0.416 -0.9843 -0.6884 -1.2079
 5427TIP3   OH237839   0.156   3.130   1.712  0.3186  0.2391 -0.1388
 5427TIP3    H137840   0.167   3.087   1.627  1.4782 -1.6272  0.8723
 5427TIP3    H237841   0.241   3.170   1.730  0.0613  0.6787  0.1294
 5428TIP3   OH237842   2.528   6.154   0.832 -0.3312  0.1206 -0.4465
 5428TIP3    H137843   2.454   6.093   0.822 -0.1636 -0.0372 -0.7677
 5428TIP3    H237844   2.603   6.106   0.795  0.0961 -0.0233  0.5830
 5429TIP3   OH237845   4.130   5.957   1.910  0.5836  0.1521  0.4887
 5429TIP3    H137846   4.203   6.018   1.924  0.9748 -0.3598  0.7199
 5429TIP3    H237847   4.093   5.983   1.826  1.3468  0.1119  0.1276
 5430TIP3   OH237848   2.503   2.247   2.332  0.1150 -0.0829 -0.0137
 5430TIP3    H137849   2.525   2.209   2.417  1.7085  0.9975  0.1037
 5430TIP3    H237850   2.448   2.323   2.353 -1.6908 -1.2930 -0.1505
 5431TIP3   OH237851   1.068   0.159   0.581 -0.1934 -0.3290 -0.2668
 5431TIP3    H137852   1.074   0.254   0.583 -0.4417 -0.3278  0.8028
 5431TIP3    H237853   1.107   0.130   0.663 -1.1072 -1.0865 -0.0809
 5432TIP3   OH237854   0.771   5.911   7.550  0.2569  0.4760  0.0719
 5432TIP3    H137855   0.838   5.856   7.591 -0.2412 -0.0759  0.1488
 5432TIP3    H237856   0.722   5.948   7.623 -1.1132 -1.1006  0.0005
 5433TIP3   OH237857   0.426   5.618   1.229 -0.0784  0.4920  0.3875
 5433TIP3    H137858   0.406   5.582   1.316 -0.8242  0.1452  0.0843
 5433TIP3    H237859   0.378   5.701   1.226  0.1408  0.6179  0.3993
 5434TIP3   OH237860   3.833   4.274   8.663  0.1113 -0.5730  0.0159
 5434TIP3    H137861   3.875   4.306   8.583  2.6397 -0.7039  1.1746
 5434TIP3    H237862   3.825   4.180   8.651 -2.5383 -0.2538 -1.3139
 5435TIP3   OH237863   4.524   3.082   7.680  0.1291 -0.2512 -0.1780
 5435TIP3    H137864   4.482   3.084   7.594 -2.4215 -1.3731  0.9221
 5435TIP3    H237865   4.550   3.173   7.696 -2.8113  0.7988 -0.6488
 5436TIP3   OH237866   5.075   4.321   3.075  0.1261  0.5300 -0.6875
 5436TIP3    H137867   5.069   4.409   3.113 -0.6538 -0.1101  0.7477
 5436TIP3    H237868   5.020   4.324   2.997 -1.8379  0.7028  0.6351
 5437TIP3   OH237869   6.137   0.212   7.594 -0.0438  0.3603  0.6464
 5437TIP3    H137870   6.193   0.163   7.534  0.1386  0.7074  0.5339
 5437TIP3    H237871   6.113   0.291   7.546 -0.2657  0.4235  0.8608
 5438TIP3   OH237872   2.665   0.018   8.307  0.0900  0.3289 -0.7928
 5438TIP3    H137873   2.740  -0.042   8.308 -0.4306 -0.4116  1.5901
 5438TIP3    H237874   2.595  -0.032   8.265  0.1733 -0.0714 -0.4708
 5439TIP3   OH237875   6.609   0.508   1.682  0.0553  0.1544  0.4575
 5439TIP3    H137876   6.626   0.414   1.683 -1.2141 -0.1138 -0.5558
 5439TIP3    H237877   6.519   0.516   1.651 -0.8366  1.5797  3.0699
 5440TIP3   OH237878   5.554   6.599   2.659 -0.2694  0.3707 -0.4089
 5440TIP3    H137879   5.564   6.688   2.623 -1.1387  0.6186 -0.0763
 5440TIP3    H237880   5.482   6.607   2.722 -1.7453 -0.9847 -1.8151
 5441TIP3   OH237881   1.871   6.000   0.211 -0.2841  0.7376  0.3069
 5441TIP3    H137882   1.794   5.943   0.213 -0.3827  0.8856  0.8408
 5441TIP3    H237883   1.911   5.982   0.126  0.5015 -1.2132  1.0364
 5442TIP3   OH237884   0.839   6.789   2.477 -0.2385 -0.0352 -0.4889
 5442TIP3    H137885   0.899   6.715   2.480  0.2764  0.4040  0.2863
 5442TIP3    H237886   0.757   6.754   2.512 -0.4098 -0.5918 -1.4035
 5443TIP3   OH237887   3.901   4.663   2.053  0.0424 -0.0619  0.2806
 5443TIP3    H137888   3.981   4.627   2.016 -1.3007 -1.8861 -1.0255
 5443TIP3    H237889   3.868   4.722   1.985 -0.0555  0.1721  0.5306
 5444TIP3   OH237890   5.577   6.301   1.213 -0.0455  0.4813 -0.3299
 5444TIP3    H137891   5.494   6.281   1.169 -0.4982 -0.1267  0.7634
 5444TIP3    H237892   5.566   6.266   1.301  0.6219  2.1855  0.4631
 5445TIP3   OH237893   3.626   0.967   8.304 -0.2173  0.0450  0.0325
 5445TIP3    H137894   3.684   0.891   8.318 -0.9539 -0.5117  0.1328
 5445TIP3    H237895   3.674   1.022   8.243  0.7436 -0.0467  0.6853
 5446TIP3   OH237896   5.475   2.760   1.856  0.3914 -0.1155  0.3926
 5446TIP3    H137897   5.527   2.774   1.936  3.1008 -1.6541 -0.9780
 5446TIP3    H237898   5.528   2.799   1.786 -1.1884 -0.1568 -0.8764
 5447TIP3   OH237899   3.109   0.216   2.771  0.1256  0.3035 -0.2292
 5447TIP3    H137900   3.196   0.198   2.807 -0.8168 -0.5682  1.7931
 5447TIP3    H237901   3.075   0.130   2.745 -1.6956 -0.1057  2.9653
 5448TIP3   OH237902   1.178   1.534   0.694  0.2268 -0.2851 -0.1329
 5448TIP3    H137903   1.145   1.623   0.709 -1.3165 -0.7581 -0.5344
 5448TIP3    H237904   1.270   1.546   0.673  0.0747  1.2162 -0.0631
 5449TIP3   OH237905   5.146   3.382   0.441 -0.1608  0.2092 -0.1056
 5449TIP3    H137906   5.205   3.449   0.406 -0.2400  0.0031 -0.6430
 5449TIP3    H237907   5.074   3.432   0.479  1.2074  0.5468  2.2201
 5450TIP3   OH237908   1.587   1.810   0.149  0.4167 -0.0339 -0.3878
 5450TIP3    H137909   1.543   1.781   0.228  0.7280 -1.7158 -0.7835
 5450TIP3    H237910   1.675   1.772   0.155  0.2624 -0.7002 -1.7781
 5451TIP3   OH237911   2.104   6.052   3.086 -0.9882  0.7332  0.3273
 5451TIP3    H137912   2.147   6.129   3.047 -1.4991  0.6673 -0.3910
 5451TIP3    H237913   2.147   6.042   3.171  1.0141  0.1508 -0.6839
 5452TIP3   OH237914   0.680   4.823   7.513 -0.5309  0.1356  0.4490
 5452TIP3    H137915   0.653   4.875   7.438 -0.4949 -0.5951 -0.0784
 5452TIP3    H237916   0.641   4.737   7.498  0.7656 -0.4745  0.4695
 5453TIP3   OH237917   6.055   4.817   1.899  0.2876  0.3117 -0.2159
 5453TIP3    H137918   6.041   4.762   1.821  0.7679  0.3956 -0.3681
 5453TIP3    H237919   5.972   4.862   1.912  0.2018  0.2938 -0.6808
 5454TIP3   OH237920   1.908   3.234   0.228  0.6992  0.5065  0.2552
 5454TIP3    H137921   1.878   3.152   0.189 -1.5632  0.1300  2.5685
 5454TIP3    H237922   1.952   3.207   0.308  0.4133  1.5308  0.7619
 5455TIP3   OH237923   6.250   5.632   7.867 -0.1596 -0.0005  0.3218
 5455TIP3    H137924   6.243   5.624   7.772 -0.4182  0.8150  0.2606
 5455TIP3    H237925   6.325   5.578   7.891 -1.4982 -2.1923 -0.0513
 5456TIP3   OH237926   4.253   6.510   7.621 -0.1706 -0.0735  0.6223
 5456TIP3    H137927   4.328   6.465   7.582 -0.4169  0.0285  0.0203
 5456TIP3    H237928   4.198   6.440   7.656 -0.1384 -0.1891  0.4416
 5457TIP3   OH237929   4.164   1.192   7.603 -0.2853  0.0220  0.1378
 5457TIP3    H137930   4.182   1.162   7.514  1.9468 -1.6040  1.0580
 5457TIP3    H237931   4.214   1.273   7.613  0.6182 -0.5551  0.3451
 5458TIP3   OH237932   6.462   3.123   0.962  0.4770  0.0210  0.2924
 5458TIP3    H137933   6.535   3.061   0.954  0.1459 -0.3192 -0.1699
 5458TIP3    H237934   6.463   3.172   0.880  0.1116 -0.0783  0.2234
 5459TIP3   OH237935   5.383   2.319   7.901 -0.0785 -0.4233 -0.1528
 5459TIP3    H137936   5.464   2.361   7.931 -1.1092  1.8556 -0.3852
 5459TIP3    H237937   5.367   2.249   7.965 -0.0633  1.7009  2.3246
 5460TIP3   OH237938   4.457   0.494   7.886 -0.3690  0.0745 -0.5368
 5460TIP3    H137939   4.443   0.413   7.837 -2.8222 -0.5002  0.9366
 5460TIP3    H237940   4.496   0.466   7.969 -0.2041  0.5500 -0.4493
 5461TIP3   OH237941   1.648   5.201   1.609  0.3645  0.3269 -0.2687
 5461TIP3    H137942   1.591   5.263   1.653  1.4663  1.4953 -0.4319
 5461TIP3    H237943   1.642   5.121   1.663  1.2640  1.5355  1.7471
 5462TIP3   OH237944   5.660   4.272   7.985 -0.0411  0.5979  0.4415
 5462TIP3    H137945   5.722   4.210   8.025  0.6895  1.4349  0.6448
 5462TIP3    H237946   5.698   4.291   7.899 -0.7518  0.0625  0.0014
 5463TIP3   OH237947   5.825   6.671   8.500 -0.0999  0.2419  0.5462
 5463TIP3    H137948   5.856   6.752   8.540 -0.1133 -0.4764  2.0916
 5463TIP3    H237949   5.843   6.604   8.566 -2.1482 -0.6663  0.2490
 5464TIP3   OH237950   1.063   1.640   1.073 -0.4681 -0.2275  0.0810
 5464TIP3    H137951   0.967   1.642   1.078 -0.5397 -2.8239  1.6807
 5464TIP3    H237952   1.084   1.547   1.060  1.8538  0.2657 -0.0401
 5465TIP3   OH237953   1.274   2.232   6.659 -0.1614 -0.1782 -0.4864
 5465TIP3    H137954   1.300   2.306   6.604  0.3495  1.2390  1.5235
 5465TIP3    H237955   1.212   2.270   6.722 -0.8913 -1.7725 -0.1931
 5466TIP3   OH237956   5.931   1.417   1.574  0.7607 -0.2101 -0.6061
 5466TIP3    H137957   6.005   1.464   1.535  1.0237 -0.5745 -0.5537
 5466TIP3    H237958   5.945   1.326   1.549  1.2234 -0.5374  0.7697
 5467TIP3   OH237959   2.200   0.224   1.432 -0.4566 -0.0649 -0.3984
 5467TIP3    H137960   2.202   0.311   1.393 -0.6554 -0.2350 -0.8029
 5467TIP3    H237961   2.111   0.214   1.464  0.3156  1.0112  2.3423
 5468TIP3   OH237962   4.152   2.521   7.763  0.2489 -0.8326 -0.4223
 5468TIP3    H137963   4.177   2.440   7.809 -1.9223 -1.5538 -0.3855
 5468TIP3    H237964   4.128   2.581   7.833  0.8934 -0.4901 -0.4902
 5469TIP3   OH237965   2.474   0.267   1.098 -0.6591  0.5796  0.3135
 5469TIP3    H137966   2.408   0.335   1.107  0.5622  1.7017  1.3661
 5469TIP3    H237967   2.551   0.314   1.064 -0.0005 -0.3978  0.4287
 5470TIP3   OH237968   3.827   5.867   1.632 -0.4560 -0.3166  0.0879
 5470TIP3    H137969   3.806   5.776   1.610  0.3382 -0.4102 -0.3315
 5470TIP3    H237970   3.906   5.886   1.582 -1.8515  1.3597 -1.6268
 5471TIP3   OH237971   3.869   4.330   1.681  0.4772  0.0661  0.0246
 5471TIP3    H137972   3.847   4.408   1.631 -1.4278  0.2751  1.1054
 5471TIP3    H237973   3.962   4.315   1.662  0.4872  1.6667 -1.4227
 5472TIP3   OH237974   1.495   3.931   0.024  0.5920  0.3326  0.1160
 5472TIP3    H137975   1.558   3.871  -0.017  0.8806 -0.0110  1.0236
 5472TIP3    H237976   1.520   4.018  -0.008 -0.1752 -0.0523 -1.6493
 5473TIP3   OH237977   2.567   4.766   1.856 -0.0101 -0.2744 -0.6624
 5473TIP3    H137978   2.574   4.691   1.796  2.6384 -1.7685  1.3433
 5473TIP3    H237979   2.486   4.749   1.905  0.5525 -1.8648 -0.2237
 5474TIP3   OH237980   0.633   5.878   2.806  0.2176 -0.0400  0.0290
 5474TIP3    H137981   0.603   5.792   2.779 -1.4421  1.2324 -2.5938
 5474TIP3    H237982   0.566   5.910   2.866  0.4085 -0.2614  0.3590
 5475TIP3   OH237983   0.700   4.549   0.943  0.1215  0.2459  0.2106
 5475TIP3    H137984   0.659   4.635   0.947 -1.6177 -0.5728  1.8546
 5475TIP3    H237985   0.771   4.553   1.007  1.2536  0.9943 -1.0563
 5476TIP3   OH237986   2.056   5.873   2.172 -0.2116 -0.3493  0.3447
 5476TIP3    H137987   2.057   5.929   2.250  0.1774 -1.0936  0.8794
 5476TIP3    H237988   2.014   5.792   2.200 -1.6070 -0.0269 -0.6611
 5477TIP3   OH237989   2.269   6.631   1.326 -0.4261 -0.6700  0.2266
 5477TIP3    H137990   2.271   6.705   1.266 -3.4669 -1.7637 -1.4721
 5477TIP3    H237991   2.263   6.670   1.413  1.5783  0.9774 -0.3215
 5478TIP3   OH237992   0.732   4.990   1.418  0.2666  0.1745 -0.2656
 5478TIP3    H137993   0.705   4.923   1.480  2.0262  0.4546  0.8845
 5478TIP3    H237994   0.762   5.063   1.473  1.2569  0.6893 -1.4288
 5479TIP3   OH237995   1.249   2.305   7.686  0.0725  0.4510 -0.4260
 5479TIP3    H137996   1.318   2.332   7.747 -1.8304  1.3120  1.4754
 5479TIP3    H237997   1.253   2.209   7.687  0.6273  0.4678  0.4109
 5480TIP3   OH237998   5.729   0.356   0.395 -0.4776 -0.0583 -0.3890
 5480TIP3    H137999   5.755   0.436   0.349 -2.1814 -0.1414 -1.5629
 5480TIP3    H238000   5.663   0.385   0.459 -0.6226 -0.4408 -0.3646
 5481TIP3   OH238001   4.851   0.949   1.673 -0.3083 -0.1965 -0.0279
 5481TIP3    H138002   4.902   1.021   1.710  0.5977  0.1133 -1.7963
 5481TIP3    H238003   4.772   0.946   1.727  0.0860  1.4567  0.7172
 5482TIP3   OH238004   5.115   1.306   8.745  0.3273  0.6236  0.2100
 5482TIP3    H138005   5.114   1.224   8.696  0.5301  0.4337  0.5168
 5482TIP3    H238006   5.177   1.290   8.817  0.6142  1.1543  0.0827
 5483TIP3   OH238007   1.803   5.356   0.137 -0.3660  0.2797 -0.3191
 5483TIP3    H138008   1.775   5.271   0.103 -1.5197  1.1082 -1.5883
 5483TIP3    H238009   1.899   5.352   0.137 -0.3825 -0.6683 -1.3633
 5484TIP3   OH238010   6.288   4.903   8.710 -0.0587 -0.0380  0.8671
 5484TIP3    H138011   6.375   4.925   8.675 -0.1953  0.0100  0.5496
 5484TIP3    H238012   6.227   4.934   8.643 -0.3748  0.8438  1.5520
 5485TIP3   OH238013   0.320   1.265   8.828 -0.9364 -0.3235  0.2258
 5485TIP3    H138014   0.390   1.271   8.763 -2.9266 -0.2938 -2.0340
 5485TIP3    H238015   0.345   1.327   8.896 -0.4047  2.3168 -2.1950
 5486TIP3   OH238016   4.953   6.199   0.793 -0.1200  0.1684 -0.2510
 5486TIP3    H138017   4.974   6.241   0.710  1.1995  0.1077  0.0345
 5486TIP3    H238018   5.037   6.193   0.840 -0.6582 -0.7285  0.6541
 5487TIP3   OH238019   0.752   4.668   2.478 -0.3755  0.1065  0.2556
 5487TIP3    H138020   0.830   4.679   2.424  0.5234 -1.0898  1.2488
 5487TIP3    H238021   0.715   4.756   2.486  0.0067  0.4649 -1.4460
 5488TIP3   OH238022   1.608   3.674   8.392  0.8643 -0.2259 -0.2681
 5488TIP3    H138023   1.635   3.756   8.433 -1.0538  0.5057 -0.3520
 5488TIP3    H238024   1.533   3.644   8.445 -0.7410 -0.0167 -2.2986
 5489TIP3   OH238025   4.272   3.068   7.242 -0.5681 -0.5029  0.0137
 5489TIP3    H138026   4.270   3.058   7.147  1.2171 -0.6463 -0.0453
 5489TIP3    H238027   4.275   3.162   7.257  2.4405 -0.4555 -0.2662
 5490TIP3   OH238028   0.709   0.167   0.295  1.0753  0.3022 -0.5358
 5490TIP3    H138029   0.768   0.117   0.240  0.8022 -0.5420 -0.0889
 5490TIP3    H238030   0.735   0.145   0.385  0.5117  0.4199 -0.3361
 5491TIP3   OH238031   2.920   1.967   2.893 -0.0604  0.5224 -0.5471
 5491TIP3    H138032   2.894   2.048   2.850 -0.4799  0.4290 -0.4776
 5491TIP3    H238033   3.009   1.950   2.862  0.1004  1.1048 -0.4167
 5492TIP3   OH238034   0.193   0.428   2.453 -0.4904 -0.2961 -0.1568
 5492TIP3    H138035   0.147   0.445   2.536  0.0011  0.6522 -0.0710
 5492TIP3    H238036   0.124   0.430   2.387 -0.5811  1.1861 -0.0397
 5493TIP3   OH238037   5.159   0.236   1.913  0.8545 -0.1775 -0.3483
 5493TIP3    H138038   5.195   0.294   1.846 -0.6605 -0.6479 -1.6424
 5493TIP3    H238039   5.103   0.292   1.966  0.8047 -0.1057 -0.4754
 5494TIP3   OH238040   6.447   2.808   1.088  0.2221  0.1866 -0.3828
 5494TIP3    H138041   6.531   2.772   1.058  0.3848  0.7936 -0.6638
 5494TIP3    H238042   6.465   2.900   1.107 -0.7428  0.7562 -2.0272
 5495TIP3   OH238043   0.470   4.635   0.452 -0.2149  0.3739 -0.1125
 5495TIP3    H138044   0.484   4.595   0.366 -0.4931 -0.1393  0.0735
 5495TIP3    H238045   0.493   4.727   0.440  3.0740 -0.2766  0.0839
 5496TIP3   OH238046   1.795   6.591   8.727  0.2813  0.0588  0.2345
 5496TIP3    H138047   1.705   6.601   8.699  1.0264  0.7145 -2.1806
 5496TIP3    H238048   1.818   6.675   8.767 -0.0464  0.0081  0.5371
 5497TIP3   OH238049   5.527   5.833   7.055 -0.7999 -0.1485  0.2118
 5497TIP3    H138050   5.584   5.760   7.079 -2.2294 -0.6763  2.3130
 5497TIP3    H238051   5.587   5.908   7.050  0.1529 -0.6874  2.2627
 5498TIP3   OH238052   6.067   5.872   8.782  0.4515 -0.3968  0.0661
 5498TIP3    H138053   6.088   5.788   8.823  0.3010 -1.6366 -2.2671
 5498TIP3    H238054   5.992   5.905   8.832  1.4832 -0.8542  2.0008
 5499TIP3   OH238055   5.882   4.848   2.266  0.3057 -0.4161 -0.6953
 5499TIP3    H138056   5.959   4.903   2.256  0.2424 -0.5586 -2.0877
 5499TIP3    H238057   5.817   4.885   2.207 -0.2675 -1.0437 -0.4790
 5500TIP3   OH238058   2.958   2.908   0.450  0.2684  0.2432 -0.0868
 5500TIP3    H138059   2.870   2.879   0.476 -0.3926  1.8392 -0.3795
 5500TIP3    H238060   2.971   2.990   0.497  0.7129  1.1209 -1.6569
 5501TIP3   OH238061   6.709   5.820   8.376 -0.3760  0.4348 -0.2351
 5501TIP3    H138062   6.740   5.892   8.431 -1.6245  0.0298  1.0698
 5501TIP3    H238063   6.783   5.759   8.373  0.9028  1.9846 -1.8341
 5502TIP3   OH238064   2.254   6.284   3.032 -0.3391 -0.0735  0.3191
 5502TIP3    H138065   2.199   6.331   2.969  0.4555 -0.1915 -0.4775
 5502TIP3    H238066   2.328   6.342   3.048  1.2135 -1.4520 -1.5149
 5503TIP3   OH238067   4.162   4.916   1.046  0.3453 -0.4753 -0.0387
 5503TIP3    H138068   4.124   4.997   1.079  0.3345 -0.4340 -0.1525
 5503TIP3    H238069   4.089   4.854   1.046  0.7980 -1.1046  2.0777
 5504TIP3   OH238070   1.244   1.360   0.875  0.0675  0.3610  0.2172
 5504TIP3    H138071   1.287   1.306   0.808 -0.4379 -0.4323  0.5281
 5504TIP3    H238072   1.196   1.426   0.824  1.2416  0.9751 -0.1467
 5505TIP3   OH238073   5.124   0.982   8.310  0.2305  0.1426 -0.0342
 5505TIP3    H138074   5.186   1.052   8.291  0.5914  0.4580  1.9931
 5505TIP3    H238075   5.039   1.018   8.284  0.4943  1.1064  0.3900
 5506TIP3   OH238076   5.065   3.826   2.109  0.3964  0.1871  0.1710
 5506TIP3    H138077   5.060   3.742   2.153  0.3870  0.5520  0.8724
 5506TIP3    H238078   5.004   3.818   2.035  0.3365 -0.3866  0.2782
 5507TIP3   OH238079   4.379   3.916   7.824  0.7279 -0.1173  0.2429
 5507TIP3    H138080   4.388   4.000   7.868  1.7605 -0.4587  0.7216
 5507TIP3    H238081   4.312   3.931   7.756  0.6375  0.9756  0.5553
 5508TIP3   OH238082   4.965   2.578   1.302 -0.2260  0.2151 -0.2850
 5508TIP3    H138083   4.898   2.645   1.309 -1.4096 -0.6625 -2.2766
 5508TIP3    H238084   4.993   2.582   1.210 -0.4620 -2.0626 -0.5100
 5509TIP3   OH238085   4.342   2.969   8.486 -0.0260 -0.2523  0.1268
 5509TIP3    H138086   4.414   2.934   8.434  1.2919  0.2944  1.5209
 5509TIP3    H238087   4.383   3.033   8.544 -2.0398  2.2322 -0.9827
 5510TIP3   OH238088   3.440   6.562   8.181 -0.1665 -0.2683 -0.1668
 5510TIP3    H138089   3.406   6.482   8.220 -0.3994  0.6081  1.5070
 5510TIP3    H238090   3.370   6.593   8.123 -0.7655 -0.3927  0.4776
 5511TIP3   OH238091   1.834   0.778   1.518  0.1081  0.7704 -0.1887
 5511TIP3    H138092   1.791   0.863   1.512  0.1143  1.0552  2.5558
 5511TIP3    H238093   1.908   0.792   1.578 -0.8964 -1.4585  1.7701
 5512TIP3   OH238094   0.297   0.531   8.050  0.0192  0.1919 -0.4635
 5512TIP3    H138095   0.355   0.457   8.035 -1.1286 -1.3054  2.0171
 5512TIP3    H238096   0.213   0.505   8.010  0.5658  1.8275 -2.9299
 5513TIP3   OH238097   5.318   6.645   1.606  0.1852 -0.5741  0.0725
 5513TIP3    H138098   5.329   6.681   1.694  0.9065 -0.9068  0.1241
 5513TIP3    H238099   5.386   6.577   1.599 -0.2466 -0.9534 -0.5268
 5514TIP3   OH238100   4.123   2.821   7.346 -0.4458  0.5097 -0.2962
 5514TIP3    H138101   4.175   2.754   7.301  0.9126 -0.0304  1.9073
 5514TIP3    H238102   4.186   2.888   7.371 -1.4074  1.4943 -0.4639
 5515TIP3   OH238103   0.177   4.743   7.443 -0.2758 -0.0472 -0.6230
 5515TIP3    H138104   0.267   4.766   7.468 -0.7459  0.0194  1.1159
 5515TIP3    H238105   0.163   4.789   7.361  0.3889  2.1851  0.4318
 5516TIP3   OH238106   4.159   5.563   2.566 -0.7370  0.2410  0.1359
 5516TIP3    H138107   4.093   5.552   2.635  0.0091  0.2374  0.8690
 5516TIP3    H238108   4.243   5.560   2.613 -0.1914 -0.3163 -0.8458
 5517TIP3   OH238109   4.476   4.588   2.107  0.1661 -0.1336 -0.5328
 5517TIP3    H138110   4.453   4.584   2.014 -0.3123 -0.7022 -0.3979
 5517TIP3    H238111   4.405   4.639   2.146  1.8111  2.6331 -0.8936
 5518TIP3   OH238112   4.199   3.472   8.062  0.3508  0.5687 -0.1809
 5518TIP3    H138113   4.124   3.440   8.111  0.0686  0.3754 -0.7317
 5518TIP3    H238114   4.267   3.407   8.075 -0.2599 -0.3499 -1.4039
 5519TIP3   OH238115   0.248   3.101   8.058 -0.4460  0.3580  0.2660
 5519TIP3    H138116   0.171   3.154   8.038 -0.3920  0.0425 -0.8315
 5519TIP3    H238117   0.220   3.043   8.129 -1.7035 -0.7847 -1.0998
 5520TIP3   OH238118   6.638   1.194   2.060  0.7880  0.1358 -0.1985
 5520TIP3    H138119   6.668   1.169   1.973  0.1815 -0.2376 -0.3021
 5520TIP3    H238120   6.711   1.170   2.118  0.8193 -0.4735 -0.4849
 5521TIP3   OH238121   6.468   6.536   8.135 -0.2490 -0.0722  0.8647
 5521TIP3    H138122   6.437   6.535   8.045  0.2250 -1.3223  0.6929
 5521TIP3    H238123   6.397   6.577   8.185 -0.2707  1.1726 -0.1434
 5522TIP3   OH238124   2.125   1.660   0.487 -0.5568  0.0842  0.1614
 5522TIP3    H138125   2.199   1.604   0.464 -2.0551 -1.4625 -1.1775
 5522TIP3    H238126   2.075   1.609   0.551 -1.0349  0.6243  0.2283
 5523TIP3   OH238127   4.358   5.754   0.257  0.1872 -0.6954 -0.0553
 5523TIP3    H138128   4.295   5.821   0.284  0.2597 -0.2339 -0.9821
 5523TIP3    H238129   4.327   5.674   0.298  0.0143 -0.1232  0.9658
 5524TIP3   OH238130   3.555   0.263   0.143 -0.2618 -0.2450 -0.3914
 5524TIP3    H138131   3.601   0.288   0.063 -0.4585 -2.3141 -1.2132
 5524TIP3    H238132   3.543   0.168   0.135 -1.4799 -0.2985  1.4788
 5525TIP3   OH238133   3.710   1.267   7.833 -0.7092  0.4656  0.2714
 5525TIP3    H138134   3.624   1.301   7.807 -1.0073 -0.7874 -0.4515
 5525TIP3    H238135   3.696   1.228   7.919 -0.8861  0.1876  0.1163
 5526TIP3   OH238136   6.023   6.548   0.052 -0.3197  0.2599  0.0659
 5526TIP3    H138137   6.037   6.474   0.111  0.8299 -0.4721 -1.0591
 5526TIP3    H238138   6.108   6.592   0.049  0.5701 -1.3405 -3.0971
 5527TIP3   OH238139   4.510   1.550   8.471  0.1732  0.4637 -0.5614
 5527TIP3    H138140   4.533   1.481   8.533  1.0321  1.2927  0.0726
 5527TIP3    H238141   4.576   1.544   8.402  1.0601  1.4570  0.1606
 5528TIP3   OH238142   6.695   2.848   1.723  0.4976  0.4513  0.3477
 5528TIP3    H138143   6.766   2.861   1.786 -1.3081  2.2900  2.1588
 5528TIP3    H238144   6.671   2.936   1.695 -2.8583  0.1874  1.9577
 5529TIP3   OH238145   3.327   5.245   8.781  0.0536  0.5015  0.3836
 5529TIP3    H138146   3.236   5.249   8.750  1.4759  0.4029 -4.6796
 5529TIP3    H238147   3.352   5.336   8.793 -0.1144  0.6759 -0.5111
 5530TIP3   OH238148   0.777   1.423   2.241 -0.1282  0.0808 -0.3814
 5530TIP3    H138149   0.843   1.356   2.255 -2.5594 -2.4466 -0.2198
 5530TIP3    H238150   0.717   1.385   2.178 -1.1107  2.5547 -1.0582
 5531TIP3   OH238151   5.255   5.682   0.456 -0.2576  0.7127 -0.1048
 5531TIP3    H138152   5.205   5.666   0.376 -1.3690 -1.7247  1.0036
 5531TIP3    H238153   5.346   5.669   0.430 -0.4728  1.3540 -1.2633
 5532TIP3   OH238154   5.978   4.117   2.185 -0.7876  0.4716 -0.1358
 5532TIP3    H138155   5.999   4.037   2.137  0.9680  0.0863  1.1718
 5532TIP3    H238156   6.053   4.174   2.171 -1.3434  1.3075  0.1934
 5533TIP3   OH238157   2.611   2.693   1.371  0.1141  0.0653 -0.4821
 5533TIP3    H138158   2.584   2.628   1.306  0.1693  0.4179 -0.8645
 5533TIP3    H238159   2.695   2.725   1.340  0.4761 -0.2693  0.1448
 5534TIP3   OH238160   6.767   2.168   8.370 -0.2855  0.0895 -0.2585
 5534TIP3    H138161   6.719   2.147   8.450 -0.8356  0.5332 -0.4641
 5534TIP3    H238162   6.826   2.239   8.395 -0.8833  0.6408 -0.3775
 5535TIP3   OH238163   0.854   2.434   8.398  0.0572  0.2356 -0.1084
 5535TIP3    H138164   0.774   2.391   8.425  0.7321 -1.2803 -0.3858
 5535TIP3    H238165   0.901   2.367   8.347  1.4892  1.0722  0.0555
 5536TIP3   OH238166   1.423   5.419   0.285 -0.7730 -0.2579  0.0323
 5536TIP3    H138167   1.342   5.471   0.286  0.2472  1.3879  1.3598
 5536TIP3    H238168   1.488   5.474   0.328  1.3052 -1.2150 -1.7046
 5537TIP3   OH238169   1.683   1.344   8.702 -0.6476 -0.3366  0.5705
 5537TIP3    H138170   1.734   1.421   8.681  0.2632 -1.0241  0.2112
 5537TIP3    H238171   1.653   1.358   8.792  0.0283  0.1556  0.7210
 5538TIP3   OH238172   0.549   5.190   2.114  1.2638  0.3479  0.3382
 5538TIP3    H138173   0.574   5.098   2.127 -0.1110 -0.1069  0.0216
 5538TIP3    H238174   0.622   5.240   2.149  1.6105 -0.8683  1.4439
 5539TIP3   OH238175   3.408   3.544   7.799  0.2168  0.0327  0.6229
 5539TIP3    H138176   3.398   3.561   7.705 -0.2101 -0.1172  0.6394
 5539TIP3    H238177   3.402   3.449   7.807  1.5752 -0.0661  0.6513
 5540TIP3   OH238178   4.240   4.916   1.526 -0.2377 -0.0644  0.0784
 5540TIP3    H138179   4.246   4.821   1.542 -0.2641  0.0826  1.0396
 5540TIP3    H238180   4.150   4.939   1.550 -0.4812  0.0803 -0.9266
 5541TIP3   OH238181   4.012   1.764   8.863  0.5882  0.3237  0.2347
 5541TIP3    H138182   4.080   1.708   8.825  0.4576 -0.2440  0.8242
 5541TIP3    H238183   3.931   1.733   8.823  0.6141  0.6519 -0.0725
 5542TIP3   OH238184   2.462   0.974   0.407  0.0050  0.1158 -0.0410
 5542TIP3    H138185   2.409   0.894   0.404 -2.0944  1.3649  1.0904
 5542TIP3    H238186   2.489   0.981   0.499  3.4842 -1.1964 -0.8016
 5543TIP3   OH238187   6.100   2.788   7.931  0.1872  0.8276 -0.3192
 5543TIP3    H138188   6.069   2.858   7.872 -0.3326  1.1739  0.3505
 5543TIP3    H238189   6.025   2.770   7.988 -0.2248 -1.3446 -1.4353
 5544TIP3   OH238190   2.751   5.809   1.599  0.1747  0.1937  0.2773
 5544TIP3    H138191   2.765   5.727   1.552 -0.0283 -0.7048  1.7054
 5544TIP3    H238192   2.740   5.875   1.531 -0.8790 -1.1648 -0.9299
 5545TIP3   OH238193   6.027   4.871   2.546  0.1312 -0.0884  0.2342
 5545TIP3    H138194   6.115   4.848   2.517  0.1634  0.6347 -0.2548
 5545TIP3    H238195   6.017   4.963   2.523 -0.6072 -0.0543  0.6543
 5546TIP3   OH238196   0.154   4.913   7.222  0.3693  0.0150 -0.0089
 5546TIP3    H138197   0.249   4.926   7.219  0.2801  0.5367 -0.8595
 5546TIP3    H238198   0.120   4.999   7.247  0.0740  0.0836 -0.6288
 5547TIP3   OH238199   3.562   3.916   0.162 -0.1146 -0.9612  0.3864
 5547TIP3    H138200   3.594   4.005   0.173 -0.0745 -0.3109 -3.5045
 5547TIP3    H238201   3.627   3.861   0.204  0.7520  0.7747  1.3863
 5548TIP3   OH238202   5.006   5.495   8.140 -0.4849 -0.0542  0.5761
 5548TIP3    H138203   5.004   5.583   8.104  0.9922 -0.4439 -0.5648
 5548TIP3    H238204   4.971   5.504   8.228 -2.2715  1.3010 -0.2127
 5549TIP3   OH238205   1.129   4.895   2.089  0.1831 -0.0381  0.8947
 5549TIP3    H138206   1.168   4.819   2.132  1.4283  1.4999  2.6302
 5549TIP3    H238207   1.164   4.894   2.000 -0.0498 -1.6184  0.7972
 5550TIP3   OH238208   6.440   1.869   8.830  0.5777 -0.7775  0.0371
 5550TIP3    H138209   6.444   1.778   8.859 -1.6197 -0.9401 -0.0259
 5550TIP3    H238210   6.351   1.880   8.797  0.3834  1.7688  1.2194
 5551TIP3   OH238211   3.769   2.795   8.588  0.6552  0.3735  0.0499
 5551TIP3    H138212   3.684   2.818   8.550  1.1717  0.3461 -1.1756
 5551TIP3    H238213   3.802   2.877   8.625 -1.1678 -0.1796  3.2558
 5552TIP3   OH238214   0.754   3.457   1.687  0.6130 -0.0700  0.3801
 5552TIP3    H138215   0.744   3.453   1.592 -0.5749  0.9329  0.4401
 5552TIP3    H238216   0.670   3.426   1.722  0.4438  1.0999  1.0647
 5553TIP3   OH238217   2.153   3.331   1.376  0.2089 -0.3368 -0.2724
 5553TIP3    H138218   2.219   3.346   1.309  0.8623 -1.0228  0.2071
 5553TIP3    H238219   2.070   3.355   1.334  0.4841 -1.6899 -1.6450
 5554TIP3   OH238220   6.392   1.141   8.843 -0.3424  0.0120  0.1352
 5554TIP3    H138221   6.306   1.111   8.813  0.5611 -0.9064 -1.6628
 5554TIP3    H238222   6.372   1.192   8.921 -2.7984  1.9927 -1.6100
 5555TIP3   OH238223   2.957   2.664   7.091  0.2133 -0.3691 -0.3098
 5555TIP3    H138224   2.866   2.680   7.069  0.6872  1.2642 -1.2741
 5555TIP3    H238225   3.006   2.696   7.015  1.6898  1.1530  1.1796
 5556TIP3   OH238226   1.250   3.739   2.686 -0.2362  0.1381 -0.2722
 5556TIP3    H138227   1.282   3.785   2.608 -2.2593 -0.9264 -1.8454
 5556TIP3    H238228   1.181   3.796   2.720 -0.9320 -0.4400 -0.6684
 5557TIP3   OH238229   4.789   4.990   7.127  0.0114  0.1492 -0.1164
 5557TIP3    H138230   4.876   5.025   7.146  0.1937 -0.5792  0.4607
 5557TIP3    H238231   4.788   4.976   7.033  1.8769 -3.1925  0.1888
 5558TIP3   OH238232   3.120   0.738   2.308  0.2637 -0.1917 -0.3342
 5558TIP3    H138233   3.211   0.708   2.302  0.1286 -0.4095 -1.3698
 5558TIP3    H238234   3.096   0.759   2.218 -0.3169  1.0576  0.0996
 5559TIP3   OH238235   1.315   2.742   0.858  0.2411 -0.2740  0.0687
 5559TIP3    H138236   1.410   2.739   0.871  0.1543 -0.1829  0.7885
 5559TIP3    H238237   1.292   2.654   0.827  0.6626 -0.0468 -0.9317
 5560TIP3   OH238238   6.671   1.405   8.786 -0.4423  0.7670 -0.3652
 5560TIP3    H138239   6.623   1.362   8.715  0.2563 -0.9794  0.1569
 5560TIP3    H238240   6.763   1.387   8.767 -0.2128  0.7710  0.6588
 5561TIP3   OH238241   6.243   0.371   7.895 -0.3127 -0.1467 -0.3078
 5561TIP3    H138242   6.215   0.302   7.956 -0.9259 -0.1979 -0.6463
 5561TIP3    H238243   6.190   0.447   7.919 -1.9549 -0.6996 -2.0017
 5562TIP3   OH238244   4.191   3.165   1.472 -0.2357  0.5003 -0.2866
 5562TIP3    H138245   4.179   3.182   1.566 -1.2257 -0.2266 -0.2627
 5562TIP3    H238246   4.106   3.133   1.442  0.6396 -1.4150 -0.9522
 5563TIP3   OH238247   2.820   5.292   2.527  0.2040  0.1277  0.1292
 5563TIP3    H138248   2.798   5.202   2.549 -0.6116  0.6721  1.6995
 5563TIP3    H238249   2.912   5.300   2.551  0.1507 -0.1630  0.4456
 5564TIP3   OH238250   1.794   5.387   7.947 -0.2171 -0.1739  0.5854
 5564TIP3    H138251   1.886   5.367   7.964  0.0213  0.7395  0.4212
 5564TIP3    H238252   1.753   5.384   8.033  0.2269  0.6706  0.8418
 5565TIP3   OH238253   6.362   5.261   0.219 -0.1942  0.4904  0.3526
 5565TIP3    H138254   6.336   5.340   0.171  0.8273  0.3854 -0.4047
 5565TIP3    H238255   6.317   5.190   0.174  0.4676  0.4334 -0.2321
 5566TIP3   OH238256   5.426   3.849   1.247  0.0143  0.7489  0.0390
 5566TIP3    H138257   5.515   3.885   1.245 -0.1559  1.1351 -1.2142
 5566TIP3    H238258   5.372   3.916   1.206 -0.4183 -0.5986 -1.7311
 5567TIP3   OH238259   0.790   2.437   7.375  0.2835  0.7157  0.2262
 5567TIP3    H138260   0.833   2.516   7.344 -0.7744  1.2873  0.1519
 5567TIP3    H238261   0.805   2.372   7.306 -0.7036  1.5107 -0.7590
 5568TIP3   OH238262   4.244   2.639   8.401 -0.4623 -0.5104 -0.6441
 5568TIP3    H138263   4.286   2.666   8.482 -1.0580  1.0230 -0.8197
 5568TIP3    H238264   4.299   2.675   8.331 -1.4280  0.5343 -0.8825
 5569TIP3   OH238265   3.761   0.907   8.653  0.0549  0.2196  0.5292
 5569TIP3    H138266   3.678   0.953   8.649  0.3313  0.6989  0.2642
 5569TIP3    H238267   3.801   0.921   8.568 -0.0355 -0.8594  0.2901
 5570TIP3   OH238268   1.918   4.217   0.289  0.3373  0.2486 -0.1842
 5570TIP3    H138269   1.908   4.295   0.344  1.6981  1.0668 -1.0124
 5570TIP3    H238270   1.830   4.183   0.278 -0.0925  0.6871  1.5770
 5571TIP3   OH238271   4.114   3.131   8.100 -0.0798  0.2494  0.2232
 5571TIP3    H138272   4.164   3.166   8.026 -0.7849 -0.6470 -0.7108
 5571TIP3    H238273   4.157   3.167   8.178  1.9648 -0.4455 -0.5312
 5572TIP3   OH238274   0.445   5.410   7.038  0.4284 -0.1986  1.0209
 5572TIP3    H138275   0.407   5.338   7.087  0.9868 -0.7091  0.7135
 5572TIP3    H238276   0.509   5.449   7.097 -0.7556  0.8697  1.6630
 5573TIP3   OH238277   6.760   5.024   0.290 -0.4152 -0.2421  0.2276
 5573TIP3    H138278   6.767   4.929   0.289  0.2136 -0.1984 -0.5478
 5573TIP3    H238279   6.708   5.045   0.212 -1.8352 -0.0309  1.2021
 5574TIP3   OH238280   6.632   5.164   1.057  0.2789  0.3843 -0.2628
 5574TIP3    H138281   6.564   5.224   1.088 -0.3770 -0.0315 -0.8632
 5574TIP3    H238282   6.711   5.191   1.104 -0.4729  0.3461  1.0655
 5575TIP3   OH238283   3.942   5.501   2.722 -0.0346 -0.8590 -0.2640
 5575TIP3    H138284   3.851   5.528   2.708  0.0416 -0.5670 -0.1920
 5575TIP3    H238285   3.935   5.414   2.761 -0.3315 -0.2418  1.1406
 5576TIP3   OH238286   3.322   0.045   0.662  0.1368  0.2120 -0.1375
 5576TIP3    H138287   3.365  -0.032   0.625  0.7473  0.3115  0.3576
 5576TIP3    H238288   3.392   0.094   0.704 -0.3281  0.7988 -0.0351
 5577TIP3   OH238289   6.702   1.015   0.801 -0.7522 -0.6190  0.1525
 5577TIP3    H138290   6.745   0.941   0.843 -0.8821 -0.5317  0.4418
 5577TIP3    H238291   6.612   0.987   0.789 -0.8174 -0.4813  0.3233
 5578TIP3   OH238292   6.704   6.319   8.475  0.2577  0.0701 -0.4507
 5578TIP3    H138293   6.775   6.367   8.433  2.3501 -1.4194  1.1655
 5578TIP3    H238294   6.630   6.379   8.473  2.0124  2.3764 -0.7187
 5579TIP3   OH238295   4.401   1.498   0.703 -0.7531  0.0428  0.1387
 5579TIP3    H138296   4.480   1.514   0.651 -0.3309  1.9281  1.2367
 5579TIP3    H238297   4.379   1.407   0.686  2.7855 -1.2132  1.1992
 5580TIP3   OH238298   2.095   5.165   0.470  0.4684  0.5057 -0.0597
 5580TIP3    H138299   2.018   5.124   0.431  1.1185 -0.8317  0.0014
 5580TIP3    H238300   2.114   5.240   0.413  0.2320 -0.2525 -1.1596
 5581TIP3   OH238301   2.350   5.483   0.446  0.2461 -0.6895  0.3906
 5581TIP3    H138302   2.285   5.458   0.511 -0.7139  0.4145 -0.0927
 5581TIP3    H238303   2.416   5.531   0.495 -0.0722 -0.5355  0.6736
 5582TIP3   OH238304   6.683   1.879   3.128  0.0627  0.0456 -0.1632
 5582TIP3    H138305   6.687   1.804   3.068  1.9290 -0.9789  1.1200
 5582TIP3    H238306   6.721   1.951   3.079 -0.9352 -0.0568 -1.1202
 5583TIP3   OH238307   2.394   5.126   8.472 -0.0155 -0.3669 -0.2168
 5583TIP3    H138308   2.381   5.042   8.427 -4.9297  0.3163 -0.5708
 5583TIP3    H238309   2.410   5.188   8.401  2.3466 -0.6777 -0.0422
 5584TIP3   OH238310   1.570   2.508   1.014  0.1369  0.6365 -0.3364
 5584TIP3    H138311   1.554   2.578   0.951 -1.2864 -0.1789 -0.9412
 5584TIP3    H238312   1.487   2.499   1.062 -0.0545 -1.1977 -0.9052
 5585TIP3   OH238313   1.193   2.565   2.083  0.0608 -0.0800  0.1662
 5585TIP3    H138314   1.255   2.515   2.030  1.5404  0.7644  1.0298
 5585TIP3    H238315   1.238   2.578   2.166 -1.5230  0.0815  1.0415
 5586TIP3   OH238316   5.180   5.386   2.316 -0.1748 -0.2554 -0.0947
 5586TIP3    H138317   5.116   5.421   2.254 -1.1519 -0.8349  0.5660
 5586TIP3    H238318   5.225   5.464   2.350  0.1012  0.0970 -1.2071
 5587TIP3   OH238319   2.714   0.467   1.344 -0.2736  0.1997  0.3095
 5587TIP3    H138320   2.790   0.513   1.308  0.9181 -0.6501  1.6727
 5587TIP3    H238321   2.746   0.379   1.363 -1.1796  0.2524  2.2777
 5588TIP3   OH238322   1.915   3.067   7.098 -0.1435  0.4565  0.7015
 5588TIP3    H138323   1.985   3.005   7.079  0.2024  0.8297  0.7304
 5588TIP3    H238324   1.877   3.087   7.013  1.2921  1.9956  0.3592
 5589TIP3   OH238325   2.304   0.314   8.178  0.0520 -0.4187  0.3797
 5589TIP3    H138326   2.243   0.342   8.110  1.7099  1.2868 -0.5097
 5589TIP3    H238327   2.281   0.368   8.254  1.2383  1.2698 -0.3815
 5590TIP3   OH238328   2.436   0.650   2.260 -0.0726 -0.2150  0.2903
 5590TIP3    H138329   2.370   0.691   2.203 -0.0031  1.0082  1.0448
 5590TIP3    H238330   2.468   0.722   2.314  2.4252 -0.6348 -0.5382
 5591TIP3   OH238331   6.740   1.964   2.282 -0.6427 -0.4144  0.2820
 5591TIP3    H138332   6.787   2.014   2.348  1.2883 -0.1439 -1.2220
 5591TIP3    H238333   6.749   1.873   2.309 -0.5161 -0.2569  0.7797
 5592TIP3   OH238334   1.255   0.865   2.004 -0.7582 -0.0732  0.4291
 5592TIP3    H138335   1.216   0.894   1.922 -1.3975 -2.8055 -0.3315
 5592TIP3    H238336   1.331   0.813   1.978 -0.0523  0.2960  1.6539
 5593TIP3   OH238337   6.471   6.644   8.722 -0.0137 -0.5097  0.2986
 5593TIP3    H138338   6.393   6.661   8.775 -0.8336 -1.1022 -0.6894
 5593TIP3    H238339   6.451   6.681   8.636  1.7277  1.4111  0.6343
 5594TIP3   OH238340   0.303   0.963   8.824 -0.1063 -0.6678 -0.4887
 5594TIP3    H138341   0.323   0.966   8.730 -2.5057 -0.0679 -1.0473
 5594TIP3    H238342   0.279   1.053   8.846  0.3712 -0.8188  0.7123
 5595TIP3   OH238343   1.942   2.359   7.146 -0.2761 -0.2784  0.0556
 5595TIP3    H138344   2.037   2.361   7.136 -0.2885 -0.0303  0.0012
 5595TIP3    H238345   1.916   2.451   7.152 -0.6508 -0.2884 -1.2086
 5596TIP3   OH238346   3.091   2.807   0.245  0.1307  0.1306 -0.3593
 5596TIP3    H138347   3.059   2.836   0.331  0.8477 -0.2331  0.0407
 5596TIP3    H238348   3.050   2.721   0.232 -0.1630  0.2908 -0.4853
 5597TIP3   OH238349   3.538   3.049   1.326 -0.3028 -0.3244 -0.1471
 5597TIP3    H138350   3.589   3.094   1.259 -0.9079  2.8588  1.3272
 5597TIP3    H238351   3.548   2.956   1.306  1.9466  0.3634 -2.8158
 5598TIP3   OH238352   0.124   5.992   7.564  0.3194 -0.4325  0.1075
 5598TIP3    H138353   0.056   6.012   7.500  1.0527  2.0767  0.0120
 5598TIP3    H238354   0.116   5.897   7.579 -2.8021 -0.3197 -0.2760
 5599TIP3   OH238355   2.165   0.245   0.030 -0.0415 -0.0953 -0.3914
 5599TIP3    H138356   2.093   0.186   0.052  0.5208 -0.1651  1.4634
 5599TIP3    H238357   2.244   0.198   0.057  0.4652  1.2140  0.5597
 5600TIP3   OH238358   2.814   2.953   0.846 -0.0155  0.4809  0.4320
 5600TIP3    H138359   2.774   2.939   0.760 -0.6127  0.7426  0.6614
 5600TIP3    H238360   2.808   2.869   0.890  0.0613  0.4128  0.3122
 5601TIP3   OH238361   1.798   6.134   2.496 -0.8759 -0.3426  0.4634
 5601TIP3    H138362   1.772   6.101   2.582 -3.8044  1.6600  0.4637
 5601TIP3    H238363   1.725   6.112   2.438  0.4119 -0.3859 -1.2219
 5602TIP3   OH238364   1.837   0.120   1.939  0.5716  0.1372  0.1677
 5602TIP3    H138365   1.828   0.184   1.869 -0.4815  0.9548  1.0058
 5602TIP3    H238366   1.871   0.042   1.897 -0.3897  0.4843 -1.3174
 5603TIP3   OH238367   0.961   0.075   8.289 -0.1354 -0.3383 -0.1742
 5603TIP3    H138368   0.902   0.069   8.364 -1.3379  3.0298 -0.6729
 5603TIP3    H238369   0.902   0.078   8.213  0.5878  2.1763 -0.7443
 5604TIP3   OH238370   2.073   2.409   7.845 -0.2918 -0.0735  0.0581
 5604TIP3    H138371   2.131   2.452   7.781 -0.2509 -0.0008  0.1445
 5604TIP3    H238372   2.096   2.449   7.929 -0.6381  0.1329  0.0569
 5605TIP3   OH238373   6.220   2.154   1.981 -0.1463 -0.1331  0.1813
 5605TIP3    H138374   6.259   2.110   2.057  1.2983 -0.0060 -0.4601
 5605TIP3    H238375   6.275   2.128   1.908 -1.1374  0.2746 -0.7257
 5606TIP3   OH238376   3.179   0.453   2.628 -0.3390 -0.2521  0.3811
 5606TIP3    H138377   3.152   0.375   2.677 -0.0292 -1.2180 -0.9296
 5606TIP3    H238378   3.186   0.423   2.537 -0.7588  1.4441 -0.2491
 5607TIP3   OH238379   1.864   0.275   1.730 -0.2994 -0.0819  0.4955
 5607TIP3    H138380   1.894   0.216   1.661  2.5966  1.1004  0.5849
 5607TIP3    H238381   1.908   0.358   1.710 -1.9533  1.2267  1.9777
 5608TIP3   OH238382   5.448   1.084   8.210  0.1930  0.5868 -0.4711
 5608TIP3    H138383   5.467   0.990   8.205 -2.5351 -0.1895  1.3395
 5608TIP3    H238384   5.480   1.110   8.297  3.7213  2.2278 -2.0405
 5609TIP3   OH238385   4.612   0.009   1.177 -0.1692  0.4987  0.6789
 5609TIP3    H138386   4.592   0.087   1.126  1.4190  1.2979  1.2300
 5609TIP3    H238387   4.604   0.036   1.268 -2.2938 -0.7364  0.9358
 5610TIP3   OH238388   4.585   0.013   8.586  0.0971 -0.0460  0.3749
 5610TIP3    H138389   4.641  -0.064   8.594  0.0507 -0.0750  0.4322
 5610TIP3    H238390   4.643   0.087   8.603  0.3903  0.0115 -0.8212
 5611TIP3   OH238391   2.208   6.647   8.180 -0.4766 -0.3451  0.2241
 5611TIP3    H138392   2.163   6.677   8.259  0.2496  0.0548  0.4942
 5611TIP3    H238393   2.222   6.727   8.129 -0.1810 -0.4819  0.0864
 5612TIP3   OH238394   3.832   1.121   1.995 -1.0488  0.2931  0.4007
 5612TIP3    H138395   3.917   1.090   2.026 -1.2360 -0.3539  0.2708
 5612TIP3    H238396   3.778   1.125   2.075 -1.3536 -0.8025  0.2690
 5613TIP3   OH238397   2.582   5.939   8.580  0.0640  0.0557 -0.2794
 5613TIP3    H138398   2.585   6.031   8.603 -0.9799  0.4401 -1.5295
 5613TIP3    H238399   2.603   5.892   8.661  0.7739  1.3783  0.3231
 5614TIP3   OH238400   3.762   4.663   7.596  0.4564  0.2492 -0.0672
 5614TIP3    H138401   3.776   4.646   7.689  1.1413 -0.2129 -0.2451
 5614TIP3    H238402   3.718   4.584   7.564  0.5715  0.2444 -0.2144
 5615TIP3   OH238403   6.380   3.437   7.728 -0.4731  0.0658 -0.2483
 5615TIP3    H138404   6.375   3.343   7.744  0.0757  0.2150  0.8655
 5615TIP3    H238405   6.370   3.445   7.633  0.1192 -1.1665 -0.4371
 5616TIP3   OH238406   0.191   2.869   0.367  0.2623  0.1446  0.3413
 5616TIP3    H138407   0.187   2.859   0.272 -0.1239 -0.4509  0.4167
 5616TIP3    H238408   0.102   2.850   0.397  0.8765 -1.9344  1.0176
 5617TIP3   OH238409   6.444   4.339   1.023 -0.0202  0.3298 -0.0470
 5617TIP3    H138410   6.495   4.417   0.998 -3.3084  2.7431  0.0803
 5617TIP3    H238411   6.409   4.307   0.940  2.7558 -2.3630 -0.3656
 5618TIP3   OH238412   4.818   4.969   2.614  0.3202 -0.1639 -0.0890
 5618TIP3    H138413   4.765   4.932   2.684 -1.2878  2.5017  0.2605
 5618TIP3    H238414   4.908   4.964   2.647 -0.1433 -1.1990  1.0774
 5619TIP3   OH238415   2.347   2.606   0.397  0.2315  0.3551  0.0787
 5619TIP3    H138416   2.295   2.613   0.477  0.3301  0.8863  0.1034
 5619TIP3    H238417   2.313   2.675   0.340  0.1009 -0.0845 -0.3764
 5620TIP3   OH238418   3.672   5.832   0.741 -0.8772 -0.0674  0.4534
 5620TIP3    H138419   3.709   5.753   0.700 -1.2693 -0.8141  1.4908
 5620TIP3    H238420   3.707   5.904   0.689 -0.0915 -0.8964 -0.2126
 5621TIP3   OH238421   4.114   0.004   8.004 -0.3168 -0.3208 -0.4345
 5621TIP3    H138422   4.164   0.017   8.084 -1.6539 -1.9462  0.7285
 5621TIP3    H238423   4.052  -0.065   8.025 -2.7326  1.2214 -1.9541
 5622TIP3   OH238424   3.991   2.983   2.110 -0.8050  0.4796  0.2079
 5622TIP3    H138425   4.085   2.982   2.089 -0.2478 -1.1119  2.3920
 5622TIP3    H238426   3.981   3.058   2.169 -0.3090 -0.8458  2.0636
 5623TIP3   OH238427   5.775   2.746   7.489 -0.4985  0.1076  0.1403
 5623TIP3    H138428   5.691   2.738   7.444  0.3312 -0.9875 -1.3155
 5623TIP3    H238429   5.807   2.833   7.466 -0.9656  0.2958  0.2114
 5624TIP3   OH238430   6.486   4.360   8.305  0.1376 -0.4820  0.1289
 5624TIP3    H138431   6.571   4.345   8.263  0.4371  0.2327  0.4613
 5624TIP3    H238432   6.439   4.278   8.294 -0.6550  0.2772 -3.5307
 5625TIP3   OH238433   2.917   1.958   8.309  0.1220 -0.4189 -0.1887
 5625TIP3    H138434   2.968   1.877   8.304  1.9029  0.1104  4.4007
 5625TIP3    H238435   2.970   2.023   8.264  0.6701 -1.0091 -0.4118
 5626TIP3   OH238436   0.284   4.904   2.359 -0.3831  0.2761 -0.2902
 5626TIP3    H138437   0.346   4.950   2.416  0.4666  0.4798 -1.3432
 5626TIP3    H238438   0.204   4.956   2.364  0.3729  1.5496 -0.9829
 5627TIP3   OH238439   4.735   2.201   0.827  0.4223  0.2253  0.0199
 5627TIP3    H138440   4.668   2.136   0.810 -1.2883  1.7166  0.6440
 5627TIP3    H238441   4.720   2.228   0.918  0.3355  2.2224 -0.5228
 5628TIP3   OH238442   5.663   0.644   1.571  0.1388 -0.2625  0.6543
 5628TIP3    H138443   5.585   0.626   1.518  0.3347  1.9960 -0.4749
 5628TIP3    H238444   5.662   0.738   1.585  3.1826 -0.0019 -0.2289
 5629TIP3   OH238445   3.123   3.985   1.807  0.1686 -0.3248  0.6121
 5629TIP3    H138446   3.098   4.003   1.716 -0.9758 -1.6210  0.6458
 5629TIP3    H238447   3.041   3.984   1.855  0.7893  0.6400  1.7439
 5630TIP3   OH238448   6.272   6.686   0.014 -0.0800  0.8600 -0.1824
 5630TIP3    H138449   6.226   6.769   0.002  0.4978  1.2765  0.4247
 5630TIP3    H238450   6.299   6.686   0.106 -0.8830 -0.4284  0.0832
 5631TIP3   OH238451   0.684   3.974   0.300 -0.4891  1.2376 -0.3873
 5631TIP3    H138452   0.762   3.928   0.267 -0.1312  0.4065  1.4946
 5631TIP3    H238453   0.710   4.066   0.303  0.3393  1.0069 -0.0713
 5632TIP3   OH238454   4.661   0.454   1.923  0.3130  0.0643 -0.5910
 5632TIP3    H138455   4.617   0.448   2.008 -0.5401  1.6057 -0.8827
 5632TIP3    H238456   4.591   0.440   1.859  0.5488  0.9765 -1.0569
 5633TIP3   OH238457   4.176   6.411   0.324 -0.2618 -0.2211  0.4332
 5633TIP3    H138458   4.188   6.503   0.345  0.0214 -0.2196  0.2586
 5633TIP3    H238459   4.108   6.381   0.385  0.1561 -0.0774  0.9778
 5634TIP3   OH238460   3.480   1.684   0.332  0.2049 -0.0632 -0.4378
 5634TIP3    H138461   3.388   1.660   0.347  0.2890 -1.1323 -1.4575
 5634TIP3    H238462   3.487   1.694   0.237  1.1565 -0.0290 -0.3747
 5635TIP3   OH238463   0.603   4.432   6.833  0.0413 -0.3288  0.2120
 5635TIP3    H138464   0.643   4.519   6.827 -0.8882  0.1043  0.0266
 5635TIP3    H238465   0.588   4.407   6.742  0.3883 -0.7344  0.2618
 5636TIP3   OH238466   5.938   4.254   2.440  0.0687 -0.4778  0.1149
 5636TIP3    H138467   5.964   4.346   2.428  2.5986 -0.9912  1.1117
 5636TIP3    H238468   5.950   4.215   2.353  2.7952 -0.6390  0.4590
 5637TIP3   OH238469   3.551   6.109   7.774 -0.0011  0.0570 -0.3036
 5637TIP3    H138470   3.601   6.093   7.694 -0.6477 -1.4339 -0.4508
 5637TIP3    H238471   3.503   6.028   7.788 -2.5298  1.4528 -0.2778
 5638TIP3   OH238472   6.641   2.909   6.960  0.0621  0.3940 -0.2656
 5638TIP3    H138473   6.608   2.901   6.870  0.3579 -0.7913 -0.2834
 5638TIP3    H238474   6.670   2.821   6.982 -1.4940  0.2808  1.5694
 5639TIP3   OH238475   3.203   3.966   7.713 -0.4231 -0.1651 -0.0887
 5639TIP3    H138476   3.274   4.026   7.733  0.5500 -0.8928 -1.2043
 5639TIP3    H238477   3.161   4.003   7.635 -1.6446  0.5508  0.8739
 5640TIP3   OH238478   1.426   5.077   0.249 -0.2980 -0.1223  0.1316
 5640TIP3    H138479   1.389   5.152   0.201 -0.6920 -0.7106 -0.5018
 5640TIP3    H238480   1.375   5.072   0.330  1.3679  1.8266  1.3962
 5641TIP3   OH238481   2.346   4.322   0.378  0.0909  0.0286  0.2644
 5641TIP3    H138482   2.383   4.259   0.316 -2.2855 -1.1427 -0.0757
 5641TIP3    H238483   2.298   4.384   0.324  0.1493  0.5340  0.7810
 5642TIP3   OH238484   1.496   6.666   1.523  0.6326  0.3005  0.1178
 5642TIP3    H138485   1.481   6.652   1.430  0.3107 -2.5930  0.5096
 5642TIP3    H238486   1.414   6.703   1.555  0.2316 -0.0155 -0.5211
 5643TIP3   OH238487   3.467   6.422   3.142  0.0685  0.2501 -0.1578
 5643TIP3    H138488   3.404   6.394   3.077  0.8219 -0.3748 -0.6405
 5643TIP3    H238489   3.545   6.368   3.125 -0.8537 -2.6536  3.5195
 5644TIP3   OH238490   3.947   1.760   1.415  0.0576  0.3560  0.4529
 5644TIP3    H138491   4.021   1.723   1.463 -0.5957 -0.8537  0.5704
 5644TIP3    H238492   3.939   1.703   1.338 -3.6970 -2.7124  2.7677
 5645TIP3   OH238493   0.636   4.794   1.568 -0.1319  0.4012  0.4687
 5645TIP3    H138494   0.703   4.762   1.628  2.4112 -0.2215 -2.4170
 5645TIP3    H238495   0.553   4.778   1.613  1.4817 -1.8343  2.9297
 5646TIP3   OH238496   2.369   0.665   0.370  0.5498  0.0049  0.2125
 5646TIP3    H138497   2.348   0.604   0.441 -1.6968 -0.5804 -0.8507
 5646TIP3    H238498   2.387   0.609   0.294  1.7725  0.6427 -0.0040
 5647TIP3   OH238499   4.245   3.202   8.316  0.5222  0.0929  0.1447
 5647TIP3    H138500   4.266   3.110   8.330  0.9088  0.1881  0.1844
 5647TIP3    H238501   4.329   3.247   8.318  0.3675  0.4036 -0.2281
 5648TIP3   OH238502   1.686   3.795   7.072  0.2024  0.2249  0.0623
 5648TIP3    H138503   1.685   3.890   7.086  2.1871  0.3696 -0.5295
 5648TIP3    H238504   1.614   3.780   7.011 -0.9278  1.1608  1.1155
 5649TIP3   OH238505   3.028   1.154   7.338 -0.1258  1.0539 -0.0681
 5649TIP3    H138506   2.938   1.176   7.364 -0.1048  2.5024 -1.1062
 5649TIP3    H238507   3.017   1.105   7.256 -0.0913 -1.8109  1.4966
 5650TIP3   OH238508   0.485   1.506   7.972  0.3926 -0.5018 -0.2572
 5650TIP3    H138509   0.564   1.523   7.921  0.6353 -1.1610 -0.1053
 5650TIP3    H238510   0.517   1.491   8.061 -0.0309  0.7675  0.1352
 5651TIP3   OH238511   5.491   2.649   7.101 -0.0332  0.0216  0.1979
 5651TIP3    H138512   5.529   2.566   7.073  1.4014  0.6286  0.2152
 5651TIP3    H238513   5.567   2.706   7.117 -0.9749  1.5625 -0.5058
 5652TIP3   OH238514   5.928   0.506   0.927 -0.7952 -0.0854 -0.0886
 5652TIP3    H138515   5.998   0.478   0.867 -0.8050  3.8194 -2.2438
 5652TIP3    H238516   5.971   0.512   1.013  1.4199  1.4732 -1.2089
 5653TIP3   OH238517   4.621   5.949   7.959  0.0473 -0.2349  0.0826
 5653TIP3    H138518   4.659   6.021   7.908 -0.9062 -0.0286 -0.3692
 5653TIP3    H238519   4.527   5.965   7.956 -0.0356 -0.0280  2.1979
 5654TIP3   OH238520   2.520   2.732   7.869 -0.1187 -0.3297  0.4829
 5654TIP3    H138521   2.450   2.788   7.837  0.5064  0.9552  1.2915
 5654TIP3    H238522   2.507   2.649   7.824  0.0432  1.0151 -2.2275
 5655TIP3   OH238523   1.254   0.427   1.410  0.5624  0.0933 -0.0099
 5655TIP3    H138524   1.322   0.443   1.344  0.8284 -0.0065  0.2378
 5655TIP3    H238525   1.265   0.335   1.434  1.0216  0.3507  0.7941
 5656TIP3   OH238526   3.473   6.761   0.063  0.0259  0.4452 -0.3888
 5656TIP3    H138527   3.391   6.791   0.102 -0.3733  0.2560 -1.0640
 5656TIP3    H238528   3.447   6.715  -0.017  0.9162  2.4581 -1.9246
 5657TIP3   OH238529   4.738   2.817   1.289 -0.0155  0.4531 -0.0497
 5657TIP3    H138530   4.658   2.785   1.247  0.2518 -0.1848 -0.0817
 5657TIP3    H238531   4.779   2.873   1.224  0.5927 -0.8276 -0.7935
 5658TIP3   OH238532   1.721   1.782   1.124  0.2605  0.1552 -0.1247
 5658TIP3    H138533   1.742   1.713   1.187  1.7629  0.7879  0.1001
 5658TIP3    H238534   1.651   1.744   1.070 -0.3472 -0.7808  1.2569
 5659TIP3   OH238535   2.410   2.568   8.454 -0.4122 -0.0049 -0.2570
 5659TIP3    H138536   2.479   2.538   8.394  1.6335  1.1745  1.3891
 5659TIP3    H238537   2.413   2.506   8.527  1.2307  1.8211  1.3540
 5660TIP3   OH238538   3.894   3.168   2.578 -0.2626 -0.0954 -0.3128
 5660TIP3    H138539   3.896   3.127   2.664 -0.0343 -2.7677 -1.4831
 5660TIP3    H238540   3.802   3.173   2.556 -0.2948  0.1324 -0.1357
 5661TIP3   OH238541   5.784   0.480   8.319  0.6205  0.7541 -0.3399
 5661TIP3    H138542   5.754   0.554   8.373  0.8994  0.1303  0.6928
 5661TIP3    H238543   5.704   0.446   8.278  0.2530  0.6109  0.4823
 5662TIP3   OH238544   2.077   5.649   8.442 -0.1933  0.8097 -0.7342
 5662TIP3    H138545   2.070   5.558   8.412  0.3397  0.1517  1.0388
 5662TIP3    H238546   2.037   5.649   8.529  2.1697  1.6398  0.4523
 5663TIP3   OH238547   5.379   4.968   8.347  0.2896  0.1303  0.2572
 5663TIP3    H138548   5.345   4.963   8.436 -0.6234  0.7977 -0.0390
 5663TIP3    H238549   5.456   4.912   8.347 -0.2151 -0.5778  1.2323
 5664TIP3   OH238550   2.803   2.284   2.331 -0.0730  0.6206 -0.2859
 5664TIP3    H138551   2.858   2.217   2.290 -0.3338 -0.2851  0.7860
 5664TIP3    H238552   2.714   2.263   2.302 -0.2121  0.2045  0.4191
 5665TIP3   OH238553   2.245   4.921   1.204  0.0210  0.2926  0.0156
 5665TIP3    H138554   2.162   4.910   1.250  0.4581 -1.0222  0.5533
 5665TIP3    H238555   2.221   4.955   1.119 -1.2819 -1.7351 -0.5073
 5666TIP3   OH238556   0.221   0.437   0.232  0.0590  0.2896  0.4865
 5666TIP3    H138557   0.162   0.480   0.294 -0.4966 -0.4433  0.4814
 5666TIP3    H238558   0.289   0.397   0.287 -0.4995 -0.4605  0.6446
 5667TIP3   OH238559   6.438   4.792   1.757 -0.6378  0.5527 -0.2037
 5667TIP3    H138560   6.349   4.807   1.725 -0.1962  0.0841 -1.7391
 5667TIP3    H238561   6.470   4.717   1.707  0.5840  0.6521  0.3803
 5668TIP3   OH238562   6.520   1.461   7.986 -0.2653 -0.1949  0.9811
 5668TIP3    H138563   6.555   1.551   7.984 -1.7342  0.4064 -0.6271
 5668TIP3    H238564   6.557   1.420   7.908 -2.4131  0.2158 -0.3222
 5669TIP3   OH238565   3.721   4.159   1.841 -0.0757 -0.1018 -0.5160
 5669TIP3    H138566   3.786   4.216   1.800  0.0494 -0.4927 -0.8702
 5669TIP3    H238567   3.715   4.191   1.931  0.6569 -0.1105 -0.4567
 5670TIP3   OH238568   5.556   2.775   2.137 -0.0199 -0.1312  0.6275
 5670TIP3    H138569   5.538   2.751   2.228 -0.7399 -0.3186  0.4419
 5670TIP3    H238570   5.605   2.702   2.101 -1.9461 -1.2758  0.1460
 5671TIP3   OH238571   5.264   0.617   7.532  0.0601 -0.1352  0.3755
 5671TIP3    H138572   5.290   0.527   7.512 -1.1429 -0.4243  0.0657
 5671TIP3    H238573   5.344   0.657   7.567  1.1722 -0.7578 -1.2805
 5672TIP3   OH238574   0.241   6.355   8.382  0.4870 -0.9349 -0.5774
 5672TIP3    H138575   0.234   6.409   8.461  0.8345 -0.5739 -0.7875
 5672TIP3    H238576   0.234   6.417   8.310  4.2078 -0.6052 -0.8506
 5673TIP3   OH238577   2.343   6.733   1.924  0.7928 -1.0866 -0.0295
 5673TIP3    H138578   2.360   6.808   1.867 -0.6106  1.1056  2.2032
 5673TIP3    H238579   2.376   6.657   1.876  0.9136  0.7581 -3.0892
 5674TIP3   OH238580   4.832   1.000   0.246 -0.1314 -0.6779  0.4073
 5674TIP3    H138581   4.748   0.999   0.292 -0.2215  1.6779  0.3875
 5674TIP3    H238582   4.811   1.032   0.159  0.8947  0.9677  0.7262
 5675TIP3   OH238583   2.911   0.046   0.275 -0.0906 -0.1527 -0.7515
 5675TIP3    H138584   2.944  -0.031   0.320  0.8624  1.0871  0.8029
 5675TIP3    H238585   2.952   0.043   0.188  2.1313 -0.0321  0.2214
 5676TIP3   OH238586   1.648   2.494   8.883 -0.3217  0.5280 -0.2734
 5676TIP3    H138587   1.630   2.400   8.884  0.1111  0.4225 -1.4647
 5676TIP3    H238588   1.744   2.500   8.877 -0.1940  1.0708  1.4697
 5677TIP3   OH238589   6.377   5.046   1.586 -0.0054 -0.2087 -0.3772
 5677TIP3    H138590   6.290   5.033   1.625  0.3936  0.6032  0.8312
 5677TIP3    H238591   6.360   5.050   1.492 -1.5503  1.7824 -0.0935
 5678TIP3   OH238592   4.422   5.171   3.030  0.3632  0.1381 -0.6684
 5678TIP3    H138593   4.355   5.158   2.963 -1.6575  2.4035  0.7228
 5678TIP3    H238594   4.399   5.254   3.071  0.4104 -1.8104  3.9751
 5679TIP3   OH238595   5.333   0.440   8.732  0.0349  0.5538  0.0927
 5679TIP3    H138596   5.244   0.410   8.714 -0.3433  1.3720  0.4824
 5679TIP3    H238597   5.330   0.467   8.824  0.9609 -0.3337  0.3917
 5680TIP3   OH238598   1.360   2.510   8.609 -0.6998 -0.4170  0.6831
 5680TIP3    H138599   1.304   2.443   8.569 -0.4088 -1.0997  1.4019
 5680TIP3    H238600   1.449   2.487   8.581 -0.4577 -1.0683  1.9025
 5681TIP3   OH238601   6.649   6.548   7.375 -0.1614  0.1260  0.2425
 5681TIP3    H138602   6.600   6.605   7.317 -0.6752  0.6843  1.1960
 5681TIP3    H238603   6.724   6.519   7.323 -0.6040  0.6124 -0.6794
 5682TIP3   OH238604   1.016   2.692   2.347  0.2965 -0.3622  0.0081
 5682TIP3    H138605   1.081   2.761   2.335 -0.1897 -0.0507 -0.9522
 5682TIP3    H238606   1.013   2.677   2.441 -0.4124  1.7144  0.3512
 5683TIP3   OH238607   2.325   1.999   2.663 -0.3977  0.6142  0.3439
 5683TIP3    H138608   2.371   1.939   2.721  0.1494 -0.2706 -0.9571
 5683TIP3    H238609   2.394   2.052   2.623 -0.7611  1.2013  0.4848
 5684TIP3   OH238610   1.553   3.190   8.705 -0.1330 -0.1494 -0.5215
 5684TIP3    H138611   1.460   3.203   8.724  0.4457  0.7212  2.0603
 5684TIP3    H238612   1.595   3.273   8.729  1.1339  0.2238 -3.5708
 5685TIP3   OH238613   1.959   1.438   2.037 -0.6186  0.0806  0.7017
 5685TIP3    H138614   1.922   1.440   1.949 -0.6687  1.7099  0.7294
 5685TIP3    H238615   1.904   1.376   2.085 -0.9430 -0.3886 -0.2520
 5686TIP3   OH238616   0.821   1.269   0.511 -0.0532 -0.2694  0.3311
 5686TIP3    H138617   0.908   1.273   0.551 -0.4803 -1.1752  1.4224
 5686TIP3    H238618   0.774   1.343   0.550  0.1092 -0.0107  0.0374
 5687TIP3   OH238619   2.889   6.413   7.913  0.8923  0.1744  0.2041
 5687TIP3    H138620   2.900   6.497   7.869  0.3876  0.5383  0.7529
 5687TIP3    H238621   2.967   6.403   7.967  1.6999 -0.4518 -1.0179
 5688TIP3   OH238622   5.320   1.603   6.903 -0.0806 -0.4977 -0.1040
 5688TIP3    H138623   5.269   1.652   6.838  1.8977  0.8650 -0.7550
 5688TIP3    H238624   5.386   1.557   6.852  1.2317  0.2354  0.8482
 5689TIP3   OH238625   6.161   2.869   1.111  0.5713 -0.2840 -0.1510
 5689TIP3    H138626   6.120   2.863   1.025 -1.5368  0.4706  0.7281
 5689TIP3    H238627   6.234   2.807   1.107  0.4771 -0.3318 -2.4210
 5690TIP3   OH238628   2.994   3.535   2.217 -0.1732  0.3738  0.2911
 5690TIP3    H138629   2.899   3.535   2.229 -0.0197 -0.7666  1.9833
 5690TIP3    H238630   3.009   3.477   2.143 -0.7924  0.6263 -0.0400
 5691TIP3   OH238631   5.889   3.341   2.127 -0.5987 -0.4632 -0.2423
 5691TIP3    H138632   5.843   3.263   2.158  0.1470 -0.1876  1.6572
 5691TIP3    H238633   5.862   3.411   2.186  0.1709  0.2931 -0.7576
 5692TIP3   OH238634   2.982   0.136   8.257 -0.2794  0.0096 -0.1979
 5692TIP3    H138635   3.032   0.086   8.321 -2.4155 -2.9492 -0.6717
 5692TIP3    H238636   2.957   0.072   8.191 -0.6626  2.3718 -2.4920
 5693TIP3   OH238637   1.337   0.188   1.494  0.2794  0.2770 -0.2192
 5693TIP3    H138638   1.309   0.124   1.560  0.6306 -0.5264 -0.8377
 5693TIP3    H238639   1.415   0.230   1.532 -0.2021  0.6623  0.3724
 5694TIP3   OH238640   4.310   5.103   1.307  0.5463 -0.0565  0.3386
 5694TIP3    H138641   4.397   5.089   1.270  0.5635  0.0105  0.3536
 5694TIP3    H238642   4.306   5.044   1.382  1.0475  0.8339  1.0947
 5695TIP3   OH238643   4.041   1.286   2.347  0.2013  0.1306 -0.6964
 5695TIP3    H138644   3.952   1.302   2.379 -0.3256  3.1757 -3.2254
 5695TIP3    H238645   4.098   1.322   2.415 -0.5894  0.4283 -0.1784
 5696TIP3   OH238646   6.013   6.471   0.803  0.5558  0.5218 -0.0460
 5696TIP3    H138647   5.989   6.487   0.712  0.3676  0.0507 -0.0800
 5696TIP3    H238648   5.930   6.449   0.846  0.3930  2.1368  0.5563
 5697TIP3   OH238649   6.461   0.463   7.369  0.1644  0.2665 -0.3003
 5697TIP3    H138650   6.385   0.437   7.317 -0.0040 -0.7755  0.4448
 5697TIP3    H238651   6.423   0.507   7.445  0.3222 -0.0939 -0.0171
 5698TIP3   OH238652   4.198   2.255   7.901 -0.4088  0.1837  0.3749
 5698TIP3    H138653   4.262   2.268   7.970 -0.3078  1.2179  0.0962
 5698TIP3    H238654   4.179   2.161   7.903  0.3091  0.0502  1.1608
 5699TIP3   OH238655   5.367   0.924   7.059 -0.3836 -0.2794  0.5784
 5699TIP3    H138656   5.398   0.849   7.110 -3.3914 -0.4440  2.4369
 5699TIP3    H238657   5.339   0.988   7.125 -1.5695  0.8044 -0.9016
 5700TIP3   OH238658   4.304   1.071   8.827 -0.4371  0.5915 -0.0757
 5700TIP3    H138659   4.367   1.035   8.889 -2.5123 -1.2690  1.1062
 5700TIP3    H238660   4.351   1.074   8.744  1.2540 -0.5360  0.7948
 5701TIP3   OH238661   0.555   4.471   0.221 -0.7031  0.5242  0.1317
 5701TIP3    H138662   0.460   4.454   0.224 -0.9693  1.5699 -1.3248
 5701TIP3    H238663   0.566   4.532   0.148  1.2937 -0.7855 -0.7521
 5702TIP3   OH238664   3.582   5.293   7.785  0.2914  0.2970  0.6197
 5702TIP3    H138665   3.548   5.382   7.775 -0.6842 -0.2517 -1.6992
 5702TIP3    H238666   3.557   5.267   7.873 -0.3056  1.9310  0.9756
 5703TIP3   OH238667   3.650   5.209   2.398  0.8635 -0.5212  0.4347
 5703TIP3    H138668   3.646   5.289   2.347 -0.8675 -1.0087 -0.2690
 5703TIP3    H238669   3.721   5.158   2.359  1.2312  0.1882  0.1720
 5704TIP3   OH238670   5.599   5.026   7.358  0.1874 -0.4478  0.3685
 5704TIP3    H138671   5.540   5.101   7.355  1.1807  0.3933  1.3569
 5704TIP3    H238672   5.565   4.967   7.290 -1.2271  0.4130  0.2861
 5705TIP3   OH238673   6.108   2.700   2.480 -0.1724 -0.0726 -0.2512
 5705TIP3    H138674   6.112   2.630   2.545 -1.2538 -0.1377 -0.2377
 5705TIP3    H238675   6.133   2.779   2.528 -0.7893 -0.1524  0.2061
 5706TIP3   OH238676   6.266   4.458   8.650  0.0558 -0.5712 -0.0846
 5706TIP3    H138677   6.272   4.378   8.702 -0.0005 -0.4925  0.0450
 5706TIP3    H238678   6.248   4.527   8.714  0.7041 -0.3612 -0.1231
 5707TIP3   OH238679   2.046   1.244   8.034  0.6664 -0.2459 -0.7985
 5707TIP3    H138680   1.974   1.217   7.977  0.9350 -1.2633 -0.6870
 5707TIP3    H238681   2.042   1.340   8.035 -1.0589 -0.2913 -0.2929
 5708TIP3   OH238682   4.159   6.594   8.375  0.0727  0.5183 -0.2086
 5708TIP3    H138683   4.211   6.517   8.396  1.2724  1.2752 -0.2566
 5708TIP3    H238684   4.098   6.604   8.448 -0.7415 -0.9767 -0.6465
 5709TIP3   OH238685   0.256   0.688   8.266  0.4615  0.8558 -0.2130
 5709TIP3    H138686   0.169   0.718   8.239  0.5693  0.1708 -1.4284
 5709TIP3    H238687   0.274   0.612   8.209  2.4942  1.9171 -1.0949
 5710TIP3   OH238688   6.544   5.193   1.755  0.3901 -0.1003  0.7678
 5710TIP3    H138689   6.485   5.263   1.783 -0.7938 -0.4752 -0.6396
 5710TIP3    H238690   6.491   5.139   1.696  1.2480 -2.2622  1.8756
 5711TIP3   OH238691   0.523   0.766   8.330  0.1329 -0.4092  0.3219
 5711TIP3    H138692   0.429   0.748   8.321 -0.2521  2.0086 -1.6845
 5711TIP3    H238693   0.565   0.703   8.273 -0.2712 -1.3247  1.0103
 5712TIP3   OH238694   0.224   1.861   2.384 -0.7412 -0.5191  0.1043
 5712TIP3    H138695   0.210   1.838   2.476  1.4475 -0.1893  0.5577
 5712TIP3    H238696   0.291   1.800   2.354 -1.7569 -0.9489 -1.4583
 5713TIP3   OH238697   4.759   6.435   0.326 -0.0618 -0.2539  0.7266
 5713TIP3    H138698   4.707   6.369   0.279  0.7378 -0.8169  0.6115
 5713TIP3    H238699   4.846   6.428   0.288 -0.4297  2.5035 -0.9616
 5714TIP3   OH238700   2.959   1.271   1.779 -0.0004  0.8308 -0.6920
 5714TIP3    H138701   2.892   1.338   1.765 -1.1717 -0.2156 -0.2074
 5714TIP3    H238702   2.914   1.201   1.825  0.7429 -1.0466 -2.6510
 5715TIP3   OH238703   5.183   3.710   1.205 -0.0251 -0.2702  0.0976
 5715TIP3    H138704   5.173   3.632   1.259 -0.0981 -1.0520 -1.0182
 5715TIP3    H238705   5.267   3.747   1.233  0.3432 -1.1289  0.1635
 5716TIP3   OH238706   3.022   1.113   8.712  0.1410 -0.4171  0.4559
 5716TIP3    H138707   3.108   1.075   8.733 -0.2258 -1.6656 -0.2254
 5716TIP3    H238708   3.015   1.188   8.771  2.3487  0.6459 -0.4876
 5717TIP3   OH238709   0.107   6.388   8.814  0.1127 -0.0403  0.2621
 5717TIP3    H138710   0.026   6.362   8.858  0.3146  0.2261  0.7978
 5717TIP3    H238711   0.160   6.309   8.811  0.5953  0.2154  1.6022
 5718TIP3   OH238712   5.286   2.720   2.636 -0.3698 -0.5519 -0.3356
 5718TIP3    H138713   5.346   2.782   2.596  0.4425 -0.6603  0.7014
 5718TIP3    H238714   5.254   2.763   2.715 -0.6618 -1.0093 -0.1948
 5719TIP3   OH238715   0.354   5.216   7.226  0.0042  0.5077  0.1496
 5719TIP3    H138716   0.265   5.197   7.256  0.3393  0.2562  1.0022
 5719TIP3    H238717   0.396   5.130   7.220  0.1963  0.6267 -0.2484
 5720TIP3   OH238718   0.497   0.359   7.990  0.9916  0.2336  0.2237
 5720TIP3    H138719   0.526   0.350   7.899 -0.1425  0.7326 -0.2129
 5720TIP3    H238720   0.448   0.279   8.008  0.8853  0.3085  0.2675
 5721TIP3   OH238721   0.738   5.650   0.364 -0.2670  0.7031 -0.2643
 5721TIP3    H138722   0.737   5.566   0.410  1.1707  1.8068  1.9695
 5721TIP3    H238723   0.693   5.710   0.423 -0.9300  1.6256 -1.6491
 5722TIP3   OH238724   2.692   6.079   2.502  0.1734 -0.1170 -0.0279
 5722TIP3    H138725   2.719   6.007   2.558  2.7063  1.6010  1.1478
 5722TIP3    H238726   2.676   6.151   2.562  0.7369  1.1624 -1.3459
 5723TIP3   OH238727   4.492   1.138   0.750  0.0201 -0.4011 -0.0325
 5723TIP3    H138728   4.563   1.179   0.702  0.1833  0.1231  0.6417
 5723TIP3    H238729   4.412   1.173   0.710  0.1586  0.6474  0.5855
 5724TIP3   OH238730   1.911   1.482   0.620  0.0161  0.2490  0.2402
 5724TIP3    H138731   1.968   1.423   0.572  1.0680  1.9551 -0.6771
 5724TIP3    H238732   1.872   1.538   0.553  2.2542  3.3215  1.3112
 5725TIP3   OH238733   1.920   4.977   0.349 -0.5983  0.2341  0.6111
 5725TIP3    H138734   1.953   4.951   0.435  0.7751 -0.0605  0.0236
 5725TIP3    H238735   1.898   4.895   0.306  0.3090  0.2527  0.0825
 5726TIP3   OH238736   3.179   6.764   8.366  0.6610  0.1618 -0.2486
 5726TIP3    H138737   3.231   6.684   8.361  0.2195 -0.1612  0.2219
 5726TIP3    H238738   3.199   6.801   8.452 -2.0623 -1.5193  1.2408
 5727TIP3   OH238739   4.726   4.342   7.726  0.4373  0.4817  0.0975
 5727TIP3    H138740   4.782   4.355   7.803  2.0138 -0.0239 -0.9237
 5727TIP3    H238741   4.783   4.302   7.661 -0.8922  0.7969 -1.3252
 5728TIP3   OH238742   3.216   6.065   1.111  0.1251  0.2018  0.8602
 5728TIP3    H138743   3.252   6.013   1.039 -2.1342 -0.1084 -0.1260
 5728TIP3    H238744   3.249   6.022   1.190 -0.6591 -2.0576  0.0492
 5729TIP3   OH238745   0.961   6.537   2.269 -0.1440 -0.1512  0.0744
 5729TIP3    H138746   1.038   6.535   2.326  1.1176 -2.9558 -1.5387
 5729TIP3    H238747   0.928   6.627   2.278  1.1346  0.1412  3.5741
 5730TIP3   OH238748   0.730   6.460   7.582  0.1383 -0.4070 -0.1140
 5730TIP3    H138749   0.685   6.377   7.597 -0.1286 -0.2876 -0.2517
 5730TIP3    H238750   0.696   6.518   7.649 -0.4146 -0.1230 -0.6287
 5731TIP3   OH238751   3.989   1.183   7.124 -0.0075  0.2908 -0.0024
 5731TIP3    H138752   3.928   1.165   7.053 -2.6757  1.1587  1.9115
 5731TIP3    H238753   4.045   1.253   7.090 -0.9736  0.4501 -1.3588
 5732TIP3   OH238754   1.564   1.466   8.349 -0.1130 -0.5589 -0.3421
 5732TIP3    H138755   1.623   1.391   8.349 -0.1490 -0.5870 -0.4338
 5732TIP3    H238756   1.620   1.540   8.323  0.3979 -0.1750  1.6498
 5733TIP3   OH238757   1.965   1.908   7.617 -0.7585 -0.5716  0.2597
 5733TIP3    H138758   1.924   1.993   7.636  0.5805 -0.0797  1.0567
 5733TIP3    H238759   2.046   1.930   7.571 -0.3366 -1.4140  0.5808
 5734TIP3   OH238760   5.772   3.040   7.644  0.0794 -0.0422 -0.1569
 5734TIP3    H138761   5.857   2.998   7.654  0.5999  1.3369  1.6327
 5734TIP3    H238762   5.774   3.078   7.556  1.2001 -0.2477 -0.2332
 5735TIP3   OH238763   4.494   0.731   1.999  1.1039 -0.0465  0.7262
 5735TIP3    H138764   4.505   0.691   2.085  0.7927  1.9213  1.7313
 5735TIP3    H238765   4.429   0.800   2.013  0.3352 -0.2880 -1.3125
 5736TIP3   OH238766   1.018   6.318   1.165  0.2574  0.7263  0.3877
 5736TIP3    H138767   1.076   6.384   1.125  1.7763 -1.0939 -0.5858
 5736TIP3    H238768   0.993   6.261   1.092 -1.5045  0.5334  1.1019
 5737TIP3   OH238769   6.389   3.638   0.452 -0.3633 -0.0328 -0.0375
 5737TIP3    H138770   6.453   3.639   0.380 -0.6978 -0.9268 -0.3567
 5737TIP3    H238771   6.432   3.588   0.521 -0.7263 -0.6972 -0.2784
 5738TIP3   OH238772   0.479   3.687   1.290 -0.7011  0.0060  0.2266
 5738TIP3    H138773   0.474   3.724   1.201 -0.5547 -0.2065  0.1312
 5738TIP3    H238774   0.485   3.764   1.347 -1.1509  0.1573  0.0775
 5739TIP3   OH238775   2.086   0.407   7.755 -0.3024 -0.1370  0.7678
 5739TIP3    H138776   2.140   0.472   7.801 -0.3154 -0.1864  0.8530
 5739TIP3    H238777   2.130   0.394   7.672 -0.3153  0.0041  0.7378
 5740TIP3   OH238778   0.382   2.521   6.848 -1.4501 -0.2188 -0.3084
 5740TIP3    H138779   0.399   2.553   6.759 -0.7303 -0.4801 -0.2659
 5740TIP3    H238780   0.293   2.551   6.867 -0.7550  1.9587 -0.2014
 5741TIP3   OH238781   0.520   0.744   8.659 -0.2202 -0.3354 -0.3611
 5741TIP3    H138782   0.441   0.788   8.688 -1.9175 -2.5297 -1.3669
 5741TIP3    H238783   0.512   0.740   8.564  1.1157 -0.5624 -0.4862
 5742TIP3   OH238784   0.021   3.952   6.788 -0.0246 -0.4865  0.2251
 5742TIP3    H138785   0.064   3.955   6.703  0.0615 -1.4594  0.2261
 5742TIP3    H238786   0.047   4.034   6.831 -0.9737  0.5394 -1.0954
 5743TIP3   OH238787   1.783   3.232   1.881 -0.5479  0.3579  0.9203
 5743TIP3    H138788   1.855   3.180   1.917  0.2638 -0.4119 -1.6562
 5743TIP3    H238789   1.727   3.168   1.837 -1.9672  1.1698  1.4478
 5744TIP3   OH238790   4.665   1.646   1.820  0.6175  0.1619  0.2017
 5744TIP3    H138791   4.759   1.635   1.801  0.0927 -1.6385 -1.6422
 5744TIP3    H238792   4.621   1.582   1.764 -1.9751  2.9651 -1.2254
 5745TIP3   OH238793   6.156   2.827   0.258  0.3571 -0.0351 -0.2550
 5745TIP3    H138794   6.176   2.822   0.165  0.3133  0.6208 -0.3030
 5745TIP3    H238795   6.110   2.911   0.269  0.8948  0.1814  0.4443
 5746TIP3   OH238796   5.307   1.104   0.485 -0.2357 -0.6404  0.8288
 5746TIP3    H138797   5.236   1.087   0.422  1.4302 -0.6845 -1.1269
 5746TIP3    H238798   5.340   1.017   0.507  0.6560 -0.5269 -0.0249
 5747TIP3   OH238799   1.924   6.379   8.247  0.3420 -0.4378  0.0119
 5747TIP3    H138800   1.995   6.438   8.273 -0.7201  1.9707 -2.1581
 5747TIP3    H238801   1.847   6.411   8.294 -0.1449 -0.3675 -0.8089
 5748TIP3   OH238802   2.355   6.284   1.701 -0.0545  0.0998  0.1374
 5748TIP3    H138803   2.401   6.338   1.637  0.3696 -0.4315 -0.0116
 5748TIP3    H238804   2.262   6.296   1.680  0.0435  0.5593 -0.0585
 5749TIP3   OH238805   5.419   4.910   0.359 -0.3242 -0.7018 -0.7768
 5749TIP3    H138806   5.438   4.939   0.448  2.1161 -0.3325 -1.3247
 5749TIP3    H238807   5.385   4.821   0.369 -0.2567 -0.5912  0.5423
 5750TIP3   OH238808   1.017   3.920   0.076 -0.0237 -0.3238 -0.0861
 5750TIP3    H138809   1.097   3.914   0.024  0.0759 -1.8555  0.2033
 5750TIP3    H238810   1.025   4.003   0.123  0.6134  0.3291 -1.3088
 5751TIP3   OH238811   5.689   6.413   8.062 -0.5747  0.0979 -0.6111
 5751TIP3    H138812   5.773   6.376   8.034 -1.0127  0.7164 -2.8740
 5751TIP3    H238813   5.710   6.503   8.088  0.0022 -0.7436  2.2860
 5752TIP3   OH238814   3.165   0.021   1.794  0.5020  0.0929 -0.4520
 5752TIP3    H138815   3.212   0.087   1.742  0.7273 -0.6151 -1.1683
 5752TIP3    H238816   3.073   0.040   1.777  0.5677 -0.9832 -2.2706
 5753TIP3   OH238817   2.339   2.517   7.734  0.1710  0.4076  1.1048
 5753TIP3    H138818   2.295   2.569   7.668 -0.7292 -1.2085  0.3770
 5753TIP3    H238819   2.372   2.441   7.687 -1.1325 -1.1538  2.5767
 5754TIP3   OH238820   6.562   0.533   0.349  0.0130 -0.6904 -0.1276
 5754TIP3    H138821   6.605   0.448   0.357 -0.3890 -0.8554  0.4026
 5754TIP3    H238822   6.506   0.539   0.427  0.5844  0.3732  0.2222
 5755TIP3   OH238823   3.982   0.529   8.579  0.3243 -0.3631 -0.2031
 5755TIP3    H138824   3.937   0.521   8.495  0.6423  0.3220 -0.4484
 5755TIP3    H238825   3.951   0.455   8.630 -1.6256  0.4633 -0.1093
 5756TIP3   OH238826   2.725   0.115   2.356 -0.0254  0.7238 -0.3382
 5756TIP3    H138827   2.645   0.120   2.305 -0.0691  0.6659 -0.2755
 5756TIP3    H238828   2.699   0.140   2.445 -0.2281 -0.4621 -0.0380
 5757TIP3   OH238829   2.847   5.942   0.805 -0.5044 -0.0664  0.2068
 5757TIP3    H138830   2.891   5.938   0.890 -0.5301 -0.8464  0.1963
 5757TIP3    H238831   2.760   5.904   0.821 -0.9988  0.9998  0.1161
 5758TIP3   OH238832   0.260   4.401   8.662 -0.0192 -0.0905 -0.3405
 5758TIP3    H138833   0.165   4.401   8.673 -0.2831  2.8458 -1.7780
 5758TIP3    H238834   0.274   4.386   8.569  1.0076 -1.1226 -0.0471
 5759TIP3   OH238835   6.507   6.035   0.853  0.1399  0.1722 -0.2724
 5759TIP3    H138836   6.563   5.963   0.881 -0.3672  0.3944  1.3812
 5759TIP3    H238837   6.433   5.991   0.810  0.5633 -0.2113 -0.6264
 5760TIP3   OH238838   4.191   4.700   0.161 -0.4424 -0.1004 -0.0626
 5760TIP3    H138839   4.243   4.777   0.183 -3.1743  2.6939 -2.3340
 5760TIP3    H238840   4.143   4.679   0.241 -0.4681  1.2900  0.3032
 5761TIP3   OH238841   1.439   3.266   2.296  0.0618 -0.1640  0.1459
 5761TIP3    H138842   1.417   3.194   2.355 -1.1738 -0.6203 -0.8347
 5761TIP3    H238843   1.534   3.273   2.302 -0.0453 -0.0041  2.3817
 5762TIP3   OH238844   0.734   6.519   1.876 -0.6817 -0.4162 -0.1583
 5762TIP3    H138845   0.809   6.578   1.880 -1.1009  0.1154 -0.0768
 5762TIP3    H238846   0.764   6.439   1.919 -0.8625  0.5812  2.0089
 5763TIP3   OH238847   1.530   2.163   0.784 -0.2029  0.3254 -0.1633
 5763TIP3    H138848   1.617   2.127   0.801 -0.9837 -1.3328  0.5287
 5763TIP3    H238849   1.547   2.250   0.749  1.7092  0.3603  0.7281
 5764TIP3   OH238850   5.979   5.864   0.885  0.1667  0.6443  0.3315
 5764TIP3    H138851   6.051   5.902   0.935  0.2660  1.2912 -0.2835
 5764TIP3    H238852   5.995   5.892   0.795 -0.3375  0.0049  0.0366
 5765TIP3   OH238853   1.936   4.991   6.882  0.1271 -0.2122 -0.8470
 5765TIP3    H138854   1.911   5.082   6.869  0.1358 -0.3528 -1.9554
 5765TIP3    H238855   1.911   4.947   6.800  0.2374 -1.1759 -0.3815
 5766TIP3   OH238856   2.121   1.126   1.703  1.0790 -0.6214  0.2524
 5766TIP3    H138857   2.044   1.173   1.733 -0.5262 -2.8410 -0.1668
 5766TIP3    H238858   2.119   1.135   1.608  1.2007 -0.8921  0.2245
 5767TIP3   OH238859   1.162   1.839   0.216  0.1286 -0.1841 -0.0432
 5767TIP3    H138860   1.216   1.761   0.224 -1.1488 -1.1955 -0.7705
 5767TIP3    H238861   1.169   1.883   0.300 -2.1035 -3.1075  1.8566
 5768TIP3   OH238862   1.266   1.560   1.828  0.3911  0.3943 -0.0927
 5768TIP3    H138863   1.328   1.612   1.878  1.3913  0.1679 -1.0548
 5768TIP3    H238864   1.319   1.492   1.786 -0.6712 -0.4979 -0.0463
 5769TIP3   OH238865   2.988   4.940   1.208 -0.2178 -0.2430 -0.1215
 5769TIP3    H138866   2.943   4.869   1.253  3.0370 -0.9025  2.5435
 5769TIP3    H238867   2.992   4.912   1.117 -1.3299 -2.1900  0.3684
 5770TIP3   OH238868   0.897   1.585   2.971 -0.2605  0.3337  0.5937
 5770TIP3    H138869   0.881   1.674   2.940 -1.6463 -0.6673 -1.8344
 5770TIP3    H238870   0.990   1.569   2.952 -0.4007  0.7344 -0.5096
 5771TIP3   OH238871   5.305   6.781   2.154 -0.4402  0.6129  0.2790
 5771TIP3    H138872   5.213   6.762   2.173 -0.0295 -2.7955 -0.4531
 5771TIP3    H238873   5.348   6.777   2.240 -0.6576 -0.1638  0.3577
 5772TIP3   OH238874   2.780   1.467   1.760 -0.2731  0.2261  0.0115
 5772TIP3    H138875   2.815   1.555   1.743  0.5421 -0.2305 -0.7838
 5772TIP3    H238876   2.686   1.480   1.769 -0.1219  1.2373  0.3166
 5773TIP3   OH238877   1.521   4.646   0.923 -0.9157 -0.6138  0.2176
 5773TIP3    H138878   1.426   4.643   0.937 -0.9800  0.0627 -0.0361
 5773TIP3    H238879   1.540   4.738   0.905 -0.9344 -1.2258 -4.3541
 5774TIP3   OH238880   6.320   2.611   1.876  0.3313  0.2660 -0.7428
 5774TIP3    H138881   6.323   2.527   1.920 -0.9061 -0.4971 -2.0333
 5774TIP3    H238882   6.412   2.640   1.872  0.8297 -1.2698 -0.7679
 5775TIP3   OH238883   6.493   5.820   1.475 -0.1360 -0.0310  0.1932
 5775TIP3    H138884   6.463   5.891   1.417  1.2769  0.2677 -0.2224
 5775TIP3    H238885   6.437   5.827   1.552 -2.4499 -0.7836 -1.3298
 5776TIP3   OH238886   3.141   5.297   0.587  0.3467  0.2234 -0.6075
 5776TIP3    H138887   3.126   5.343   0.504 -1.6905 -0.2225 -0.5539
 5776TIP3    H238888   3.209   5.348   0.630  1.1844  0.6953 -2.3683
 5777TIP3   OH238889   3.781   4.468   8.867  0.0413  0.2350 -0.0257
 5777TIP3    H138890   3.701   4.508   8.833  0.5838 -0.0971 -1.7579
 5777TIP3    H238891   3.800   4.396   8.807  1.5641  0.2180  0.4344
 5778TIP3   OH238892   0.591   3.710   0.566  0.2013 -0.2216 -0.1401
 5778TIP3    H138893   0.592   3.614   0.572 -0.3543 -0.2281 -0.0187
 5778TIP3    H238894   0.660   3.731   0.504 -0.3935 -0.7754 -1.0138
 5779TIP3   OH238895   3.765   5.096   1.890 -0.8720  0.5019  0.0885
 5779TIP3    H138896   3.854   5.132   1.887  0.1797 -1.7154  1.7637
 5779TIP3    H238897   3.709   5.171   1.911  0.8655  1.5833  1.1050
 5780TIP3   OH238898   4.321   3.633   0.791  0.5830 -0.7420  0.1277
 5780TIP3    H138899   4.372   3.552   0.789 -0.5531 -1.4806 -0.0933
 5780TIP3    H238900   4.270   3.630   0.710 -0.3057 -0.3679  0.6657
 5781TIP3   OH238901   4.381   2.205   8.815 -0.1007  0.9504  0.9337
 5781TIP3    H138902   4.347   2.295   8.825  0.8421  1.1936  2.2834
 5781TIP3    H238903   4.394   2.194   8.721 -1.6325  1.6909  0.6014
 5782TIP3   OH238904   1.462   6.626   1.223  0.1817  0.5064 -0.5514
 5782TIP3    H138905   1.395   6.639   1.155  0.4108  3.4829 -0.3330
 5782TIP3    H238906   1.511   6.549   1.193 -1.9347 -0.4507 -1.8518
 5783TIP3   OH238907   2.424   1.368   2.302  0.6065 -0.2632 -0.3316
 5783TIP3    H138908   2.332   1.354   2.280  0.3652  0.0642  0.4481
 5783TIP3    H238909   2.436   1.325   2.387  1.6186 -1.8415 -1.2337
 5784TIP3   OH238910   4.736   3.243   8.150 -0.0204 -0.0143  0.1548
 5784TIP3    H138911   4.807   3.225   8.212  0.0944  1.6038  0.5494
 5784TIP3    H238912   4.724   3.161   8.102  1.4069 -0.6277  0.7872
 5785TIP3   OH238913   4.161   6.648   0.466  0.4204 -0.4037 -0.0526
 5785TIP3    H138914   4.248   6.683   0.484 -0.5064  2.5047 -0.7378
 5785TIP3    H238915   4.105   6.684   0.535 -0.0463 -3.8508  1.6236
 5786TIP3   OH238916   1.691   0.157   0.108  0.5462 -0.0438 -0.2794
 5786TIP3    H138917   1.631   0.098   0.154  1.4308 -0.5352  0.2550
 5786TIP3    H238918   1.689   0.237   0.160  1.0965 -0.3973  0.2984
 5787TIP3   OH238919   2.029   5.423   8.309 -0.2228 -0.1110 -0.4336
 5787TIP3    H138920   1.937   5.443   8.294 -0.1065  0.8134  0.0486
 5787TIP3    H238921   2.034   5.327   8.305 -1.3121 -0.2054  0.1531
 5788TIP3   OH238922   3.540   1.712   8.429 -0.1242 -0.0062  0.2211
 5788TIP3    H138923   3.501   1.716   8.342  1.1259  0.8503 -0.3257
 5788TIP3    H238924   3.505   1.631   8.467  0.9086 -1.5630 -1.8918
 5789TIP3   OH238925   2.807   2.008   8.555 -0.2825 -0.3614 -0.3385
 5789TIP3    H138926   2.872   1.964   8.499  0.6424  0.5478 -0.0229
 5789TIP3    H238927   2.850   2.090   8.580 -0.9021 -0.4853  1.2332
 5790TIP3   OH238928   2.340   0.630   0.840 -0.5621  0.2505 -1.2284
 5790TIP3    H138929   2.331   0.545   0.797  0.2159  0.5151 -1.9525
 5790TIP3    H238930   2.421   0.623   0.890 -1.9713 -0.4047  1.1058
 5791TIP3   OH238931   3.382   6.678   1.931  0.3030 -0.1575 -0.3726
 5791TIP3    H138932   3.463   6.695   1.882 -0.0882  0.6734 -0.7539
 5791TIP3    H238933   3.313   6.684   1.865 -0.1738  0.3078  0.1590
 5792TIP3   OH238934   5.045   6.650   0.119 -0.6361  0.6561 -0.1194
 5792TIP3    H138935   5.095   6.656   0.200 -2.2579  2.8726  0.8311
 5792TIP3    H238936   5.109   6.623   0.053  0.4302 -2.8721  2.0800
 5793TIP3   OH238937   1.477   1.057   7.611  0.5031  0.1107  0.0878
 5793TIP3    H138938   1.534   0.982   7.595  2.4046  1.4568  0.2237
 5793TIP3    H238939   1.440   1.078   7.525  1.9906  0.5487 -0.4822
 5794TIP3   OH238940   6.541   2.296   1.099  0.2167  0.0089 -0.1500
 5794TIP3    H138941   6.497   2.247   1.030  0.8228 -0.4145 -0.2466
 5794TIP3    H238942   6.545   2.235   1.173 -0.3498  0.4280  0.2420
 5795TIP3   OH238943   5.582   4.495   0.338  0.6966  0.0280  0.2243
 5795TIP3    H138944   5.622   4.440   0.405 -1.3230  0.5016  1.9377
 5795TIP3    H238945   5.517   4.547   0.385  0.0126  1.2613 -1.9301
 5796TIP3   OH238946   5.622   2.950   7.315  0.0398  0.4627 -0.2497
 5796TIP3    H138947   5.639   2.979   7.226  1.2689  0.6727  0.0355
 5796TIP3    H238948   5.533   2.981   7.334 -0.3790  0.0877 -1.5158
 5797TIP3   OH238949   2.452   2.946   1.110  0.0595 -0.0926 -0.3935
 5797TIP3    H138950   2.466   3.034   1.074  0.5791 -0.4942 -1.1880
 5797TIP3    H238951   2.357   2.940   1.120  0.1075  1.4039  1.8654
 5798TIP3   OH238952   2.444   0.416   1.544  0.1832 -0.3859  0.2939
 5798TIP3    H138953   2.482   0.499   1.513  0.9475 -1.3489 -1.5099
 5798TIP3    H238954   2.410   0.436   1.631 -0.1815  1.9731 -0.3241
 5799TIP3   OH238955   1.778   5.316   1.272  0.0259 -0.2362  0.0824
 5799TIP3    H138956   1.816   5.259   1.205 -0.2656 -1.0643  0.5948
 5799TIP3    H238957   1.752   5.256   1.342 -0.0345  0.5687  0.7666
 5800TIP3   OH238958   3.748   6.474   8.787  0.0398 -0.6086 -0.6975
 5800TIP3    H138959   3.677   6.411   8.779  0.9830 -2.0986  1.6409
 5800TIP3    H238960   3.756   6.490   8.881  2.8067 -0.5742 -0.8591
 5801TIP3   OH238961   2.314   2.768   0.184  0.7176  0.1747  0.0995
 5801TIP3    H138962   2.269   2.789   0.102  1.6962 -1.7535 -0.9854
 5801TIP3    H238963   2.367   2.845   0.202  0.3485  0.7044 -0.9806
 5802TIP3   OH238964   3.258   2.813   1.331  0.0431 -0.0299  0.1909
 5802TIP3    H138965   3.292   2.829   1.420 -0.3315 -1.8442  0.7014
 5802TIP3    H238966   3.337   2.810   1.276  0.4247 -0.5575  0.7498
 5803TIP3   OH238967   1.807   4.008   0.715 -0.6380 -0.1046 -0.0675
 5803TIP3    H138968   1.796   3.957   0.634  0.8294 -0.7856  0.1093
 5803TIP3    H238969   1.876   4.071   0.694 -0.4240 -0.1181  0.5703
 5804TIP3   OH238970   6.154   6.777   2.031  0.7363  0.2060  0.0341
 5804TIP3    H138971   6.153   6.682   2.039 -0.4897  0.3062  1.3920
 5804TIP3    H238972   6.243   6.803   2.056  0.6219 -0.4730  1.1836
 5805TIP3   OH238973   6.233   4.983   7.629  0.3948  0.3118 -0.0453
 5805TIP3    H138974   6.229   4.892   7.657 -0.8311  0.5670  0.7089
 5805TIP3    H238975   6.195   4.983   7.541  1.9634 -0.1293 -0.7540
 5806TIP3   OH238976   6.402   2.625   8.757 -0.1312  0.5476  0.2388
 5806TIP3    H138977   6.448   2.611   8.840  0.0135 -0.6592 -0.0263
 5806TIP3    H238978   6.456   2.580   8.693 -0.4990  1.0713 -0.4472
 5807TIP3   OH238979   6.511   1.114   8.061 -0.4533  0.1487 -0.2568
 5807TIP3    H138980   6.554   1.106   7.976 -0.7668 -2.0209 -0.2762
 5807TIP3    H238981   6.575   1.081   8.124 -0.7197  0.4619  0.1829
 5808TIP3   OH238982   0.257   3.498   7.644 -0.2126  0.2115  0.4320
 5808TIP3    H138983   0.168   3.529   7.662 -1.5036 -2.1330 -1.3193
 5808TIP3    H238984   0.285   3.455   7.725 -0.6903  0.8621  0.9557
 5809TIP3   OH238985   0.764   0.379   0.842  0.6743 -0.2931 -0.3677
 5809TIP3    H138986   0.817   0.406   0.768  0.3083  1.0329 -0.1767
 5809TIP3    H238987   0.688   0.335   0.803  0.6949  0.0199 -0.7678
 5810TIP3   OH238988   0.618   0.231   7.746 -0.2094  0.2572  0.0905
 5810TIP3    H138989   0.548   0.167   7.732 -1.8400  1.7111  1.3129
 5810TIP3    H238990   0.625   0.277   7.662 -2.8725  2.0914  0.7526
 5811TIP3   OH238991   1.685   0.768   0.747  0.0260  0.3701 -0.2863
 5811TIP3    H138992   1.778   0.788   0.733  0.2966 -1.1133 -0.7574
 5811TIP3    H238993   1.657   0.726   0.666 -0.7661 -0.1933  0.2643
 5812TIP3   OH238994   3.607   5.312   1.924 -0.0159  0.1387 -0.5535
 5812TIP3    H138995   3.525   5.331   1.970  0.4608  1.3321 -0.1578
 5812TIP3    H238996   3.671   5.372   1.963  0.5552  0.7432 -2.3192
 5813TIP3   OH238997   2.633   6.220   8.538  0.0117 -0.2689 -0.1870
 5813TIP3    H138998   2.647   6.220   8.443  0.5291 -0.6774 -0.1182
 5813TIP3    H238999   2.721   6.228   8.575 -0.0391 -1.5730  0.2689
 5814TIP3   OH239000   5.978   3.480   8.688 -0.4324 -0.0506 -0.5107
 5814TIP3    H139001   6.054   3.506   8.740 -0.9621  0.4468  0.0391
 5814TIP3    H239002   5.913   3.547   8.707 -0.4675  0.4437 -2.2512
 5815TIP3   OH239003   5.736   5.651   2.304 -0.4294  0.0360 -0.0031
 5815TIP3    H139004   5.705   5.628   2.392  0.6809 -1.0090  0.1367
 5815TIP3    H239005   5.829   5.671   2.315 -0.2868 -0.0599 -0.9203
 5816TIP3   OH239006   2.686   2.944   2.075 -0.7161  0.0406 -0.1281
 5816TIP3    H139007   2.738   2.863   2.075  1.7077  1.4986  1.0184
 5816TIP3    H239008   2.676   2.966   2.167 -1.9677  0.7245 -0.4094
 5817TIP3   OH239009   1.287   3.086   8.303 -0.2540  0.4046 -0.1180
 5817TIP3    H139010   1.340   3.148   8.252 -0.5852  0.8448  0.0647
 5817TIP3    H239011   1.215   3.139   8.337  0.6203  0.3952  1.8452
 5818TIP3   OH239012   0.165   2.661   0.555  0.2262 -0.1311 -0.0483
 5818TIP3    H139013   0.210   2.722   0.496  3.5989 -2.2055  0.1389
 5818TIP3    H239014   0.178   2.575   0.515 -3.0855 -1.0005  0.4733
 5819TIP3   OH239015   6.316   0.216   8.106  0.4626  0.0809 -0.4344
 5819TIP3    H139016   6.322   0.244   8.198 -0.4925 -0.0967 -0.3032
 5819TIP3    H239017   6.245   0.152   8.106  0.6973 -0.1817 -1.2412
 5820TIP3   OH239018   2.564   3.175   1.344 -0.5507 -0.5558  0.3924
 5820TIP3    H139019   2.607   3.100   1.385 -0.0915 -0.5783 -0.1066
 5820TIP3    H239020   2.632   3.244   1.343 -1.2200  0.1464  1.5962
 5821TIP3   OH239021   2.467   1.502   1.827 -0.0557  0.1153 -0.2646
 5821TIP3    H139022   2.415   1.427   1.856 -0.2432 -0.1249 -1.1626
 5821TIP3    H239023   2.463   1.497   1.731 -2.0801  2.6306 -0.4416
 5822TIP3   OH239024   2.108   4.610   8.250 -0.1099 -0.4232 -0.1573
 5822TIP3    H139025   2.095   4.700   8.221 -0.2519 -0.5102 -0.3609
 5822TIP3    H239026   2.021   4.570   8.247 -0.2753 -0.2086  1.1390
 5823TIP3   OH239027   6.585   2.525   6.454  0.5496  0.2291 -0.4699
 5823TIP3    H139028   6.545   2.513   6.540  1.1226  0.0643 -0.2232
 5823TIP3    H239029   6.518   2.570   6.403 -0.2615 -0.7485 -0.3041
 5824TIP3   OH239030   6.730   6.359   0.167 -0.1680  0.1590  0.5684
 5824TIP3    H139031   6.699   6.448   0.182 -0.0952  0.2142  0.3951
 5824TIP3    H239032   6.805   6.349   0.226  1.2915  1.0154 -1.0729
 5825TIP3   OH239033   6.669   1.349   7.496 -0.8509 -0.6177  0.5245
 5825TIP3    H139034   6.614   1.272   7.482  1.7622 -2.4675 -0.3403
 5825TIP3    H239035   6.691   1.379   7.408 -0.1046 -0.2063  0.8408
 5826TIP3   OH239036   2.313   2.103   7.669 -0.2852 -0.0483 -0.7875
 5826TIP3    H139037   2.346   2.170   7.609  2.7055 -1.0051 -0.3880
 5826TIP3    H239038   2.324   2.142   7.756 -0.5771 -0.2346 -0.6667
 5827TIP3   OH239039   6.570   1.340   0.164  0.1939  0.1061 -0.4165
 5827TIP3    H139040   6.607   1.368   0.080  0.1904  1.0732 -0.1078
 5827TIP3    H239041   6.643   1.343   0.225 -0.3973  2.4246  0.2879
 5828TIP3   OH239042   0.535   4.084   1.295  0.0287  0.2334 -0.5305
 5828TIP3    H139043   0.541   4.111   1.386  1.2116  0.8386 -0.7639
 5828TIP3    H239044   0.504   3.993   1.298  1.6255 -0.3042  0.5551
 5829TIP3   OH239045   3.787   3.404   8.475  0.0929 -0.2718  0.2999
 5829TIP3    H139046   3.727   3.386   8.403 -0.0548 -1.7972  0.7735
 5829TIP3    H239047   3.861   3.449   8.434 -0.7135  0.3395 -0.5208
 5830TIP3   OH239048   3.377   5.652   8.037 -0.0901 -0.2787 -0.1017
 5830TIP3    H139049   3.405   5.644   8.129 -1.0457 -2.2819  0.0791
 5830TIP3    H239050   3.294   5.604   8.034 -0.8601  1.0837 -1.7084
 5831TIP3   OH239051   5.736   5.569   0.566 -0.0917 -0.1827 -0.6881
 5831TIP3    H139052   5.737   5.642   0.629 -1.2008 -0.1011 -0.7338
 5831TIP3    H239053   5.784   5.499   0.609  0.3156  0.3150 -0.3138
 5832TIP3   OH239054   4.715   2.906   7.584 -0.0753  0.5074 -0.3592
 5832TIP3    H139055   4.705   2.822   7.628 -0.0409  0.3495 -0.6475
 5832TIP3    H239056   4.651   2.964   7.626 -1.6873 -0.2582 -1.6419
 5833TIP3   OH239057   3.968   6.596   8.605 -0.3593 -0.5822 -0.0344
 5833TIP3    H139058   4.036   6.638   8.657  0.8279 -1.9810 -0.3784
 5833TIP3    H239059   3.916   6.548   8.669 -1.9196  1.5543  0.4004
 5834TIP3   OH239060   4.342   0.964   2.016 -0.1615  0.4031 -0.4329
 5834TIP3    H139061   4.400   1.024   2.062  0.0526 -0.1937  0.1008
 5834TIP3    H239062   4.322   1.007   1.933 -1.6600  2.1417  0.7615
 5835TIP3   OH239063   5.728   3.852   7.627  0.1030 -0.6791  0.0975
 5835TIP3    H139064   5.681   3.874   7.546  3.1292  2.4977 -1.0890
 5835TIP3    H239065   5.778   3.774   7.605 -0.2712 -0.7443 -0.5633
 5836TIP3   OH239066   2.369   2.820   1.919  0.2819 -0.2266  0.4449
 5836TIP3    H139067   2.439   2.764   1.953 -0.3011 -1.1137  0.2188
 5836TIP3    H239068   2.296   2.806   1.980  0.0768  0.1691  0.2952
 5837TIP3   OH239069   3.123   0.155   7.905  0.0741  0.0287 -0.2069
 5837TIP3    H139070   3.165   0.138   7.821  0.2139  0.7657 -0.2880
 5837TIP3    H239071   3.113   0.250   7.909  2.1769  0.2369  1.6310
 5838TIP3   OH239072   1.873   3.807   7.510 -0.3507  0.0862  0.1497
 5838TIP3    H139073   1.958   3.852   7.506  0.1415 -0.8659 -2.2604
 5838TIP3    H239074   1.812   3.866   7.467 -0.9444  0.7352  1.8149
 5839TIP3   OH239075   6.033   0.618   0.508  0.1306  0.1508 -0.3218
 5839TIP3    H139076   5.948   0.612   0.553 -0.3260  2.3681 -0.7687
 5839TIP3    H239077   6.097   0.627   0.579 -0.0136 -1.2517  0.0089
 5840TIP3   OH239078   0.945   2.812   0.547 -0.1902  0.0097 -0.2768
 5840TIP3    H139079   1.038   2.788   0.543 -0.5712 -1.6761  0.2980
 5840TIP3    H239080   0.944   2.895   0.596  1.0196  0.1637 -0.4767
 5841TIP3   OH239081   4.236   3.990   7.577 -0.6362  0.1266 -0.3134
 5841TIP3    H139082   4.154   3.961   7.618  0.0680 -0.7225  0.5363
 5841TIP3    H239083   4.244   3.938   7.498 -0.5403 -0.3412  0.0025
 5842TIP3   OH239084   6.190   1.158   0.337 -0.0060  0.3354 -0.3266
 5842TIP3    H139085   6.202   1.073   0.379  1.4319  0.8324  0.3337
 5842TIP3    H239086   6.119   1.199   0.386  1.4593  0.7895  1.4988
 5843TIP3   OH239087   2.512   0.491   8.094 -0.0279  0.2263 -0.3401
 5843TIP3    H139088   2.531   0.470   8.002 -0.5763 -0.0312 -0.3950
 5843TIP3    H239089   2.454   0.422   8.123  0.8395 -0.1867  0.4723
 5844TIP3   OH239090   1.896   0.422   0.787 -0.1636  0.4053  0.0267
 5844TIP3    H139091   1.879   0.340   0.741 -2.1408  0.7361  0.0754
 5844TIP3    H239092   1.814   0.472   0.778 -0.4471  0.7641  3.3045
 5845TIP3   OH239093   2.806   4.990   7.964 -0.1349 -0.7114 -0.1871
 5845TIP3    H139094   2.854   4.937   7.900 -0.2827 -0.0090 -0.9024
 5845TIP3    H239095   2.844   5.078   7.955 -1.0630 -0.3079 -0.2463
 5846TIP3   OH239096   1.657   4.025   0.454 -0.2889  0.2444  0.2496
 5846TIP3    H139097   1.648   4.111   0.493 -1.2111 -0.5171  1.8147
 5846TIP3    H239098   1.574   4.010   0.408 -1.8711 -1.3143  3.2967
 5847TIP3   OH239099   4.547   4.680   1.594  0.4429 -0.4827  0.0263
 5847TIP3    H139100   4.622   4.659   1.538  0.2427 -1.0514 -0.0338
 5847TIP3    H239101   4.559   4.625   1.671  1.0895  0.7939  0.8754
 5848TIP3   OH239102   4.169   5.066   0.451 -0.1976  0.0483  0.2430
 5848TIP3    H139103   4.197   5.137   0.394  0.9033 -1.4101 -1.1144
 5848TIP3    H239104   4.244   5.007   0.456 -1.1573 -1.1685  1.0712
 5849TIP3   OH239105   1.065   6.201   8.023 -0.5983 -0.2562  0.6029
 5849TIP3    H139106   1.054   6.112   7.989  1.2592  0.2993 -1.7309
 5849TIP3    H239107   1.159   6.207   8.044 -0.5097  1.4176 -0.1712
 5850TIP3   OH239108   4.829   1.906   1.956  0.7685 -0.2125  0.2897
 5850TIP3    H139109   4.919   1.880   1.935  1.0287 -0.4111  1.5547
 5850TIP3    H239110   4.820   1.993   1.916  1.7932  0.1492  0.7836
 5851TIP3   OH239111   5.700   2.853   0.393  0.3643  0.2134 -0.5847
 5851TIP3    H139112   5.670   2.865   0.483  0.2545  2.8067 -0.8807
 5851TIP3    H239113   5.779   2.800   0.400  0.8658  1.1356  1.1321
 5852TIP3   OH239114   2.323   5.665   1.582  0.1946 -0.0865 -0.1164
 5852TIP3    H139115   2.249   5.685   1.639  0.9763  1.7488  0.3397
 5852TIP3    H239116   2.384   5.616   1.637 -0.2487 -0.7832 -0.2261
 5853TIP3   OH239117   6.213   4.276   0.835  0.1648  0.4313 -0.0604
 5853TIP3    H139118   6.122   4.277   0.807 -0.1229 -1.4946  0.6009
 5853TIP3    H239119   6.261   4.233   0.764 -0.0502 -1.5867  0.9267
 5854TIP3   OH239120   6.351   4.019   0.274 -0.1400 -0.6426  0.1868
 5854TIP3    H139121   6.426   4.005   0.217 -1.8280  0.6512 -2.5864
 5854TIP3    H239122   6.289   3.951   0.250 -1.1781  0.3660 -0.0810
 5855TIP3   OH239123   4.082   3.398   8.439 -0.0113 -0.2623  0.6679
 5855TIP3    H139124   4.163   3.443   8.464  0.3045 -0.2765 -0.2637
 5855TIP3    H239125   4.111   3.328   8.381 -0.7462  0.1750 -0.2600
 5856TIP3   OH239126   5.801   1.692   0.562 -0.1742 -0.1994  0.4592
 5856TIP3    H139127   5.729   1.631   0.549  0.0891 -0.2339 -0.9971
 5856TIP3    H239128   5.811   1.697   0.657 -1.9257 -0.3748  0.6900
 5857TIP3   OH239129   2.912   5.188   0.723  0.3488  0.2408 -0.1337
 5857TIP3    H139130   2.830   5.217   0.683  0.7400  1.9894  0.2363
 5857TIP3    H239131   2.980   5.238   0.678  1.2874 -1.4646 -0.7082
 5858TIP3   OH239132   5.265   5.268   0.662 -0.6985  0.3284  0.4559
 5858TIP3    H139133   5.205   5.296   0.592 -1.1170 -0.5606  0.4458
 5858TIP3    H239134   5.352   5.278   0.624 -0.9237 -0.1651 -0.2069
 5859TIP3   OH239135   1.606   3.296   2.056  0.6308  0.5689 -0.0960
 5859TIP3    H139136   1.664   3.300   1.980  0.7292  0.9859 -0.0046
 5859TIP3    H239137   1.661   3.326   2.129  0.9711 -1.2123  0.4136
 5860TIP3   OH239138   5.877   2.461   1.155  0.2517  0.2122 -0.1283
 5860TIP3    H139139   5.883   2.367   1.170  1.7584  0.5922  2.1127
 5860TIP3    H239140   5.968   2.492   1.161 -0.2843  1.8851 -0.2445
 5861TIP3   OH239141   2.007   3.472   7.500  0.4147 -0.3884 -0.1370
 5861TIP3    H139142   1.947   3.397   7.493  1.2370 -1.2224  1.2210
 5861TIP3    H239143   2.094   3.433   7.508  1.1582  0.8004 -1.8867
 5862TIP3   OH239144   0.057   1.677   2.210 -0.4756 -0.1601  0.6134
 5862TIP3    H139145   0.093   1.765   2.221 -0.1789 -0.3963  1.5724
 5862TIP3    H239146  -0.004   1.667   2.283 -2.2445  0.0961 -0.7590
 5863TIP3   OH239147   1.283   1.711   2.433 -0.7061 -0.5387  0.1920
 5863TIP3    H139148   1.236   1.681   2.510 -0.1559 -2.7963 -0.2557
 5863TIP3    H239149   1.219   1.706   2.362 -0.9492  0.6069  0.3157
 5864TIP3   OH239150   4.382   3.876   1.619 -0.2625 -0.0027 -0.1529
 5864TIP3    H139151   4.396   3.933   1.544  0.9489 -0.1644 -0.0767
 5864TIP3    H239152   4.469   3.867   1.659 -0.6985 -0.7213  0.6836
 5865TIP3   OH239153   2.971   6.002   1.804 -0.1972 -0.1815  0.0799
 5865TIP3    H139154   2.942   6.050   1.881 -3.7195  0.5030 -1.4823
 5865TIP3    H239155   2.929   5.916   1.813 -0.0995 -0.3160 -0.7354
 5866TIP3   OH239156   5.554   5.455   8.272  0.5707 -0.0894 -0.0143
 5866TIP3    H139157   5.530   5.475   8.182 -0.6293 -1.0054  0.0647
 5866TIP3    H239158   5.490   5.504   8.325  0.1474 -0.9213  0.2684
 5867TIP3   OH239159   0.831   5.121   0.343 -0.1782 -0.0758  0.0506
 5867TIP3    H139160   0.842   5.045   0.286  0.1801  0.1153 -0.1330
 5867TIP3    H239161   0.789   5.085   0.422  0.7374 -0.6061  0.3060
 5868TIP3   OH239162   5.639   2.423   0.443 -0.3051 -0.3397  0.1805
 5868TIP3    H139163   5.712   2.447   0.501 -2.1426  0.9886  2.0641
 5868TIP3    H239164   5.658   2.470   0.361  0.3641  0.9556  1.0456
 5869TIP3   OH239165   3.367   5.296   2.395  0.1563  0.2374  0.2823
 5869TIP3    H139166   3.350   5.318   2.487  0.0979 -1.3221  0.6684
 5869TIP3    H239167   3.462   5.303   2.386 -0.0168  3.8135 -0.5174
 5870TIP3   OH239168   6.219   3.982   2.580  0.1748  0.1161 -0.1486
 5870TIP3    H139169   6.190   3.919   2.647 -0.4971  1.9183  1.3697
 5870TIP3    H239170   6.160   4.056   2.592  0.8433  0.9829 -1.9828
 5871TIP3   OH239171   2.909   3.851   0.799  0.0757  0.6425  0.3470
 5871TIP3    H139172   2.955   3.934   0.786  2.3488 -0.4066  1.2529
 5871TIP3    H239173   2.878   3.855   0.890  2.2699 -0.3912  1.2060
 5872TIP3   OH239174   4.372   5.369   1.392 -0.0084 -0.4520 -0.1574
 5872TIP3    H139175   4.405   5.414   1.315  0.2650  0.2238  0.3441
 5872TIP3    H239176   4.359   5.278   1.363  0.1616 -0.2250 -0.9665
 5873TIP3   OH239177   0.073   4.014   2.045 -0.3348  0.2117  0.2303
 5873TIP3    H139178   0.061   3.928   2.086  0.8055  0.3047  0.8058
 5873TIP3    H239179   0.149   4.051   2.090  0.0417  0.9376 -0.9738
 5874TIP3   OH239180   2.861   3.376   0.248  0.4067 -0.6237  0.4686
 5874TIP3    H139181   2.827   3.457   0.211 -0.0805 -0.6552  0.8246
 5874TIP3    H239182   2.878   3.396   0.340  0.7847 -0.7806  0.4350
 5875TIP3   OH239183   5.157   0.514   1.194 -0.1432  0.1640 -1.0960
 5875TIP3    H139184   5.151   0.499   1.099  0.3096 -0.2964 -1.0552
 5875TIP3    H239185   5.069   0.498   1.227 -0.1073 -0.5316 -1.3227
 5876TIP3   OH239186   2.621   2.145   1.950  0.2472 -0.2090  0.2699
 5876TIP3    H139187   2.699   2.192   1.980 -1.4186  1.9735  1.5109
 5876TIP3    H239188   2.609   2.076   2.014 -1.4026  2.3860  3.0289
 5877TIP3   OH239189   6.537   6.770   1.874 -0.6315  0.2585  0.3393
 5877TIP3    H139190   6.585   6.798   1.952 -0.8416 -0.3608  0.6949
 5877TIP3    H239191   6.604   6.766   1.805 -0.6016  1.6792  0.2524
 5878TIP3   OH239192   4.304   1.606   7.091  0.1930 -0.0564  0.2331
 5878TIP3    H139193   4.370   1.552   7.049  1.0666 -0.1291  1.6455
 5878TIP3    H239194   4.317   1.693   7.053  0.9223 -0.1336  0.2874
 5879TIP3   OH239195   6.190   3.674   8.797  0.2417 -0.1983 -0.2780
 5879TIP3    H139196   6.276   3.633   8.788 -0.3208 -1.0889 -2.1977
 5879TIP3    H239197   6.176   3.718   8.713 -0.8004  0.7124  0.3481
 5880TIP3   OH239198   1.672   0.805   8.141  0.6750 -0.0350 -0.2972
 5880TIP3    H139199   1.726   0.825   8.064  0.0804 -0.8028 -0.9294
 5880TIP3    H239200   1.616   0.733   8.113 -1.7005  1.6336 -0.1539
 5881TIP3   OH239201   4.277   2.042   1.662 -0.0905  0.5401  0.0628
 5881TIP3    H139202   4.295   2.064   1.571  1.0473  0.5915  0.2866
 5881TIP3    H239203   4.206   2.102   1.687  0.7682  1.7534 -0.2875
 5882TIP3   OH239204   6.655   4.096   0.252  1.2042 -0.2095 -0.1529
 5882TIP3    H139205   6.626   4.175   0.298  3.0945  1.1351 -1.1600
 5882TIP3    H239206   6.749   4.108   0.239  1.0924 -1.3591 -2.6938
 5883TIP3   OH239207   4.967   2.119   1.495  0.9204 -0.2611  0.2666
 5883TIP3    H139208   4.947   2.201   1.449  1.3690 -0.5075 -0.3742
 5883TIP3    H239209   4.887   2.100   1.544 -0.6821 -1.4477 -2.5836
 5884TIP3   OH239210   5.845   3.318   0.621  0.3021  0.1439  0.1183
 5884TIP3    H139211   5.823   3.399   0.666 -1.2679 -0.2744  0.1803
 5884TIP3    H239212   5.856   3.254   0.691 -0.2109 -0.0785 -0.0016
 5885TIP3   OH239213   5.766   0.078   0.760 -0.2376 -0.3341  0.2646
 5885TIP3    H139214   5.746   0.027   0.682 -0.0228 -1.9687  1.2434
 5885TIP3    H239215   5.683   0.081   0.808 -0.3882  0.7337 -0.0243
 5886TIP3   OH239216   1.009   0.898   7.517 -0.0144  0.6714  0.4365
 5886TIP3    H139217   0.983   0.929   7.604  1.4761  1.2843  0.6996
 5886TIP3    H239218   1.025   0.804   7.529  0.9703  0.8984  1.0530
 5887TIP3   OH239219   5.317   5.214   8.623  0.0368  0.1440  0.0701
 5887TIP3    H139220   5.246   5.170   8.670  0.7272 -0.6054  0.4339
 5887TIP3    H239221   5.397   5.173   8.656  0.6111  0.5231 -0.8089
 5888TIP3   OH239222   1.499   4.093   0.863  0.4497 -0.0060  0.3063
 5888TIP3    H139223   1.410   4.099   0.828 -0.0338 -1.6974  1.1628
 5888TIP3    H239224   1.555   4.091   0.786 -0.1635  1.8115 -0.2364
 5889TIP3   OH239225   3.690   4.361   1.280 -0.3849  0.4154  0.0573
 5889TIP3    H139226   3.673   4.438   1.334  1.0137  0.6086  0.2569
 5889TIP3    H239227   3.603   4.326   1.260 -0.9605  0.7610  1.7990
 5890TIP3   OH239228   3.677   6.615   1.387 -0.4698  0.1150  0.7193
 5890TIP3    H139229   3.589   6.612   1.350 -0.7079  1.2902  1.1427
 5890TIP3    H239230   3.668   6.572   1.472  0.2573 -3.3586 -0.7772
 5891TIP3   OH239231   5.795   2.804   7.963 -0.2154  0.4789 -0.1750
 5891TIP3    H139232   5.762   2.890   7.937  0.5525  0.9443  0.3276
 5891TIP3    H239233   5.821   2.762   7.881  0.5987  1.2504 -0.3317
 5892TIP3   OH239234   2.505   0.828   0.682  0.1775  0.2587  0.3610
 5892TIP3    H139235   2.562   0.770   0.632  0.5575  0.6445  0.3352
 5892TIP3    H239236   2.419   0.785   0.680  0.5283 -0.4684  0.6459
 5893TIP3   OH239237   0.027   5.931   2.049  0.1472  0.2994 -0.3325
 5893TIP3    H139238   0.113   5.915   2.089 -0.0382 -0.1238 -0.0974
 5893TIP3    H239239   0.038   6.013   2.001  0.1483  1.2141  1.1892
 5894TIP3   OH239240   2.781   1.077   8.225  0.1768 -0.0690 -0.0581
 5894TIP3    H139241   2.866   1.035   8.231 -0.5249 -1.6468 -0.5421
 5894TIP3    H239242   2.784   1.147   8.291  2.4041  1.0247 -1.2310
 5895TIP3   OH239243   1.474   2.991   8.505  0.1015 -0.1092 -0.0219
 5895TIP3    H139244   1.515   3.043   8.575 -1.1589 -1.0628  1.5189
 5895TIP3    H239245   1.454   3.054   8.436  0.5735  1.0482  0.8710
 5896TIP3   OH239246   0.209   1.780   0.185  0.1855 -0.0780 -0.0765
 5896TIP3    H139247   0.133   1.741   0.227 -1.0709 -0.4584 -2.5400
 5896TIP3    H239248   0.264   1.810   0.258 -2.4586  0.5558  1.7832
 5897TIP3   OH239249   1.418   3.551   7.669 -0.7834  0.0971  0.2604
 5897TIP3    H139250   1.336   3.596   7.647 -1.1962 -0.6381  0.2776
 5897TIP3    H239251   1.441   3.504   7.590 -1.5615 -1.4775  0.9270
 5898TIP3   OH239252   4.465   1.405   6.990 -0.2788  0.1610  0.2232
 5898TIP3    H139253   4.556   1.422   6.967 -0.5374  1.4260  0.0688
 5898TIP3    H239254   4.425   1.373   6.909 -0.1647  0.3789  0.0808
 5899TIP3   OH239255   2.510   2.654   0.671 -0.5606 -0.0950 -0.2305
 5899TIP3    H139256   2.511   2.682   0.763 -0.2000  1.4718 -0.6815
 5899TIP3    H239257   2.594   2.610   0.659 -0.8482 -0.8182  0.3242
 5900TIP3   OH239258   3.534   4.458   8.762 -0.4654  0.0294 -0.0626
 5900TIP3    H139259   3.545   4.370   8.727 -1.7230 -0.8273  1.5551
 5900TIP3    H239260   3.490   4.506   8.692 -1.3198 -1.1306 -0.3500
 5901TIP3   OH239261   5.406   0.781   8.472  0.0945  0.2532 -0.4821
 5901TIP3    H139262   5.389   0.769   8.566  2.2626 -1.2512 -0.1798
 5901TIP3    H239263   5.323   0.760   8.429 -1.1187  1.5795  1.0904
 5902TIP3   OH239264   2.065   0.936   8.090  0.4278  0.5199  0.6435
 5902TIP3    H139265   2.003   0.954   8.160  0.6234  0.5795  0.8031
 5902TIP3    H239266   2.132   1.004   8.099  0.8906  0.0323  0.9164
 5903TIP3   OH239267   0.304   0.207   1.662 -0.0380 -0.0278  0.2677
 5903TIP3    H139268   0.346   0.233   1.580  1.4273  1.7431  1.5241
 5903TIP3    H239269   0.224   0.161   1.634  1.0134 -0.5361 -2.1346
 5904TIP3   OH239270   6.232   3.789   2.808  0.1434 -0.0433 -0.1397
 5904TIP3    H139271   6.153   3.749   2.771 -0.1295 -0.0489  0.4514
 5904TIP3    H239272   6.200   3.867   2.853  0.7298  1.1851 -1.7570
 5905TIP3   OH239273   1.418   3.744   0.863 -0.2386  0.1315 -0.1546
 5905TIP3    H139274   1.403   3.833   0.895 -0.4335 -0.3057  1.0231
 5905TIP3    H239275   1.457   3.756   0.776 -1.3182  1.3496 -0.4993
 5906TIP3   OH239276   3.560   2.196   8.487  0.2738 -0.3196 -0.2077
 5906TIP3    H139277   3.543   2.272   8.543 -0.8293 -0.8545  0.2150
 5906TIP3    H239278   3.500   2.129   8.519  1.4994 -1.5101 -0.3312
 5907TIP3   OH239279   4.136   2.118   8.522 -0.3134 -0.2102 -0.0336
 5907TIP3    H139280   4.152   2.199   8.474  1.6480 -0.9378 -0.7213
 5907TIP3    H239281   4.059   2.080   8.480  0.2400  0.0968 -1.3924
 5908TIP3   OH239282   3.106   4.414   2.328  0.1648  0.7264  0.7295
 5908TIP3    H139283   3.020   4.441   2.361 -0.4916  0.1617 -0.4634
 5908TIP3    H239284   3.100   4.427   2.234  1.5907  1.1933  0.6840
 5909TIP3   OH239285   4.117   5.614   1.157 -0.3226 -0.2449 -0.0393
 5909TIP3    H139286   4.090   5.666   1.233  0.0260  0.2306 -0.2397
 5909TIP3    H239287   4.105   5.523   1.185 -1.6483 -0.0563  0.0498
 5910TIP3   OH239288   2.577   1.802   0.984 -0.4691 -0.3941 -0.2667
 5910TIP3    H139289   2.639   1.825   1.052  0.1549 -0.8490 -0.6706
 5910TIP3    H239290   2.615   1.835   0.903 -0.0132 -1.9273 -0.7259
 5911TIP3   OH239291   4.230   3.753   8.599  0.1123  0.1942  0.5135
 5911TIP3    H139292   4.248   3.667   8.638  0.5812  0.6389  1.3116
 5911TIP3    H239293   4.317   3.790   8.583 -0.0166  1.5650  2.5679
 5912TIP3   OH239294   2.439   5.059   7.591  1.0472  0.2356  0.6212
 5912TIP3    H139295   2.469   4.971   7.569 -1.0343 -0.6138  1.0037
 5912TIP3    H239296   2.397   5.091   7.511  0.9125  0.4817  0.7873
 5913TIP3   OH239297   4.494   6.174   7.681 -0.0157  0.2997 -0.3831
 5913TIP3    H139298   4.536   6.244   7.731  1.3719  0.2452 -1.4124
 5913TIP3    H239299   4.512   6.196   7.590 -0.6537 -0.7343 -0.7705
 5914TIP3   OH239300   4.506   3.491   2.405 -0.0510 -0.2643  0.4773
 5914TIP3    H139301   4.585   3.542   2.426  0.0658 -0.9014  1.7046
 5914TIP3    H239302   4.498   3.429   2.478 -2.2528  0.4429  0.9206
 5915TIP3   OH239303   2.224   2.475   8.718 -0.3729 -0.1914  0.0766
 5915TIP3    H139304   2.314   2.447   8.705 -0.6745 -1.0632 -0.1614
 5915TIP3    H239305   2.215   2.484   8.813 -0.2034 -0.6833  0.1409
 5916TIP3   OH239306   1.585   2.711   7.817  0.4836  0.5737 -0.6647
 5916TIP3    H139307   1.653   2.768   7.852  2.5647 -1.0143 -1.9088
 5916TIP3    H239308   1.565   2.748   7.731  1.2205 -0.0543 -1.1166
 5917TIP3   OH239309   2.926   3.701   8.780  0.0884  0.0554 -0.1040
 5917TIP3    H139310   2.973   3.782   8.758 -2.0034  1.3922  0.1177
 5917TIP3    H239311   2.967   3.671   8.862 -0.5203  2.1240  1.0200
 5918TIP3   OH239312   3.752   2.405   6.921  0.4114 -0.3180 -0.0759
 5918TIP3    H139313   3.673   2.357   6.895  0.6512 -0.4772 -0.5203
 5918TIP3    H239314   3.824   2.353   6.886  0.7793 -0.8366  1.3908
 5919TIP3   OH239315   3.039   6.236   7.296 -0.8696  0.1143  0.0198
 5919TIP3    H139316   3.109   6.294   7.264  0.1755 -0.8824  0.4555
 5919TIP3    H239317   2.960   6.267   7.250 -0.2840  1.6522 -0.0193
 5920TIP3   OH239318   3.987   4.682   1.704  0.1264 -0.4716  0.6035
 5920TIP3    H139319   3.924   4.638   1.647 -2.1243  0.7597  2.0211
 5920TIP3    H239320   4.017   4.613   1.764 -0.7743 -0.8183  0.6647
 5921TIP3   OH239321   0.740   2.705   8.718  0.1876 -0.4919  0.2634
 5921TIP3    H139322   0.824   2.737   8.686 -0.7735  1.4190 -0.5488
 5921TIP3    H239323   0.747   2.712   8.813  0.6150  0.6457  0.1686
 5922TIP3   OH239324   1.502   0.760   1.338  0.1480  1.3757  0.0825
 5922TIP3    H139325   1.542   0.757   1.425  1.0834  0.2379 -0.3541
 5922TIP3    H239326   1.576   0.747   1.278 -0.7059  0.4751 -0.8070
 5923TIP3   OH239327   4.582   2.844   0.722 -0.6491  0.2892  0.3502
 5923TIP3    H139328   4.628   2.820   0.642 -1.1615  0.5761 -0.0398
 5923TIP3    H239329   4.622   2.790   0.790 -0.3751 -0.1397 -0.1426
 5924TIP3   OH239330   0.521   4.151   2.345 -0.5139 -0.0428  0.3032
 5924TIP3    H139331   0.543   4.239   2.377  1.0046 -0.8174  1.4690
 5924TIP3    H239332   0.600   4.099   2.360 -0.5196 -1.0659 -2.5616
 5925TIP3   OH239333   4.164   6.182   7.345  0.6081 -0.1601  0.2225
 5925TIP3    H139334   4.181   6.263   7.295 -0.0959 -1.2065 -1.8496
 5925TIP3    H239335   4.070   6.181   7.357  0.7764  0.0826  1.6638
 5926TIP3   OH239336   1.992   3.941   0.316 -0.9746  0.3152  0.1685
 5926TIP3    H139337   2.087   3.940   0.334 -0.1033 -0.3801 -3.6037
 5926TIP3    H239338   1.973   4.033   0.298 -0.3231  0.1537 -1.6136
 5927TIP3   OH239339   0.830   2.189   1.779  0.0235 -0.0484 -0.2840
 5927TIP3    H139340   0.863   2.132   1.710  1.1154  0.4992 -0.2247
 5927TIP3    H239341   0.772   2.251   1.734 -1.5698 -1.4607 -0.2842
 5928TIP3   OH239342   5.825   4.033   8.333  0.0353  0.5893 -0.1003
 5928TIP3    H139343   5.894   4.051   8.397  0.1948  0.7596 -0.3192
 5928TIP3    H239344   5.744   4.049   8.380  0.1348  0.1207  0.2434
 5929TIP3   OH239345   4.185   1.581   8.770 -0.0196 -0.4706 -0.2111
 5929TIP3    H139346   4.249   1.512   8.788  1.4494  0.8874 -0.0157
 5929TIP3    H239347   4.139   1.551   8.691  0.5852 -1.6516 -0.1389
 5930TIP3   OH239348   1.123   5.141   0.941  0.4182  0.1677  0.3796
 5930TIP3    H139349   1.212   5.173   0.952  0.9924 -1.4853  0.9092
 5930TIP3    H239350   1.125   5.087   0.862 -0.2114  0.4569  0.1591
 5931TIP3   OH239351   2.869   6.611   1.301  0.5567  0.3584  0.4657
 5931TIP3    H139352   2.815   6.613   1.380  0.3519 -1.1835  0.3986
 5931TIP3    H239353   2.865   6.700   1.267 -1.6157  0.4129  0.7053
 5932TIP3   OH239354   4.069   6.336   7.710  0.9116 -0.1748  0.2523
 5932TIP3    H139355   4.120   6.313   7.788  0.3184 -1.1935  0.3633
 5932TIP3    H239356   3.986   6.368   7.744 -0.2816 -2.8030  0.1054
 5933TIP3   OH239357   5.852   0.278   1.463  0.0372 -0.0912 -0.2816
 5933TIP3    H139358   5.876   0.370   1.449  2.0726 -0.3532  1.0858
 5933TIP3    H239359   5.760   0.274   1.437 -0.1689  2.3702 -0.2448
 5934TIP3   OH239360   2.380   1.485   7.416 -0.0010 -0.9233  0.8071
 5934TIP3    H139361   2.298   1.532   7.433 -0.3997 -1.4363  0.3252
 5934TIP3    H239362   2.389   1.488   7.321  1.4849  0.7077  0.9474
 5935TIP3   OH239363   4.436   0.711   0.361  0.3041 -0.0763  0.4745
 5935TIP3    H139364   4.491   0.657   0.418  1.7111  1.0765  0.2512
 5935TIP3    H239365   4.483   0.714   0.278 -1.5643 -1.4862 -0.7537
 5936TIP3   OH239366   0.529   3.426   8.225 -0.0617 -0.0863  0.3409
 5936TIP3    H139367   0.624   3.418   8.218  0.0605 -1.2321  2.4829
 5936TIP3    H239368   0.514   3.456   8.314 -1.7000  1.1526 -0.2959
 5937TIP3   OH239369   1.161   1.106   2.837  0.3280  0.1407 -0.0118
 5937TIP3    H139370   1.139   1.022   2.798  0.2628 -0.5419  1.4440
 5937TIP3    H239371   1.081   1.132   2.884 -0.0214  1.5433 -1.2913
 5938TIP3   OH239372   6.206   4.485   1.061  0.3233  0.2749 -0.3397
 5938TIP3    H139373   6.302   4.487   1.064  0.4178 -1.7496 -0.9177
 5938TIP3    H239374   6.184   4.512   0.971  0.4584 -0.8985 -0.7430
 5939TIP3   OH239375   1.953   1.248   8.645 -0.1444  0.0318 -0.1137
 5939TIP3    H139376   1.861   1.270   8.657 -0.1061  0.4225 -0.5022
 5939TIP3    H239377   1.980   1.298   8.568  0.2332 -0.5714 -0.3779
 5940TIP3   OH239378   2.740   1.690   7.879  0.1408 -0.2398  0.2378
 5940TIP3    H139379   2.667   1.628   7.880 -0.3173  0.2312 -1.4084
 5940TIP3    H239380   2.698   1.776   7.882  0.7204  0.0232  1.1255
 5941TIP3   OH239381   0.345   0.886   2.852  0.0224  0.2090 -0.1291
 5941TIP3    H139382   0.394   0.850   2.778 -1.4968  0.7375 -1.4532
 5941TIP3    H239383   0.396   0.961   2.880 -0.0082  0.7895 -1.5179
 5942TIP3   OH239384   5.957   0.343   1.833  0.4171 -0.0954  0.1860
 5942TIP3    H139385   5.999   0.318   1.915  0.7430  0.0438  0.0617
 5942TIP3    H239386   6.005   0.295   1.766 -0.1479 -0.5754  0.1139
 5943TIP3   OH239387   6.522   2.569   7.800  0.1631  0.2080  0.3133
 5943TIP3    H139388   6.432   2.574   7.833 -0.0203 -0.6015 -0.0504
 5943TIP3    H239389   6.522   2.494   7.741  1.0287  0.3335  0.1423
 5944TIP3   OH239390   4.517   4.398   7.272 -0.1460 -0.3536 -0.9636
 5944TIP3    H139391   4.455   4.440   7.331  1.5333  0.6640  0.1746
 5944TIP3    H239392   4.503   4.304   7.284  0.8672 -0.2414  2.0049
 5945TIP3   OH239393   6.249   1.523   7.389  0.2449  0.3160  0.1235
 5945TIP3    H139394   6.206   1.565   7.314  0.4046 -0.6327 -0.5177
 5945TIP3    H239395   6.341   1.515   7.362  0.4033  0.4425  0.6310
 5946TIP3   OH239396   3.499   6.790   8.614  0.0624  0.1825  0.1728
 5946TIP3    H139397   3.429   6.849   8.641  0.6872  0.2506  1.6809
 5946TIP3    H239398   3.453   6.708   8.593 -0.7176  0.9299 -1.2065
 5947TIP3   OH239399   2.315   2.407   1.323  0.2964  0.3014 -0.4667
 5947TIP3    H139400   2.222   2.426   1.335  0.1116  0.2980 -1.7687
 5947TIP3    H239401   2.348   2.393   1.412 -0.8216  0.8471  0.0607
 5948TIP3   OH239402   4.254   4.686   2.263 -0.5484 -0.0492 -0.4926
 5948TIP3    H139403   4.194   4.614   2.243 -0.9078  0.6178 -1.9567
 5948TIP3    H239404   4.223   4.759   2.209  1.2423  0.4896 -0.8640
 5949TIP3   OH239405   4.110   2.796   1.633 -0.3199  0.2621 -0.6399
 5949TIP3    H139406   4.044   2.862   1.612  0.6702  1.5168  0.0148
 5949TIP3    H239407   4.061   2.721   1.665 -1.4094  1.2568  0.0777
 5950TIP3   OH239408   6.078   6.531   7.970 -0.1161  0.5224  0.2478
 5950TIP3    H139409   6.054   6.456   8.024  1.4286 -0.9165 -0.9459
 5950TIP3    H239410   6.003   6.543   7.912 -0.8725  0.6896  1.2354
 5951TIP3   OH239411   0.983   6.573   2.551  0.7249 -0.3527  0.0932
 5951TIP3    H139412   0.920   6.523   2.602  0.0491  0.0282 -0.3532
 5951TIP3    H239413   1.066   6.563   2.598  0.2639 -0.5795  0.8703
 5952TIP3   OH239414   0.348   1.310   1.272  0.4416  0.0044 -0.0160
 5952TIP3    H139415   0.303   1.346   1.195 -0.4788 -0.8007  0.1257
 5952TIP3    H239416   0.282   1.312   1.341  1.0821  0.1607  0.6022
 5953TIP3   OH239417   6.123   4.804   1.381  0.3811  0.0413 -0.0320
 5953TIP3    H139418   6.053   4.831   1.322 -0.1505  0.2835  0.6926
 5953TIP3    H239419   6.132   4.710   1.367  0.9031  0.2442 -1.1626
 5954TIP3   OH239420   3.550   4.798   8.695 -0.1719 -0.5885 -0.3158
 5954TIP3    H139421   3.516   4.807   8.606 -0.8447  1.1151  0.0662
 5954TIP3    H239422   3.643   4.819   8.689 -0.0153 -1.3674 -0.7384
 5955TIP3   OH239423   2.373   4.703   2.140 -0.2363 -0.1087  0.4355
 5955TIP3    H139424   2.345   4.664   2.223  0.4893  0.3872  0.9314
 5955TIP3    H239425   2.372   4.631   2.078  2.9056 -1.4584  1.7307
 5956TIP3   OH239426   5.991   1.711   2.469 -0.2207  0.2577  0.1428
 5956TIP3    H139427   5.981   1.708   2.564  0.9704  1.3792  0.3303
 5956TIP3    H239428   5.901   1.709   2.435 -0.7114  1.0038  1.3323
 5957TIP3   OH239429   0.612   3.438   0.632 -0.1462  0.5919  0.3754
 5957TIP3    H139430   0.703   3.445   0.660  0.0463  1.6693 -0.4522
 5957TIP3    H239431   0.606   3.351   0.591  1.0040  1.1827 -1.1574
 5958TIP3   OH239432   3.559   1.750   7.506  0.2612 -0.1094  0.5798
 5958TIP3    H139433   3.546   1.845   7.500 -3.0408 -0.5412 -2.4530
 5958TIP3    H239434   3.620   1.730   7.435  0.2234 -0.3493  0.6154
 5959TIP3   OH239435   1.590   5.294   1.921 -0.0154 -0.0723 -0.1744
 5959TIP3    H139436   1.574   5.366   1.981 -0.8325 -0.9204  0.6661
 5959TIP3    H239437   1.683   5.275   1.929  0.0462  0.3844  0.1807
 5960TIP3   OH239438   5.172   1.963   8.684 -0.3320 -0.4801  0.5243
 5960TIP3    H139439   5.214   1.981   8.768  1.6607 -1.3867 -0.2114
 5960TIP3    H239440   5.235   1.994   8.619 -1.8891  0.3164 -0.6511
 5961TIP3   OH239441   1.900   5.307   2.014  0.7348 -0.1884  0.0810
 5961TIP3    H139442   1.946   5.342   1.938  0.8319  0.1463  0.2923
 5961TIP3    H239443   1.963   5.311   2.085  0.9446 -1.3778 -0.0297
 5962TIP3   OH239444   5.762   5.690   7.122  0.3991  0.1208 -0.3539
 5962TIP3    H139445   5.851   5.658   7.137  0.0799  0.2695  2.2810
 5962TIP3    H239446   5.737   5.654   7.037  2.9715  0.1180 -1.1899
 5963TIP3   OH239447   6.148   1.644   8.137 -0.2112 -0.2708 -0.1809
 5963TIP3    H139448   6.064   1.666   8.098 -0.3894 -2.4873 -1.2393
 5963TIP3    H239449   6.213   1.687   8.082 -0.6039 -0.3478 -0.7089
 5964TIP3   OH239450   4.854   2.327   1.357  0.0404 -0.5032  0.3312
 5964TIP3    H139451   4.866   2.421   1.351 -0.1080 -0.4618  0.6654
 5964TIP3    H239452   4.761   2.316   1.375 -0.3035 -0.7851 -1.4617
 5965TIP3   OH239453   3.877   3.770   1.913 -0.4815  0.2117 -0.1729
 5965TIP3    H139454   3.864   3.737   2.002 -0.2961  1.1143  0.1995
 5965TIP3    H239455   3.972   3.773   1.903 -0.4807 -1.5617 -1.0560
 5966TIP3   OH239456   5.226   6.004   1.287 -0.8703 -0.1292  0.0928
 5966TIP3    H139457   5.250   5.965   1.203  0.7683  1.0607 -0.0234
 5966TIP3    H239458   5.267   5.948   1.352 -1.2507 -0.4323  0.0820
 5967TIP3   OH239459   4.367   3.015   2.332  0.6414  0.4344 -0.4607
 5967TIP3    H139460   4.390   3.002   2.424  0.8566  0.3946 -0.5182
 5967TIP3    H239461   4.272   3.012   2.330  0.5882  1.5876 -0.0668
 5968TIP3   OH239462   2.980   3.348   8.418  0.0916  1.0397 -0.1368
 5968TIP3    H139463   3.000   3.409   8.489 -0.3688 -1.7816  2.6371
 5968TIP3    H239464   3.057   3.350   8.362  0.5973  3.1770  0.5355
 5969TIP3   OH239465   0.676   3.795   8.677 -0.4235 -0.1256  0.5703
 5969TIP3    H139466   0.583   3.775   8.677 -0.4818 -0.0252 -1.4053
 5969TIP3    H239467   0.719   3.710   8.684 -0.6715 -0.3555 -0.6358
 5970TIP3   OH239468   1.662   6.018   8.494 -0.6111 -0.0598 -0.2058
 5970TIP3    H139469   1.614   6.000   8.575  0.4253 -1.2336  0.1876
 5970TIP3    H239470   1.722   6.089   8.517 -1.3646  0.6504 -0.3900
 5971TIP3   OH239471   4.053   3.492   2.057 -0.2806 -0.1307 -0.1818
 5971TIP3    H139472   4.081   3.477   2.147 -1.0628  1.1239  0.2967
 5971TIP3    H239473   3.957   3.487   2.061 -0.4663  2.3357 -0.4368
 5972TIP3   OH239474   1.177   4.142   2.540  0.1808 -0.1904  0.6250
 5972TIP3    H139475   1.152   4.121   2.630 -1.7486 -0.7585  0.0082
 5972TIP3    H239476   1.094   4.153   2.494  1.1249  0.0831 -1.0933
 5973TIP3   OH239477   1.288   5.418   8.536  0.1395 -0.3139 -0.2137
 5973TIP3    H139478   1.322   5.381   8.454 -0.1568 -1.0656 -0.0101
 5973TIP3    H239479   1.353   5.392   8.602  0.2216  0.0276 -0.1605
 5974TIP3   OH239480   1.799   0.267   1.241  0.1477 -0.2609 -0.1563
 5974TIP3    H139481   1.762   0.310   1.164  0.2347  1.7007  0.8234
 5974TIP3    H239482   1.737   0.198   1.262 -0.5454  0.0028 -1.2299
 5975TIP3   OH239483   0.396   0.283   8.627 -0.0451  0.4766  0.2106
 5975TIP3    H139484   0.467   0.310   8.685  0.2854 -1.6095  0.8864
 5975TIP3    H239485   0.436   0.219   8.568 -0.3374  2.5941 -2.5069
 5976TIP3   OH239486   4.972   1.171   1.780 -0.2595 -0.5771 -0.1575
 5976TIP3    H139487   4.915   1.197   1.852  1.7035  1.7317  0.6992
 5976TIP3    H239488   4.975   1.248   1.723  3.1529  0.0866  0.6857
 5977TIP3   OH239489   2.804   6.485   1.704 -0.2223 -0.4907  0.1699
 5977TIP3    H139490   2.866   6.462   1.635  0.9389 -0.1441  1.0633
 5977TIP3    H239491   2.773   6.401   1.738 -2.2075 -0.7042 -1.9214
 5978TIP3   OH239492   3.527   3.501   0.860  0.0778 -0.0897  0.3443
 5978TIP3    H139493   3.552   3.543   0.942 -0.7967  0.5366  0.3022
 5978TIP3    H239494   3.431   3.498   0.863  0.0891 -1.2393 -0.0775
 5979TIP3   OH239495   3.641   4.858   2.609 -0.0380 -0.1085 -0.5356
 5979TIP3    H139496   3.722   4.810   2.592  0.7831  1.3832 -0.9724
 5979TIP3    H239497   3.602   4.813   2.684  1.6960 -0.2749  0.3124
 5980TIP3   OH239498   5.309   2.633   6.905  0.2518  0.6115  0.4759
 5980TIP3    H139499   5.364   2.658   6.980 -0.6695 -2.4485  2.3811
 5980TIP3    H239500   5.367   2.641   6.830  3.1870 -1.5317  2.2633
 5981TIP3   OH239501   4.845   5.667   8.573 -0.2368  0.1255  0.7112
 5981TIP3    H139502   4.870   5.759   8.562 -0.6180  0.4568  2.3243
 5981TIP3    H239503   4.824   5.659   8.666  0.5803 -1.7991  0.7757
 5982TIP3   OH239504   3.194   1.358   7.451  0.2039  0.6958 -0.0302
 5982TIP3    H139505   3.157   1.289   7.396  1.2495 -0.0780  0.1875
 5982TIP3    H239506   3.120   1.392   7.501 -0.7004  1.1863 -1.6573
 5983TIP3   OH239507   6.428   3.468   2.379  0.5920  0.0664  0.0883
 5983TIP3    H139508   6.501   3.506   2.331 -0.0210 -1.1209 -1.8737
 5983TIP3    H239509   6.375   3.543   2.405  0.2431  0.7321 -2.3070
 5984TIP3   OH239510   3.037   0.172   0.940  0.0022 -0.0659 -0.6708
 5984TIP3    H139511   2.979   0.134   1.006 -0.0725 -1.0631 -1.2824
 5984TIP3    H239512   3.079   0.246   0.984 -0.9307  0.0126  0.1096
 5985TIP3   OH239513   1.384   1.979   8.031  0.4111 -0.7123 -0.0088
 5985TIP3    H139514   1.451   2.035   7.993 -0.2851  0.9036  1.0515
 5985TIP3    H239515   1.307   2.036   8.041 -1.0483 -2.4031 -0.8636
 5986TIP3   OH239516   3.184   3.559   2.956 -0.1225 -0.1831 -0.0735
 5986TIP3    H139517   3.266   3.533   2.998 -0.4076 -1.5814 -0.3423
 5986TIP3    H239518   3.177   3.652   2.975 -0.0672 -0.6560  2.7124
 5987TIP3   OH239519   5.584   2.865   7.710 -0.4004 -0.9765 -0.0144
 5987TIP3    H139520   5.614   2.776   7.692 -0.2841 -0.9489  0.0394
 5987TIP3    H239521   5.660   2.920   7.687  0.1108 -1.0089  1.5042
 5988TIP3   OH239522   3.222   5.112   0.205  0.2762 -0.3084 -0.0464
 5988TIP3    H139523   3.248   5.054   0.133  1.2373 -2.2392  1.7424
 5988TIP3    H239524   3.127   5.104   0.210  0.2766 -0.7206 -0.6461
 5989TIP3   OH239525   0.475   1.951   7.129 -0.2475 -0.1525  0.3887
 5989TIP3    H139526   0.484   1.875   7.071  0.8992  0.6870 -0.5788
 5989TIP3    H239527   0.564   1.984   7.141 -0.7735  1.4196  0.2515
 5990TIP3   OH239528   5.187   5.772   0.980  0.4529  0.1922  0.6084
 5990TIP3    H139529   5.251   5.793   0.912 -1.5463 -2.2386 -2.2943
 5990TIP3    H239530   5.219   5.691   1.020  1.1034  1.0821  1.9931
 5991TIP3   OH239531   2.729   6.439   2.031 -0.2527 -0.3967 -0.2607
 5991TIP3    H139532   2.812   6.431   1.983 -1.0967 -1.4924 -1.6231
 5991TIP3    H239533   2.740   6.380   2.106  1.3117  1.7921  1.3745
 5992TIP3   OH239534   2.329   5.849   8.473  0.2526  0.8485 -0.2152
 5992TIP3    H139535   2.374   5.766   8.458  1.2374  1.2349  0.5160
 5992TIP3    H239536   2.386   5.897   8.533 -2.6730  0.0136  3.6562
 5993TIP3   OH239537   4.166   2.846   2.607 -0.0967  0.5551  0.1389
 5993TIP3    H139538   4.148   2.829   2.700  0.3548 -0.9059 -0.0221
 5993TIP3    H239539   4.257   2.874   2.605  0.5160 -1.2855 -0.0220
 5994TIP3   OH239540   5.353   3.985   8.778  0.0821  0.4347  0.6735
 5994TIP3    H139541   5.260   4.001   8.790  0.1513  0.0546  1.8319
 5994TIP3    H239542   5.389   4.070   8.751 -0.2409  1.2009  2.5210
 5995TIP3   OH239543   5.306   4.098   2.609 -0.5982 -0.2202 -0.6208
 5995TIP3    H139544   5.341   4.078   2.522 -0.3610 -0.6895 -0.4211
 5995TIP3    H239545   5.361   4.047   2.669 -1.5712 -0.9023 -0.2864
 5996TIP3   OH239546   0.023   4.741   1.791  0.4963 -0.7233  0.0635
 5996TIP3    H139547  -0.050   4.791   1.827  0.9254 -0.4038  0.5057
 5996TIP3    H239548   0.050   4.682   1.863  2.1352  0.7571  0.7391
 5997TIP3   OH239549   6.129   5.068   1.687  0.6025 -0.0070 -0.6493
 5997TIP3    H139550   6.148   5.158   1.714  0.3287 -0.1987  0.2208
 5997TIP3    H239551   6.045   5.075   1.641 -0.8521 -0.1464  1.7690
 5998TIP3   OH239552   2.440   0.841   1.237  0.0646  0.9212 -0.1708
 5998TIP3    H139553   2.362   0.824   1.184 -0.0722 -1.3289  0.6507
 5998TIP3    H239554   2.416   0.918   1.289 -2.2210 -0.4727  1.0345
 5999TIP3   OH239555   1.601   6.400   1.122  0.1855  0.0074 -0.0372
 5999TIP3    H139556   1.543   6.389   1.046  0.6525 -0.3524 -0.3481
 5999TIP3    H239557   1.668   6.460   1.092 -0.4127  0.9954  0.5527
 6000TIP3   OH239558   2.967   1.799   7.763  0.1327 -0.5309 -0.0331
 6000TIP3    H139559   2.930   1.846   7.688 -1.4342 -1.1046  0.3297
 6000TIP3    H239560   2.902   1.730   7.782  0.2213 -0.0681  2.1762
 6001TIP3   OH239561   4.863   5.736   8.043 -0.6711  0.8718 -0.0959
 6001TIP3    H139562   4.782   5.690   8.063  0.0185 -0.6106 -0.5068
 6001TIP3    H239563   4.853   5.765   7.953 -0.2260 -0.5794 -0.6450
 6002TIP3   OH239564   4.481   6.614   8.385  0.2083 -0.1020 -0.2701
 6002TIP3    H139565   4.492   6.550   8.454 -1.8001 -0.3274 -0.0851
 6002TIP3    H239566   4.474   6.698   8.431  2.0264  0.1815 -0.4558
 6003TIP3   OH239567   5.843   3.304   8.846 -0.4535  0.7012 -0.0437
 6003TIP3    H139568   5.904   3.330   8.915 -2.0398  3.0400  0.6016
 6003TIP3    H239569   5.879   3.345   8.767 -0.2710  0.6376  0.0050
 6004TIP3   OH239570   4.569   4.969   8.173 -0.4223  0.0323 -0.5896
 6004TIP3    H139571   4.648   5.001   8.129  0.0337 -1.7586 -1.1508
 6004TIP3    H239572   4.601   4.905   8.236 -1.5442 -3.3369 -3.1794
 6005TIP3   OH239573   6.717   3.467   7.191  0.0303 -0.2143  0.4521
 6005TIP3    H139574   6.689   3.482   7.282  0.4550  0.0928  0.5356
 6005TIP3    H239575   6.699   3.550   7.146  1.8812  0.4327  0.7894
 6006TIP3   OH239576   5.062   6.198   2.137 -0.3874 -0.0578  0.1332
 6006TIP3    H139577   5.110   6.116   2.150  1.5903  0.9609 -0.2506
 6006TIP3    H239578   5.065   6.241   2.222  2.0272  1.2701 -0.5089
 6007TIP3   OH239579   2.630   2.800   8.862  0.4746 -0.0007 -0.0697
 6007TIP3    H139580   2.618   2.841   8.776 -1.3233  0.6514  0.4431
 6007TIP3    H239581   2.658   2.711   8.843 -0.0022  0.1034 -1.3518
 6008TIP3   OH239582   3.391   2.455   7.413  0.3675 -0.4614 -0.3774
 6008TIP3    H139583   3.433   2.420   7.335 -1.1087 -1.4603 -0.7538
 6008TIP3    H239584   3.301   2.474   7.386 -0.3074 -1.2727  1.1839
 6009TIP3   OH239585   5.220   5.176   1.216  0.1691  0.5168 -0.0348
 6009TIP3    H139586   5.198   5.209   1.129 -0.5866  0.1111 -0.0094
 6009TIP3    H239587   5.260   5.090   1.200  2.0415  1.3533 -0.0962
 6010TIP3   OH239588   6.095   6.788   7.754 -0.1579 -0.5351  0.0725
 6010TIP3    H139589   6.161   6.783   7.824 -0.5343  2.3407  0.7562
 6010TIP3    H239590   6.121   6.864   7.702 -0.5479 -1.9235 -2.3100
 6011TIP3   OH239591   1.094   4.962   7.728 -0.0255 -0.0395 -0.6846
 6011TIP3    H139592   1.131   4.887   7.680  0.8597 -0.1435  0.1314
 6011TIP3    H239593   1.164   5.027   7.728 -0.4821  0.4579 -0.6364
 6012TIP3   OH239594   6.770   2.834   1.298 -0.3671 -0.1500 -0.0764
 6012TIP3    H139595   6.821   2.759   1.266  0.4732 -0.7222  2.3962
 6012TIP3    H239596   6.707   2.796   1.359  1.0417  1.2301  2.3706
 6013TIP3   OH239597   3.522   1.528   8.189 -0.1363 -0.2015  0.3544
 6013TIP3    H139598   3.607   1.549   8.150  0.5894 -0.9393  1.4904
 6013TIP3    H239599   3.470   1.493   8.116  0.0922  1.3775 -0.6153
 6014TIP3   OH239600   1.946   3.106   8.809  0.3115 -0.5795 -0.0355
 6014TIP3    H139601   2.021   3.097   8.867  1.2045 -0.0216 -1.0649
 6014TIP3    H239602   1.971   3.176   8.748 -0.5775 -1.1409 -1.0830
 6015TIP3   OH239603   3.260   3.199   2.020 -0.3287 -0.1875 -0.1853
 6015TIP3    H139604   3.326   3.227   1.956 -0.4202 -1.7516 -1.0063
 6015TIP3    H239605   3.179   3.194   1.970 -0.2948 -1.9864 -0.1342
 6016TIP3   OH239606   3.454   2.396   2.171 -0.2516 -0.3736 -0.0679
 6016TIP3    H139607   3.400   2.348   2.234  1.4412 -0.5275  1.3564
 6016TIP3    H239608   3.423   2.366   2.086 -1.6519 -1.2720  0.7146
 6017TIP3   OH239609   0.563   1.638   1.497 -0.0281  0.1571 -0.2212
 6017TIP3    H139610   0.519   1.557   1.520 -0.8036  0.4696 -0.5624
 6017TIP3    H239611   0.654   1.613   1.484 -0.1917 -0.5898  0.0371
 6018TIP3   OH239612   0.578   4.307   1.884  0.9009  0.3513  0.5022
 6018TIP3    H139613   0.633   4.261   1.820  3.7707 -1.5364  3.9458
 6018TIP3    H239614   0.490   4.272   1.869  2.3001 -3.6616  0.4651
 6019TIP3   OH239615   1.748   3.062   8.543 -0.2365  0.2648 -0.4060
 6019TIP3    H139616   1.799   3.142   8.552 -0.2764  0.2159  0.4031
 6019TIP3    H239617   1.726   3.038   8.634  0.1977 -0.9263 -0.5937
 6020TIP3   OH239618   2.870   0.921   0.713 -0.4132  0.2365 -0.7771
 6020TIP3    H139619   2.924   0.977   0.657  0.8818 -0.6318 -0.4718
 6020TIP3    H239620   2.853   0.843   0.659  0.6647 -0.5118 -0.0980
 6021TIP3   OH239621   6.106   5.552   1.623 -0.3390  0.0653 -0.2828
 6021TIP3    H139622   6.028   5.541   1.678 -0.4109 -1.2775 -0.6245
 6021TIP3    H239623   6.077   5.612   1.553 -0.1962  1.9414  1.1669
 6022TIP3   OH239624   6.784   6.135   2.959 -0.2323 -0.1582 -0.1372
 6022TIP3    H139625   6.801   6.177   2.875 -1.9233  2.0743  0.5500
 6022TIP3    H239626   6.718   6.190   3.001 -0.1345 -1.7224  2.2731
 6023TIP3   OH239627   0.949   1.456   0.823 -0.4652 -0.1480  0.5081
 6023TIP3    H139628   0.978   1.431   0.735 -0.0385  1.7741  0.0352
 6023TIP3    H239629   0.939   1.374   0.870 -0.1095 -1.1928 -1.1606
 6024TIP3   OH239630   4.075   6.034   1.654 -0.4413  0.5002 -0.0665
 6024TIP3    H139631   4.038   6.122   1.662 -2.9175 -0.4144 -0.4521
 6024TIP3    H239632   4.132   6.038   1.577 -3.2436  1.0239 -2.2945
 6025TIP3   OH239633   0.417   5.639   0.487  0.8764 -0.4126 -0.1210
 6025TIP3    H139634   0.325   5.623   0.465  1.2793 -0.7789 -1.6943
 6025TIP3    H239635   0.437   5.574   0.554  0.3956 -1.4181 -0.9164
 6026TIP3   OH239636   2.232   2.305   2.768 -0.1130 -0.1984 -0.2256
 6026TIP3    H139637   2.294   2.252   2.718 -1.5578 -2.3375  0.1280
 6026TIP3    H239638   2.272   2.313   2.855  1.0395  1.0810 -0.8232
 6027TIP3   OH239639   3.762   3.658   1.550  0.4263 -0.3114  0.0558
 6027TIP3    H139640   3.749   3.729   1.613 -1.0949 -0.4360 -0.0763
 6027TIP3    H239641   3.837   3.686   1.497 -0.2485  1.2770 -0.1086
 6028TIP3   OH239642   4.230   2.333   0.857 -0.8572  0.0274  0.6253
 6028TIP3    H139643   4.250   2.391   0.784  0.3216 -0.3169  0.6540
 6028TIP3    H239644   4.139   2.308   0.844 -1.0554  1.0356  0.0281
 6029TIP3   OH239645   5.965   5.126   2.445  0.5664  0.1704  0.3094
 6029TIP3    H139646   6.023   5.198   2.471 -1.7030  1.8632  1.0850
 6029TIP3    H239647   5.987   5.109   2.353  1.1831  1.8970  0.1001
 6030TIP3   OH239648   0.625   4.127   8.824 -0.5159 -0.9852 -0.6132
 6030TIP3    H139649   0.586   4.050   8.782 -1.5509 -0.3838 -0.8070
 6030TIP3    H239650   0.705   4.144   8.774 -0.5525 -1.6249 -0.9011
 6031TIP3   OH239651   1.755   1.639   8.257  0.5256 -0.3445 -0.4951
 6031TIP3    H139652   1.770   1.677   8.170 -0.4423 -0.5743 -0.7823
 6031TIP3    H239653   1.792   1.703   8.318  1.4026 -0.2807 -1.0802
 6032TIP3   OH239654   1.190   2.896   2.086  0.7074  0.2566  0.2380
 6032TIP3    H139655   1.180   2.850   2.170 -0.2169 -2.6769 -1.3370
 6032TIP3    H239656   1.159   2.985   2.104  1.8836  0.1710  3.3041
 6033TIP3   OH239657   1.733   2.922   6.917 -0.6790 -0.0635  0.6279
 6033TIP3    H139658   1.755   3.010   6.888 -0.1255 -0.4334 -0.0995
 6033TIP3    H239659   1.693   2.934   7.003  1.2867  0.7350  1.4879
 6034TIP3   OH239660   3.901   5.123   8.172  0.5707 -0.1673  0.1361
 6034TIP3    H139661   3.871   5.155   8.087 -0.3085 -2.5805 -0.5442
 6034TIP3    H239662   3.985   5.081   8.154 -0.5166 -2.4481 -0.0402
 6035TIP3   OH239663   2.420   0.744   8.029  0.3162  0.3412 -0.1993
 6035TIP3    H139664   2.449   0.834   8.045 -0.8799  0.7554 -0.2745
 6035TIP3    H239665   2.474   0.691   8.088  1.6868  0.9965 -0.8250
 6036TIP3   OH239666   4.217   0.685   0.492  0.2400  0.1613 -0.4234
 6036TIP3    H139667   4.301   0.688   0.447  0.1199 -1.2324 -0.8021
 6036TIP3    H239668   4.167   0.757   0.456  1.4863  1.4325  0.2938
 6037TIP3   OH239669   1.630   2.598   2.886  0.1430 -0.3519 -0.2078
 6037TIP3    H139670   1.642   2.566   2.975 -1.2989 -0.0225  0.1358
 6037TIP3    H239671   1.680   2.680   2.882  2.0029 -1.4468 -0.4065
 6038TIP3   OH239672   0.996   3.249   7.770 -0.1573  0.0281 -0.5287
 6038TIP3    H139673   0.956   3.181   7.716 -0.2752  0.5731 -1.1348
 6038TIP3    H239674   1.030   3.313   7.708 -0.7879  0.9405  0.0391
 6039TIP3   OH239675   2.076   0.731   1.684  0.2464  0.4364 -0.3278
 6039TIP3    H139676   2.078   0.660   1.620 -0.4317  1.1027 -1.1122
 6039TIP3    H239677   2.120   0.804   1.640  1.9930  0.2015  0.9006
 6040TIP3   OH239678   3.820   1.671   2.267  0.4412 -0.0880  0.4135
 6040TIP3    H139679   3.861   1.642   2.348  1.7247  0.7516  0.0978
 6040TIP3    H239680   3.781   1.591   2.230 -0.9278 -0.3164  2.2495
 6041TIP3   OH239681   6.601   6.162   0.633  0.0802  0.0385 -0.0119
 6041TIP3    H139682   6.554   6.245   0.623  0.6265  0.3946  0.3197
 6041TIP3    H239683   6.574   6.129   0.719 -0.4402 -0.3282 -0.3112
 6042TIP3   OH239684   1.624   5.292   2.343 -0.0672  0.3570  0.7215
 6042TIP3    H139685   1.636   5.237   2.420  0.0234  1.8443  1.8126
 6042TIP3    H239686   1.660   5.377   2.369 -0.7599  1.1033 -0.6863
 6043TIP3   OH239687   3.247   2.440   8.657 -0.0590  0.1751 -0.6492
 6043TIP3    H139688   3.282   2.358   8.693  1.6693  0.2021 -2.1300
 6043TIP3    H239689   3.166   2.454   8.705  1.0154 -0.9050  1.6551
 6044TIP3   OH239690   2.803   4.079   0.278 -0.2214  0.1385 -0.1913
 6044TIP3    H139691   2.885   4.030   0.268  0.3439  1.4614 -2.6703
 6044TIP3    H239692   2.830   4.170   0.287 -1.4115  0.5355 -0.4929
 6045TIP3   OH239693   6.621   5.768   7.625  0.0106  0.1540  0.1240
 6045TIP3    H139694   6.667   5.695   7.583 -1.1330 -0.0620 -0.7797
 6045TIP3    H239695   6.529   5.753   7.606 -0.3336  1.2808  0.8174
 6046TIP3   OH239696   3.338   2.495   7.796 -0.0442  0.3493 -0.3603
 6046TIP3    H139697   3.279   2.485   7.871  2.0562  0.4071  1.4063
 6046TIP3    H239698   3.332   2.412   7.749 -1.3881  0.3004 -0.1357
 6047TIP3   OH239699   5.991   1.494   2.018 -0.4953 -0.1023 -0.2811
 6047TIP3    H139700   5.932   1.501   1.943  0.4567  0.2946 -1.0158
 6047TIP3    H239701   5.933   1.484   2.094 -1.4800 -0.4093 -1.0532
 6048TIP3   OH239702   4.758   2.810   8.743 -0.4613 -0.1870 -0.4676
 6048TIP3    H139703   4.848   2.779   8.744  0.2438  1.5761 -2.3972
 6048TIP3    H239704   4.713   2.752   8.682 -0.5413 -0.7756  0.1381
 6049TIP3   OH239705   0.025   5.823   0.196  0.1401 -0.0140  0.2535
 6049TIP3    H139706  -0.055   5.773   0.180  0.8868 -1.3703  0.6018
 6049TIP3    H239707  -0.006   5.913   0.211 -1.4333 -0.7262  1.6599
 6050TIP3   OH239708   5.188   3.330   7.827 -0.4369 -0.0432  0.1476
 6050TIP3    H139709   5.114   3.383   7.856 -0.0007 -0.3543  2.0036
 6050TIP3    H239710   5.255   3.394   7.802 -0.0569  0.3554  1.9928
 6051TIP3   OH239711   5.390   0.029   0.843  0.2799 -0.4777  0.1678
 6051TIP3    H139712   5.375  -0.064   0.864  1.5789 -0.6634  0.3111
 6051TIP3    H239713   5.372   0.075   0.925 -3.5839 -0.1668 -0.6398
 6052TIP3   OH239714   3.257   5.351   1.224 -0.0857 -0.1255  0.7567
 6052TIP3    H139715   3.190   5.408   1.261 -1.3650 -0.8541 -0.3686
 6052TIP3    H239716   3.211   5.297   1.160  1.8165  0.4033 -1.1916
 6053TIP3   OH239717   3.937   2.783   6.991  0.5146 -0.3404  0.1900
 6053TIP3    H139718   3.912   2.691   7.000 -1.7427 -0.0949 -2.3647
 6053TIP3    H239719   4.012   2.782   6.932  1.4655 -0.5726  1.3578
 6054TIP3   OH239720   1.628   5.609   8.832  0.4332 -0.6556 -0.0547
 6054TIP3    H139721   1.659   5.563   8.910 -0.5972 -1.4562 -0.1013
 6054TIP3    H239722   1.549   5.562   8.805 -0.3565  0.8069 -0.4337
 6055TIP3   OH239723   0.723   4.926   8.733 -0.8778 -0.2449 -0.1751
 6055TIP3    H139724   0.794   4.930   8.668 -0.4149 -0.0396  0.3334
 6055TIP3    H239725   0.742   4.999   8.792  0.2090 -1.9697  1.7166
 6056TIP3   OH239726   0.739   5.529   0.851  0.1139  0.3642 -0.1945
 6056TIP3    H139727   0.695   5.535   0.936  1.4203 -0.1075  0.5352
 6056TIP3    H239728   0.791   5.450   0.857 -0.0760  0.1131 -1.6012
 6057TIP3   OH239729   3.562   2.699   0.261 -0.4583  0.2168  0.0350
 6057TIP3    H139730   3.606   2.667   0.340 -0.4273  2.0973  0.8251
 6057TIP3    H239731   3.484   2.744   0.293 -1.6399 -0.8420 -1.1935
 6058TIP3   OH239732   0.613   5.122   8.292  0.2063 -0.2099 -0.2243
 6058TIP3    H139733   0.699   5.135   8.251  0.0052  1.2635 -0.2138
 6058TIP3    H239734   0.620   5.165   8.377 -1.1191  1.6500 -0.9951
 6059TIP3   OH239735   0.219   0.837   3.097  0.1561  0.4059  0.5311
 6059TIP3    H139736   0.257   0.813   3.012  1.1660  1.4090  0.6680
 6059TIP3    H239737   0.295   0.847   3.155 -0.5830 -1.4453  1.8971
 6060TIP3   OH239738   4.132   3.489   1.715 -0.4265 -0.0340  0.3630
 6060TIP3    H139739   4.075   3.433   1.661  2.8439 -0.7259 -2.7915
 6060TIP3    H239740   4.177   3.545   1.651  2.1227  0.6841  2.6187
 6061TIP3   OH239741   1.072   5.918   8.000 -0.2631 -0.0640 -0.1710
 6061TIP3    H139742   0.980   5.892   8.007 -0.6530  1.3671  0.2313
 6061TIP3    H239743   1.091   5.914   7.906 -0.5832 -0.8384 -0.2114
 6062TIP3   OH239744   0.623   5.922   1.736  0.2823 -0.7599 -0.2497
 6062TIP3    H139745   0.559   5.856   1.710  0.9650 -1.9179  0.9220
 6062TIP3    H239746   0.653   5.895   1.823  0.8332  0.9107  0.1168
 6063TIP3   OH239747   3.157   3.356   0.615 -0.3326 -0.1666  0.2391
 6063TIP3    H139748   3.187   3.291   0.551 -1.8734 -0.0148 -0.7122
 6063TIP3    H239749   3.162   3.439   0.567 -0.7372  0.0600  0.5903
 6064TIP3   OH239750   3.525   1.424   7.464  0.1451  0.1271 -0.5671
 6064TIP3    H139751   3.432   1.402   7.467  0.2761 -1.0062 -2.8799
 6064TIP3    H239752   3.528   1.509   7.419  0.1837  0.7656  0.6069
 6065TIP3   OH239753   6.243   3.988   1.773  0.7343  0.6898  0.4416
 6065TIP3    H139754   6.252   4.079   1.744  0.3759  0.3226 -0.9126
 6065TIP3    H239755   6.322   3.945   1.738 -0.0992  0.0639 -0.7446
 6066TIP3   OH239756   1.722   6.474   8.392 -0.4105 -0.4791  0.0012
 6066TIP3    H139757   1.629   6.454   8.376 -0.3475  0.1973 -1.3802
 6066TIP3    H239758   1.726   6.570   8.386  0.1459 -0.3937  1.4700
 6067TIP3   OH239759   0.426   4.950   8.412 -0.4667 -0.4995  0.1004
 6067TIP3    H139760   0.493   4.983   8.351 -0.8923  0.0739 -0.0660
 6067TIP3    H239761   0.384   5.029   8.445  0.1256 -0.7791  1.5822
 6068TIP3   OH239762   2.704   6.469   7.494 -0.3871  0.4091 -0.0649
 6068TIP3    H139763   2.623   6.426   7.469  0.4236 -1.4853  0.4077
 6068TIP3    H239764   2.742   6.413   7.562  0.9013  1.6933  0.3341
 6069TIP3   OH239765   3.257   1.136   2.086  0.4187 -0.2682 -0.1744
 6069TIP3    H139766   3.298   1.169   2.166  0.4980  3.6154 -1.5884
 6069TIP3    H239767   3.164   1.138   2.105  0.4995 -1.7150  0.5331
 6070TIP3   OH239768   2.158   1.237   8.399  0.1892 -0.6036 -0.5063
 6070TIP3    H139769   2.253   1.228   8.400  0.0574 -2.1381 -0.0085
 6070TIP3    H239770   2.143   1.327   8.369  1.7818 -0.3773 -0.7036
 6071TIP3   OH239771   2.227   5.348   0.984  0.2268  0.2106  0.1582
 6071TIP3    H139772   2.311   5.392   0.992  0.3406  0.0621 -0.1860
 6071TIP3    H239773   2.247   5.265   0.940 -0.1307  0.2938 -0.1761
 6072TIP3   OH239774   3.749   6.123   7.559 -0.2637 -0.4833  0.3231
 6072TIP3    H139775   3.778   6.140   7.469  1.4606  0.2273  0.9468
 6072TIP3    H239776   3.794   6.042   7.584 -0.3645 -0.4301  0.6842
 6073TIP3   OH239777   2.777   4.095   8.344  0.2859 -0.2125  0.1641
 6073TIP3    H139778   2.688   4.063   8.331  0.4181 -0.1706 -0.8661
 6073TIP3    H239779   2.832   4.018   8.339  0.4737 -0.0224 -1.0131
 6074TIP3   OH239780   3.905   4.343   2.081 -0.3916 -0.2861 -0.1424
 6074TIP3    H139781   3.893   4.327   2.175  1.2184  1.1241  0.3590
 6074TIP3    H239782   3.948   4.263   2.050 -0.7780 -0.6982  0.3590
 6075TIP3   OH239783   3.595   4.805   0.656  0.2017  0.0626  0.2453
 6075TIP3    H139784   3.631   4.720   0.683  0.3383 -0.5360 -1.6716
 6075TIP3    H239785   3.517   4.816   0.710  0.9948 -0.5759  1.5619
 6076TIP3   OH239786   0.034   0.846   2.215 -0.0792 -0.1901  0.0973
 6076TIP3    H139787   0.044   0.811   2.303  0.3951  0.8036  0.4497
 6076TIP3    H239788  -0.039   0.797   2.178  0.1144 -1.0427  0.8196
 6077TIP3   OH239789   0.325   1.699   7.876 -0.5035 -0.2493  0.4070
 6077TIP3    H139790   0.310   1.691   7.782 -0.6362  0.0169  0.4038
 6077TIP3    H239791   0.387   1.629   7.897  0.3723  0.3637 -0.0666
 6078TIP3   OH239792   4.828   5.334   1.218 -0.0622  0.1687 -0.4791
 6078TIP3    H139793   4.889   5.406   1.233 -1.4169  1.0423  1.2435
 6078TIP3    H239794   4.815   5.296   1.305 -0.2403 -1.4565 -1.1941
 6079TIP3   OH239795   0.134   2.804   0.110  0.2232 -0.7924 -0.6326
 6079TIP3    H139796   0.101   2.714   0.112  0.0161 -0.7098 -0.2056
 6079TIP3    H239797   0.163   2.817   0.020 -0.1205 -1.1533 -0.7971
 6080TIP3   OH239798   0.501   2.879   8.209 -0.0422  0.1562 -0.1013
 6080TIP3    H139799   0.433   2.812   8.205 -0.3093  0.3288  1.1964
 6080TIP3    H239800   0.482   2.937   8.135 -2.3068  1.1217  1.1360
 6081TIP3   OH239801   1.249   2.603   1.397  0.0090  0.3885  0.3364
 6081TIP3    H139802   1.162   2.569   1.376  0.0052  0.7623 -0.2910
 6081TIP3    H239803   1.279   2.548   1.469 -0.3866 -0.3253 -0.0250
 6082TIP3   OH239804   2.056   2.600   0.409  0.0543  0.6735 -0.2263
 6082TIP3    H139805   1.986   2.543   0.440  0.8253 -0.9214 -1.2653
 6082TIP3    H239806   2.022   2.688   0.419 -2.5122 -0.0714 -1.6145
 6083TIP3   OH239807   6.355   5.864   1.765  0.1912 -0.1841 -0.1398
 6083TIP3    H139808   6.313   5.790   1.810 -0.2187  0.0259 -0.1766
 6083TIP3    H239809   6.286   5.901   1.711  0.1926  0.6889  0.4407
 6084TIP3   OH239810   1.591   3.059   1.779  0.2595  0.3066 -0.2504
 6084TIP3    H139811   1.620   2.976   1.739  1.1055  0.9521 -1.0338
 6084TIP3    H239812   1.540   3.032   1.855  0.2524 -0.9451 -0.6674
 6085TIP3   OH239813   5.434   4.223   8.167 -0.5443 -1.0187 -0.1829
 6085TIP3    H139814   5.418   4.130   8.186 -2.6171 -0.9634 -1.3483
 6085TIP3    H239815   5.513   4.223   8.113 -0.7537 -2.1583 -0.5248
 6086TIP3   OH239816   1.919   2.749   8.734  0.5754 -0.2815 -0.5477
 6086TIP3    H139817   1.853   2.746   8.665 -1.8684 -1.2005  1.6410
 6086TIP3    H239818   1.918   2.661   8.772  3.2464 -0.3873 -0.4990
 6087TIP3   OH239819   1.672   5.077   0.414 -0.2502  0.1567 -0.0723
 6087TIP3    H139820   1.609   5.076   0.342 -1.3015 -2.1840  0.7927
 6087TIP3    H239821   1.757   5.083   0.372 -0.8738 -0.3386 -1.4576
 6088TIP3   OH239822   2.805   3.386   1.352 -0.3223  0.1426 -0.1895
 6088TIP3    H139823   2.878   3.443   1.374  0.4220 -1.0452  0.5374
 6088TIP3    H239824   2.805   3.383   1.256  1.5426 -0.9865 -0.1957
 6089TIP3   OH239825   3.225   0.828   0.756 -0.6634  0.2716 -0.9006
 6089TIP3    H139826   3.179   0.904   0.793 -0.3303 -0.2133  0.5795
 6089TIP3    H239827   3.228   0.765   0.828 -0.1601 -0.8093 -1.8410
 6090TIP3   OH239828   1.035   3.263   1.572  0.1376  0.5416 -0.7490
 6090TIP3    H139829   1.093   3.224   1.507 -0.5749 -0.5946 -0.7340
 6090TIP3    H239830   0.968   3.308   1.520 -0.4114 -0.3364 -0.8328
 6091TIP3   OH239831   6.280   0.705   1.930 -0.2248 -0.1067  0.4630
 6091TIP3    H139832   6.290   0.718   2.024  0.4835 -0.8193  0.4932
 6091TIP3    H239833   6.302   0.613   1.916 -1.2635 -0.2529 -0.2742
 6092TIP3   OH239834   5.967   3.268   1.862  0.0826  0.1416  0.6341
 6092TIP3    H139835   6.016   3.199   1.817  0.0814  0.2231  0.5049
 6092TIP3    H239836   5.957   3.237   1.952  0.4054  0.1441  0.6709
 6093TIP3   OH239837   0.329   1.763   1.428 -0.8023 -0.2020  0.0608
 6093TIP3    H139838   0.412   1.718   1.444 -0.0661  0.3107 -1.9671
 6093TIP3    H239839   0.266   1.693   1.410 -0.6866 -0.5640  1.0071
 6094TIP3   OH239840   3.770   6.743   0.766 -0.0055  0.0063  0.0380
 6094TIP3    H139841   3.757   6.814   0.702 -1.0642  0.3483  0.6076
 6094TIP3    H239842   3.864   6.742   0.782 -0.1630  3.0224  1.9172
 6095TIP3   OH239843   0.003   1.905   0.015  0.1767  0.4417 -0.3135
 6095TIP3    H139844  -0.070   1.852  -0.017 -0.2209  0.3287  0.7309
 6095TIP3    H239845   0.079   1.847   0.008  0.3101  0.7969 -2.0568
 6096TIP3   OH239846   2.646   4.104   0.866  0.0497 -0.1476  0.2520
 6096TIP3    H139847   2.703   4.167   0.823 -0.2189 -0.8483 -1.1806
 6096TIP3    H239848   2.698   4.071   0.939  0.0150  2.0671  1.3892
 6097TIP3   OH239849   6.726   2.504   0.738  0.0239  0.2149 -0.3867
 6097TIP3    H139850   6.712   2.547   0.653 -1.7877 -1.2580 -0.9188
 6097TIP3    H239851   6.722   2.410   0.717  1.3712 -0.1902  1.0775
 6098TIP3   OH239852   1.837   0.628   2.261  0.1083  0.1096  0.0923
 6098TIP3    H139853   1.781   0.566   2.307  1.3898 -1.4499 -0.3390
 6098TIP3    H239854   1.791   0.711   2.266 -0.9390 -0.5382  2.0503
 6099TIP3   OH239855   0.986   6.762   7.701 -0.4354  0.2208 -0.0373
 6099TIP3    H139856   0.952   6.851   7.713 -1.3674 -0.1462  0.1028
 6099TIP3    H239857   1.063   6.773   7.645 -0.6501  1.0945 -0.1694
 6100TIP3   OH239858   3.707   0.899   1.917  0.4791 -0.4806 -0.0004
 6100TIP3    H139859   3.751   0.828   1.869  1.3101  1.1916 -1.8514
 6100TIP3    H239860   3.773   0.969   1.922 -1.1096  1.1325 -0.5874
 6101TIP3   OH239861   0.991   0.519   2.584 -0.1436 -0.3891  0.2780
 6101TIP3    H139862   0.951   0.566   2.657  0.0745 -0.7929  0.6636
 6101TIP3    H239863   1.081   0.551   2.582  0.6305 -2.3227  1.9054
 6102TIP3   OH239864   6.240   6.731   7.988 -0.0454 -0.3396 -0.0440
 6102TIP3    H139865   6.233   6.712   8.081 -0.0807 -2.0417 -0.3598
 6102TIP3    H239866   6.191   6.661   7.945 -1.6924  1.4589 -1.2976
 6103TIP3   OH239867   5.802   6.002   8.168 -0.0538 -0.2725 -0.6457
 6103TIP3    H139868   5.755   5.933   8.215  1.0177  0.5588  1.7820
 6103TIP3    H239869   5.876   6.023   8.224 -0.3716  2.8983 -1.2607
 6104TIP3   OH239870   4.946   2.230   7.048  0.0068 -0.7520 -0.2979
 6104TIP3    H139871   4.971   2.137   7.041 -2.0585 -1.4467  0.5953
 6104TIP3    H239872   4.860   2.234   7.008 -0.2448  0.6527  0.3454
 6105TIP3   OH239873   1.160   6.625   1.295 -0.2191  0.6138  0.3585
 6105TIP3    H139874   1.197   6.567   1.228 -0.7158  1.9456 -1.1177
 6105TIP3    H239875   1.164   6.573   1.375 -0.4550 -1.4001 -0.8468
 6106TIP3   OH239876   0.685   2.846   7.091  0.1652  0.1646 -0.2226
 6106TIP3    H139877   0.668   2.762   7.048  4.4428 -1.2478  0.3902
 6106TIP3    H239878   0.735   2.896   7.026  0.3815  0.9971  0.5662
 6107TIP3   OH239879   2.362   4.885   1.655 -0.2944 -0.4828 -0.0360
 6107TIP3    H139880   2.328   4.818   1.715  0.3547 -0.0544  0.8369
 6107TIP3    H239881   2.315   4.965   1.679 -0.5255 -0.4550 -0.5684
 6108TIP3   OH239882   1.210   3.499   1.647  0.4017 -0.2687 -0.3393
 6108TIP3    H139883   1.268   3.515   1.573  2.0924 -0.5847  0.8662
 6108TIP3    H239884   1.131   3.462   1.608  0.4707  1.3041 -2.1562
 6109TIP3   OH239885   5.870   0.559   2.379  0.1529  0.1321 -0.3731
 6109TIP3    H139886   5.784   0.591   2.350 -1.3504  0.3685  3.6614
 6109TIP3    H239887   5.894   0.618   2.450  2.1424 -1.8159  0.6748
 6110TIP3   OH239888   1.103   5.439   8.294  0.0581  0.3989 -0.0967
 6110TIP3    H139889   1.156   5.359   8.301 -1.0808 -0.5564 -1.6574
 6110TIP3    H239890   1.017   5.412   8.327 -0.1888  1.1524 -0.1239
 6111TIP3   OH239891   1.591   1.734   8.677 -0.2031 -0.0694 -0.4213
 6111TIP3    H139892   1.646   1.659   8.699 -0.5604 -1.6570 -4.1038
 6111TIP3    H239893   1.503   1.697   8.665 -0.9631  1.4467  0.2219
 6112TIP3   OH239894   2.671   0.475   1.066 -0.4213 -0.1231 -0.4152
 6112TIP3    H139895   2.677   0.441   1.155 -2.3120  0.4602 -0.0020
 6112TIP3    H239896   2.684   0.569   1.076 -0.0359 -0.1304 -0.8489
 6113TIP3   OH239897   0.909   1.349   1.464  0.0923 -0.7399 -0.1591
 6113TIP3    H139898   0.957   1.270   1.439  1.8710  0.6840 -1.6641
 6113TIP3    H239899   0.976   1.406   1.503 -1.1605 -0.0137  0.9992
 6114TIP3   OH239900   3.032   0.099   2.013  0.2964  0.1108 -0.0774
 6114TIP3    H139901   3.105   0.071   1.957 -0.4629 -1.2692 -0.4170
 6114TIP3    H239902   2.991   0.017   2.041 -1.7353  0.8580 -0.7159
 6115TIP3   OH239903   0.632   2.873   0.026  0.9177  0.4106 -0.5620
 6115TIP3    H139904   0.588   2.788   0.033  3.0044 -0.6920  0.1175
 6115TIP3    H239905   0.594   2.926   0.096  0.4913 -0.4273 -0.1495
 6116TIP3   OH239906   2.925   4.281   0.134 -0.5326 -0.0653 -0.2799
 6116TIP3    H139907   2.857   4.328   0.085 -2.7058  0.5831  3.0342
 6116TIP3    H239908   2.986   4.349   0.162 -0.6004 -0.0549 -0.1536
 6117TIP3   OH239909   3.028   0.512   0.663 -0.0270  0.3561 -0.0650
 6117TIP3    H139910   3.051   0.422   0.685 -0.7632  0.2187  0.1602
 6117TIP3    H239911   3.013   0.510   0.568  0.0416  0.2627 -0.0743
 6118TIP3   OH239912   0.807   1.441   8.359  0.3160  0.4577  0.1129
 6118TIP3    H139913   0.885   1.489   8.332  0.1909  2.4029  2.8661
 6118TIP3    H239914   0.791   1.468   8.449 -2.2273 -1.6535  0.4286
 6119TIP3   OH239915   4.236   2.647   1.019 -0.2845  0.2748 -0.3267
 6119TIP3    H139916   4.305   2.614   0.962 -0.6593  1.2247 -1.3790
 6119TIP3    H239917   4.160   2.657   0.961 -0.8009  0.8738  0.4325
 6120TIP3   OH239918   5.343   0.740   8.752 -0.2159 -0.5448  1.0829
 6120TIP3    H139919   5.332   0.655   8.708 -0.4242 -0.9065  1.8119
 6120TIP3    H239920   5.397   0.720   8.828  0.9788  0.2526  0.4701
 6121TIP3   OH239921   5.566   5.380   8.656 -0.1399 -0.0412  0.1668
 6121TIP3    H139922   5.646   5.414   8.697 -1.0816 -0.2243  2.3259
 6121TIP3    H239923   5.529   5.322   8.723 -2.3261  0.4413 -0.5612
 6122TIP3   OH239924   5.272   5.411   6.638  0.1169  0.0189 -0.1222
 6122TIP3    H139925   5.233   5.497   6.652  0.2180 -0.1504  1.3769
 6122TIP3    H239926   5.198   5.354   6.617  0.0174  0.4017 -0.8466
 6123TIP3   OH239927   1.553   3.683   1.708  0.3679  0.1298  0.0700
 6123TIP3    H139928   1.598   3.599   1.700 -1.1118 -0.5276 -2.2772
 6123TIP3    H239929   1.488   3.683   1.638 -1.0761  2.4086  1.2660
 6124TIP3   OH239930   4.943   5.928   8.218 -0.1970  0.8195 -0.0754
 6124TIP3    H139931   4.919   5.857   8.157 -0.4594  0.3642  0.5493
 6124TIP3    H239932   5.013   5.975   8.173  0.2241 -0.0527 -0.3539
 6125TIP3   OH239933   4.905   0.582   1.364  0.1917  0.0931 -0.7610
 6125TIP3    H139934   4.911   0.622   1.451  0.6124  0.3108 -0.8871
 6125TIP3    H239935   4.922   0.654   1.303  1.3762 -0.3386 -0.9777
 6126TIP3   OH239936   5.938   4.101   0.127 -0.3099 -0.5275  0.0807
 6126TIP3    H139937   5.974   4.063   0.047  0.7901  0.0224  0.3010
 6126TIP3    H239938   5.854   4.139   0.099  0.4365  0.4108 -1.0203
 6127TIP3   OH239939   5.962   2.284   1.696 -0.1558  0.4337 -0.6187
 6127TIP3    H139940   5.983   2.339   1.771 -0.9023  1.9093 -1.4482
 6127TIP3    H239941   5.913   2.211   1.734  0.7727  0.3551  0.4944
 6128TIP3   OH239942   4.118   0.455   8.168  0.5645 -0.1619  0.3290
 6128TIP3    H139943   4.057   0.388   8.196  1.5192 -0.2975  2.2326
 6128TIP3    H239944   4.151   0.494   8.249  0.8595  1.8700 -0.6921
 6129TIP3   OH239945   3.590   1.768   0.876 -0.0397  0.6645 -0.1482
 6129TIP3    H139946   3.571   1.843   0.820  1.0701  1.5554  0.6190
 6129TIP3    H239947   3.668   1.728   0.838  0.6186  1.1725  0.6253
 6130TIP3   OH239948   6.265   3.659   0.905  0.9492  0.4667 -0.7663
 6130TIP3    H139949   6.232   3.661   0.815 -0.2529 -0.6877 -0.3682
 6130TIP3    H239950   6.280   3.567   0.924 -0.1601  0.5346  0.6752
 6131TIP3   OH239951   6.770   0.848   7.838 -0.1431  0.4485 -0.2021
 6131TIP3    H139952   6.801   0.759   7.853  2.1325  1.0499 -0.8398
 6131TIP3    H239953   6.691   0.838   7.786 -1.2997 -1.2215  1.7079
 6132TIP3   OH239954   3.663   1.787   1.410 -0.5113 -0.3794  0.2710
 6132TIP3    H139955   3.652   1.708   1.464  0.4209  0.0768  1.1596
 6132TIP3    H239956   3.756   1.790   1.391 -0.4741  0.6967  0.5496
 6133TIP3   OH239957   1.266   0.149   8.766 -0.2466 -0.0019  0.0525
 6133TIP3    H139958   1.280   0.128   8.674 -0.8930  0.1806 -0.0956
 6133TIP3    H239959   1.268   0.244   8.770 -3.2556  0.1893 -0.3417
 6134TIP3   OH239960   3.040   2.244   8.736 -0.1352  0.6581  0.3327
 6134TIP3    H139961   2.989   2.271   8.812 -0.3939  0.2568  0.3062
 6134TIP3    H239962   3.108   2.186   8.771  0.2439  1.1130  0.3551
 6135TIP3   OH239963   6.672   3.696   0.307 -0.3605  0.2536 -0.3508
 6135TIP3    H139964   6.691   3.620   0.362 -1.7289  0.0436 -0.1446
 6135TIP3    H239965   6.750   3.751   0.315 -0.2876 -0.0411  1.3434
 6136TIP3   OH239966   3.188   1.421   1.937  0.1804  0.1125  0.4078
 6136TIP3    H139967   3.180   1.489   1.871 -1.9450 -0.5806 -0.1249
 6136TIP3    H239968   3.143   1.345   1.899  2.4717 -1.6455  0.9552
 6137TIP3   OH239969   0.452   0.683   2.359 -0.1677  0.1370  0.0313
 6137TIP3    H139970   0.441   0.731   2.441  0.1422 -1.5656  1.1209
 6137TIP3    H239971   0.391   0.609   2.366  1.3610 -1.2141 -0.3309
 6138TIP3   OH239972   3.107   3.089   0.195 -0.2419  0.1381  0.1470
 6138TIP3    H139973   3.088   2.996   0.206 -0.3562  0.0730 -0.5434
 6138TIP3    H239974   3.028   3.134   0.224 -0.9332 -0.0710 -1.3071
 6139TIP3   OH239975   0.249   3.368   0.461 -0.4232  0.3704  0.0450
 6139TIP3    H139976   0.321   3.306   0.463 -2.0930 -1.6377  0.6346
 6139TIP3    H239977   0.279   3.437   0.401  2.6264  0.5350  1.5931
 6140TIP3   OH239978   5.958   3.721   8.373  0.5593  0.5338 -1.3007
 6140TIP3    H139979   5.999   3.781   8.310 -1.3376  0.8334 -2.3452
 6140TIP3    H239980   5.886   3.681   8.324 -0.0814 -0.3344  0.2771
 6141TIP3   OH239981   0.871   6.777   2.109  0.1686 -0.4931  0.7409
 6141TIP3    H139982   0.904   6.703   2.059 -0.5112  0.2585 -0.8994
 6141TIP3    H239983   0.930   6.849   2.086 -0.4254 -0.0306  0.6378
 6142TIP3   OH239984   5.305   2.045   0.039  0.4746  0.2815 -0.4898
 6142TIP3    H139985   5.398   2.021   0.041  0.1643 -1.1309  2.1041
 6142TIP3    H239986   5.300   2.124   0.094 -0.0835 -0.9865  1.3818
 6143TIP3   OH239987   1.190   3.591   7.982  0.1498 -0.9248 -0.3496
 6143TIP3    H139988   1.158   3.502   7.971  0.1547 -1.2148  1.6659
 6143TIP3    H239989   1.122   3.635   8.034  0.1220  0.2794 -1.3543
 6144TIP3   OH239990   3.637   6.232   0.685 -0.1559 -0.4613  0.1848
 6144TIP3    H139991   3.664   6.314   0.642  1.2920 -2.0323 -2.1738
 6144TIP3    H239992   3.713   6.207   0.737 -0.3564 -0.6369  0.3941
 6145TIP3   OH239993   3.183   1.218   8.306 -0.2369  0.0736 -0.4389
 6145TIP3    H139994   3.186   1.176   8.219 -0.3959 -0.5640 -0.1460
 6145TIP3    H239995   3.273   1.249   8.321  0.7607 -2.9651  0.6603
 6146TIP3   OH239996   2.527   2.127   8.395 -0.5258 -0.1320 -0.5167
 6146TIP3    H139997   2.524   2.134   8.490  0.2726 -0.6493 -0.4358
 6146TIP3    H239998   2.524   2.217   8.364  1.7750  0.2250  0.1236
 6147TIP3   OH239999   0.386   4.921   1.958  0.1453 -0.1837  0.2087
 6147TIP3    H140000   0.470   4.942   1.998  0.0709 -0.2980  0.4229
 6147TIP3    H240001   0.378   4.826   1.968 -1.2875  0.1302  2.7072
 6148TIP3   OH240002   5.157   2.357   8.775  0.6169 -0.2850 -0.2677
 6148TIP3    H140003   5.166   2.364   8.680  0.3691 -3.1997 -0.6190
 6148TIP3    H240004   5.063   2.343   8.789  0.7186 -0.3787  0.3473
 6149TIP3   OH240005   1.842   4.927   2.601 -0.3049  0.0222  0.2265
 6149TIP3    H140006   1.790   4.852   2.571  0.5807 -0.1947 -0.8758
 6149TIP3    H240007   1.931   4.893   2.606  0.0965  0.9679 -0.2124
 6150TIP3   OH240008   1.797   2.181   8.588 -0.4299 -0.4351  0.2513
 6150TIP3    H140009   1.890   2.184   8.564 -0.4102  2.4872  0.3607
 6150TIP3    H240010   1.791   2.110   8.652  1.2209 -2.2995 -1.4830
 6151TIP3   OH240011   6.170   3.609   1.762 -0.3866 -0.0960  0.3641
 6151TIP3    H140012   6.155   3.615   1.668  1.5443  2.4444  0.0930
 6151TIP3    H240013   6.234   3.539   1.772 -1.0293 -0.7608 -0.1264
 6152TIP3   OH240014   1.908   4.891   0.590  0.0610  0.8078  0.5631
 6152TIP3    H140015   1.902   4.875   0.685  0.7842 -0.6967  0.3802
 6152TIP3    H240016   1.848   4.827   0.552  0.2007  1.0271 -0.0283
 6153TIP3   OH240017   6.690   2.829   8.569 -0.7695 -0.2252 -0.2168
 6153TIP3    H140018   6.721   2.830   8.478 -0.2067  1.6683 -0.0514
 6153TIP3    H240019   6.744   2.763   8.612  1.4761  1.2989 -0.5067
 6154TIP3   OH240020   3.286   0.095   0.243 -0.1474  0.0749 -0.3432
 6154TIP3    H140021   3.240   0.177   0.261 -0.1136  0.6015 -2.4064
 6154TIP3    H240022   3.219   0.036   0.210  0.3482  0.3418 -1.8951
 6155TIP3   OH240023   5.869   3.617   7.342  0.4791  0.1972 -0.1662
 6155TIP3    H140024   5.785   3.616   7.296  0.3521  0.5139  0.0606
 6155TIP3    H240025   5.847   3.600   7.433  0.5642  1.2290  0.0510
 6156TIP3   OH240026   6.663   1.997   8.190  0.1389  0.6322 -0.1790
 6156TIP3    H140027   6.668   1.912   8.234  0.1136  0.5264 -0.3843
 6156TIP3    H240028   6.686   2.060   8.259 -0.7632  0.5379  0.2124
 6157TIP3   OH240029   0.325   0.150   8.138  0.1893 -0.3065 -0.0521
 6157TIP3    H140030   0.249   0.191   8.096 -2.4348 -3.8324  0.8258
 6157TIP3    H240031   0.323   0.185   8.228 -0.2245 -0.1782 -0.1072
 6158TIP3   OH240032   1.885   0.349   8.431  0.6582 -0.7146 -0.1262
 6158TIP3    H140033   1.901   0.287   8.502  0.3763 -0.9226 -0.2422
 6158TIP3    H240034   1.831   0.300   8.368 -2.3536  0.5564  1.2477
 6159TIP3   OH240035   5.174   4.786   0.825 -0.7410 -0.2266  0.1683
 6159TIP3    H140036   5.209   4.717   0.769  0.8256  0.5233  0.1603
 6159TIP3    H240037   5.177   4.750   0.913  0.8899  0.0996  0.2699
 6160TIP3   OH240038   3.570   5.574   0.947  0.0707 -0.6739 -0.3191
 6160TIP3    H140039   3.578   5.479   0.937  0.5607 -0.5971 -0.6830
 6160TIP3    H240040   3.530   5.604   0.866  1.2868 -0.4050 -0.8469
 6161TIP3   OH240041   2.987   1.230   2.172  0.4910 -0.0159 -0.4737
 6161TIP3    H140042   2.909   1.268   2.132  0.2980  0.2799  0.1735
 6161TIP3    H240043   3.035   1.305   2.207  1.3945 -0.1285 -1.4203
 6162TIP3   OH240044   6.655   4.025   7.128 -0.1944  0.5321  0.0287
 6162TIP3    H140045   6.724   4.090   7.138 -0.7537  0.9472  1.5134
 6162TIP3    H240046   6.701   3.942   7.114  0.5372  1.0837 -0.9524
 6163TIP3   OH240047   4.971   5.455   0.845 -0.4644 -0.6769 -0.5299
 6163TIP3    H140048   5.009   5.508   0.775  0.0028 -0.2613  0.0252
 6163TIP3    H240049   4.916   5.516   0.894  1.9440 -0.0244  1.5755
 6164TIP3   OH240050   3.895   5.053   0.730  0.5059  0.1201 -0.4335
 6164TIP3    H140051   3.957   5.126   0.736  0.1188  0.3481  2.4091
 6164TIP3    H240052   3.809   5.094   0.735  0.2569 -0.4298 -0.0019
 6165TIP3   OH240053   2.899   2.481   7.303  0.0402  0.8743  0.2773
 6165TIP3    H140054   2.912   2.548   7.237 -4.0674 -0.6479 -2.4990
 6165TIP3    H240055   2.839   2.521   7.366  1.7387  1.4018  1.6201
 6166TIP3   OH240056   5.923   4.916   7.948  0.2022 -0.1096 -0.1656
 6166TIP3    H140057   6.018   4.924   7.943  0.2343 -0.7209 -0.6383
 6166TIP3    H240058   5.900   4.862   7.872 -0.4716 -0.3930  0.2362
 6167TIP3   OH240059   3.252   2.272   6.758 -0.5365 -0.5167  0.5569
 6167TIP3    H140060   3.336   2.304   6.723 -0.3729  0.4849  1.7889
 6167TIP3    H240061   3.229   2.199   6.701  2.0471 -1.9845  1.2571
 6168TIP3   OH240062   0.720   3.023   1.132  0.7664  0.2740  0.3665
 6168TIP3    H140063   0.634   2.986   1.150  1.4686 -1.2886  0.6182
 6168TIP3    H240064   0.781   2.949   1.137  1.9987  1.1433 -0.8637
 6169TIP3   OH240065   0.177   2.972   8.312 -0.0812 -0.1468  0.0053
 6169TIP3    H140066   0.098   2.919   8.320 -1.5680  1.9075 -0.1347
 6169TIP3    H240067   0.226   2.955   8.393 -2.1363  0.7163  1.4945
 6170TIP3   OH240068   0.548   6.329   8.413  0.3019  0.2305 -0.2808
 6170TIP3    H140069   0.479   6.315   8.348  0.8774  2.9642 -1.6619
 6170TIP3    H240070   0.570   6.242   8.445 -2.3877 -0.8874 -1.2527
 6171TIP3   OH240071   5.261   3.386   8.881 -0.5216  0.1499  0.0460
 6171TIP3    H140072   5.337   3.440   8.859  0.1145 -1.2531 -1.4331
 6171TIP3    H240073   5.242   3.338   8.801 -1.6253 -1.1283  1.0306
 6172TIP3   OH240074   6.704   0.599   3.049 -1.0414  0.2350  0.4005
 6172TIP3    H140075   6.797   0.583   3.033 -1.2516 -1.2508  0.5871
 6172TIP3    H240076   6.702   0.655   3.126 -0.3007  0.5203  0.2233
 6173TIP3   OH240077   6.336   4.274   0.229 -0.3822 -0.3512 -0.1121
 6173TIP3    H140078   6.405   4.274   0.162  0.1212 -0.4707  0.3970
 6173TIP3    H240079   6.332   4.183   0.260  0.5524  0.0059  1.1750
 6174TIP3   OH240080   3.828   0.826   7.679  0.1580  0.2114  0.7760
 6174TIP3    H140081   3.882   0.761   7.634 -0.1919  0.2584  0.2798
 6174TIP3    H240082   3.842   0.907   7.629  1.2005  0.7240  1.8414
 6175TIP3   OH240083   2.729   5.012   8.480  0.4184 -0.4451 -0.2137
 6175TIP3    H140084   2.681   4.967   8.549 -1.3899  1.6477  0.0132
 6175TIP3    H240085   2.664   5.026   8.411  0.7970  1.9467 -0.1638
 6176TIP3   OH240086   1.271   6.694   1.981 -0.1420  0.0483 -0.1999
 6176TIP3    H140087   1.342   6.633   1.961 -0.2713 -0.2872  0.3306
 6176TIP3    H240088   1.213   6.645   2.039  0.5270  1.1491  1.4795
 6177TIP3   OH240089   1.091   1.102   0.391 -0.3232  0.5151 -0.3823
 6177TIP3    H140090   1.148   1.050   0.448 -0.2880 -1.7194 -2.2981
 6177TIP3    H240091   1.014   1.046   0.376 -1.5979  2.1756 -0.3583
 6178TIP3   OH240092   5.475   6.505   8.558 -0.0575 -0.2061 -0.1900
 6178TIP3    H140093   5.409   6.565   8.523  0.5344  0.6162  0.0562
 6178TIP3    H240094   5.520   6.471   8.481  0.4709  0.6976 -0.3021
 6179TIP3   OH240095   3.715   5.629   2.631 -0.1514  0.4307  0.6062
 6179TIP3    H140096   3.621   5.612   2.634  0.1808 -1.7836  0.0580
 6179TIP3    H240097   3.722   5.718   2.596 -2.0292  0.0448 -0.9452
 6180TIP3   OH240098   4.009   1.854   0.486  0.0570  0.0081  0.2457
 6180TIP3    H140099   3.970   1.847   0.399  1.1919  0.2980 -0.3106
 6180TIP3    H240100   4.081   1.917   0.475  0.1939  0.0778  1.4012
 6181TIP3   OH240101   1.015   1.950   7.611  0.4016  0.0876  0.6619
 6181TIP3    H140102   1.103   1.970   7.580 -0.1639  1.8764  0.0801
 6181TIP3    H240103   1.001   1.858   7.589  1.8768 -0.0365  0.1851
 6182TIP3   OH240104   6.680   6.050   1.692  0.2869 -0.1999  0.0291
 6182TIP3    H140105   6.768   6.085   1.707 -0.2367  0.7701  1.0037
 6182TIP3    H240106   6.681   5.964   1.735  1.1708 -0.8189 -1.1881
 6183TIP3   OH240107   4.434   0.278   7.691 -0.1617 -0.2982  0.0542
 6183TIP3    H140108   4.491   0.202   7.707 -0.3424 -0.2256  1.0914
 6183TIP3    H240109   4.346   0.242   7.687 -0.5975  0.1163  3.3546
 6184TIP3   OH240110   6.617   5.434   0.164 -0.1708  0.2167 -0.0158
 6184TIP3    H140111   6.645   5.519   0.130 -0.7131  0.6135  0.5059
 6184TIP3    H240112   6.526   5.426   0.138 -0.6312  0.5673  1.3674
 6185TIP3   OH240113   6.556   3.114   8.584  0.2342 -0.0482 -0.0605
 6185TIP3    H140114   6.467   3.134   8.555 -0.0918  0.8365  1.4488
 6185TIP3    H240115   6.546   3.043   8.647  0.8235 -1.2347 -1.2551
 6186TIP3   OH240116   6.669   0.235   2.770 -0.5866  0.0342  0.1993
 6186TIP3    H140117   6.758   0.249   2.802 -0.0932 -0.3459 -0.9280
 6186TIP3    H240118   6.613   0.272   2.837  0.4412  0.7943  0.6713
 6187TIP3   OH240119   1.044   2.481   0.962 -0.1128  0.2318 -0.5341
 6187TIP3    H140120   0.967   2.447   0.915  0.4686  0.8421 -2.0107
 6187TIP3    H240121   1.098   2.521   0.893  0.9225  0.9453  0.6463
 6188TIP3   OH240122   6.378   0.867   2.147  0.3289 -0.1476  0.2871
 6188TIP3    H140123   6.425   0.877   2.230  2.3914 -0.8817 -0.7262
 6188TIP3    H240124   6.292   0.835   2.173  1.1307 -1.0211  2.1180
 6189TIP3   OH240125   6.464   5.558   2.696 -0.2939 -0.2711  0.3811
 6189TIP3    H140126   6.404   5.487   2.720  0.2498 -0.7866  0.2406
 6189TIP3    H240127   6.529   5.558   2.766 -1.3885  1.4263  1.4681
 6190TIP3   OH240128   0.936   5.842   8.549  0.1714 -0.2375  0.1589
 6190TIP3    H140129   0.911   5.934   8.540 -0.7376 -0.5935 -1.6109
 6190TIP3    H240130   0.959   5.832   8.641  1.4448  2.0224  0.1687
 6191TIP3   OH240131   1.087   3.141   0.825 -0.1577  0.0965 -0.0679
 6191TIP3    H140132   1.113   3.112   0.738 -3.0789 -0.1337 -0.9583
 6191TIP3    H240133   1.069   3.060   0.874  2.0769  0.1904  1.0549
 6192TIP3   OH240134   6.770   1.775   0.954 -0.1954  0.3455 -1.0643
 6192TIP3    H140135   6.822   1.742   1.027 -1.6566  1.1995  0.4370
 6192TIP3    H240136   6.816   1.745   0.876  0.7565 -1.6753  0.1938
 6193TIP3   OH240137   5.403   2.450   0.029  0.3487  0.1842 -0.3368
 6193TIP3    H140138   5.459   2.458  -0.049  0.9105 -2.4169 -0.2913
 6193TIP3    H240139   5.314   2.441  -0.007  0.0275  2.9219 -0.4543
 6194TIP3   OH240140   4.053   1.058   2.866 -0.2802 -0.1414  0.8390
 6194TIP3    H140141   3.985   1.002   2.829  1.1733 -0.5087 -1.4939
 6194TIP3    H240142   4.131   1.003   2.866  1.4247  2.0084 -2.4117
 6195TIP3   OH240143   4.810   4.108   8.675 -0.1608  0.3880 -0.3167
 6195TIP3    H140144   4.730   4.063   8.700 -0.4089 -0.0718 -1.8458
 6195TIP3    H240145   4.803   4.195   8.715 -1.0682  0.1029  0.1568
 6196TIP3   OH240146   0.050   0.904   7.418  0.3576 -0.2524 -0.7309
 6196TIP3    H140147  -0.007   0.953   7.359 -0.9520  0.1615  0.8055
 6196TIP3    H240148   0.001   0.824   7.438 -0.4179  0.7245  1.6916
 6197TIP3   OH240149   1.268   2.259   1.764  0.7057  0.2176 -0.3488
 6197TIP3    H140150   1.201   2.278   1.698  0.0152  0.7866  0.5063
 6197TIP3    H240151   1.311   2.179   1.732 -0.8473 -0.5727 -0.5403
 6198TIP3   OH240152   6.659   3.781   7.315 -0.1929  0.6142  0.4988
 6198TIP3    H140153   6.619   3.867   7.302 -2.3009 -0.0837  1.8530
 6198TIP3    H240154   6.626   3.728   7.243  0.6049  0.7391  0.0233
 6199TIP3   OH240155   0.948   1.172   2.981  0.3037  0.1273 -0.1592
 6199TIP3    H140156   0.880   1.236   3.003  0.1816  0.3195 -1.0772
 6199TIP3    H240157   0.900   1.093   2.957  0.4199  0.1016 -0.3088
 6200TIP3   OH240158   5.881   0.581   0.246 -0.1238  0.1781 -0.0684
 6200TIP3    H140159   5.964   0.553   0.207 -0.5126 -0.9284 -0.1307
 6200TIP3    H240160   5.906   0.652   0.306  0.9528 -0.5071  0.3270
 6201TIP3   OH240161   3.378   4.038   8.540  0.1690 -0.1597 -0.0050
 6201TIP3    H140162   3.395   3.984   8.617 -1.6009  0.1864  0.6998
 6201TIP3    H240163   3.338   4.117   8.576  2.5193  1.5674 -1.0341
 6202TIP3   OH240164   6.735   5.560   7.470  0.1055  0.2685 -0.5640
 6202TIP3    H140165   6.755   5.600   7.385 -1.5956  1.8145 -0.2924
 6202TIP3    H240166   6.714   5.469   7.449  1.7051  0.0805 -1.5141
 6203TIP3   OH240167   3.872   1.467   0.077  0.3706 -0.2126  0.0491
 6203TIP3    H140168   3.849   1.426  -0.007  0.2774 -0.9284  0.4142
 6203TIP3    H240169   3.901   1.555   0.054 -1.0261  0.1087 -0.6003
 6204TIP3   OH240170   6.600   6.551   1.179 -0.0683  0.4591  0.7677
 6204TIP3    H140171   6.656   6.626   1.195 -1.3328  1.2323  1.7377
 6204TIP3    H240172   6.528   6.560   1.241 -1.0102 -0.7679 -0.0790
 6205TIP3   OH240173   1.668   1.856   7.808  0.5193  0.5460 -0.1912
 6205TIP3    H140174   1.695   1.895   7.891 -1.5188  0.1904  0.6966
 6205TIP3    H240175   1.673   1.927   7.745 -1.5658  1.8944  1.0618
 6206TIP3   OH240176   1.890   5.002   7.144 -0.0683 -0.1593 -0.8048
 6206TIP3    H140177   1.978   5.021   7.175 -0.0624  0.8648 -1.3992
 6206TIP3    H240178   1.894   5.018   7.049 -1.5118  2.4744 -0.5155
 6207TIP3   OH240179   2.369   6.248   8.611 -0.4656 -0.3710  0.1498
 6207TIP3    H140180   2.366   6.225   8.704 -1.2754 -1.9857 -0.2273
 6207TIP3    H240181   2.453   6.213   8.581 -0.8879 -1.2711 -0.0303
 6208TIP3   OH240182   6.253   0.388   7.198 -0.0306  0.1188 -0.2317
 6208TIP3    H140183   6.177   0.426   7.154  0.0279 -1.0675 -1.3975
 6208TIP3    H240184   6.226   0.380   7.290 -0.2834  2.2727 -0.0532
 6209TIP3   OH240185   3.834   5.637   0.602 -0.0721 -0.1241  0.6829
 6209TIP3    H140186   3.926   5.643   0.576 -0.0573 -0.9186  0.5359
 6209TIP3    H240187   3.803   5.555   0.563 -0.2713 -0.9561  2.4792
 6210TIP3   OH240188   3.238   5.694   8.562 -0.3785  0.1403  0.5615
 6210TIP3    H140189   3.198   5.608   8.556 -0.4240  0.2216 -0.4317
 6210TIP3    H240190   3.233   5.716   8.655 -0.9234 -0.6588  0.7328
 6211TIP3   OH240191   5.097   3.434   2.909 -0.0277  0.4776 -0.1696
 6211TIP3    H140192   5.168   3.453   2.847  0.8306  1.7917  1.1499
 6211TIP3    H240193   5.142   3.405   2.989 -1.1189 -1.6044 -0.2214
 6212TIP3   OH240194   2.754   5.724   2.154  0.4248 -0.0069 -0.1758
 6212TIP3    H140195   2.680   5.692   2.205  0.8378 -0.3538  0.2159
 6212TIP3    H240196   2.774   5.653   2.093 -1.1862  1.0921 -2.0636
 6213TIP3   OH240197   0.671   3.368   7.733 -0.0652 -0.0294 -0.1040
 6213TIP3    H140198   0.708   3.300   7.789 -0.5076 -1.9230 -1.9837
 6213TIP3    H240199   0.655   3.442   7.792  0.5843 -1.4763  1.9936
 6214TIP3   OH240200   0.014   1.015   8.170  0.2980  0.0013  0.1407
 6214TIP3    H140201   0.020   1.045   8.260  2.3521  0.8264 -0.2036
 6214TIP3    H240202  -0.010   0.922   8.176  0.7630 -0.0396  1.5478
 6215TIP3   OH240203   0.150   5.652   1.948  0.1658  0.4289  0.5185
 6215TIP3    H140204   0.221   5.624   2.005 -0.7027  0.1619  1.4842
 6215TIP3    H240205   0.077   5.670   2.007 -1.0803 -0.8447 -0.5594
 6216TIP3   OH240206   3.340   2.843   0.363 -0.3361  0.6243  0.8263
 6216TIP3    H140207   3.302   2.851   0.450 -1.2967  2.5300  0.2890
 6216TIP3    H240208   3.264   2.834   0.305  0.2871 -0.5012  0.1452
 6217TIP3   OH240209   0.310   0.227   0.044 -0.3498  0.5468 -0.5145
 6217TIP3    H140210   0.229   0.251   0.088  0.2259  0.6522  0.5233
 6217TIP3    H240211   0.284   0.166  -0.025 -1.5661  2.2590 -1.6567
 6218TIP3   OH240212   2.170   6.048   1.997 -0.2685  0.0110 -0.0445
 6218TIP3    H140213   2.155   5.975   2.057  2.4693  0.2805  1.1193
 6218TIP3    H240214   2.164   6.009   1.910 -0.3437 -1.2831  0.5213
 6219TIP3   OH240215   6.519   5.234   7.582 -0.1958 -0.5106  0.4546
 6219TIP3    H140216   6.544   5.147   7.615  2.9015  0.1232  0.1196
 6219TIP3    H240217   6.593   5.261   7.528 -1.7303  1.7491 -0.6897
 6220TIP3   OH240218   4.131   5.140   1.675  0.1191 -0.4085 -0.6056
 6220TIP3    H140219   4.128   5.235   1.666 -1.5667 -0.4623 -0.9040
 6220TIP3    H240220   4.041   5.114   1.692  0.8377 -1.7720  1.5968
 6221TIP3   OH240221   5.211   4.494   1.526  0.7021 -0.1313 -0.0903
 6221TIP3    H140222   5.136   4.440   1.500  0.7032  0.2461 -0.8974
 6221TIP3    H240223   5.284   4.460   1.474  0.3390  1.7578 -1.9584
 6222TIP3   OH240224   6.627   5.808   1.791  0.7838 -0.2572 -0.1017
 6222TIP3    H140225   6.624   5.789   1.885  0.5323 -0.0019 -0.0551
 6222TIP3    H240226   6.536   5.822   1.767  0.8642 -0.1543 -0.3485
 6223TIP3   OH240227   3.094   5.428   0.366  0.1665 -0.2524  0.2166
 6223TIP3    H140228   3.072   5.518   0.391 -1.8680 -0.1156 -1.6956
 6223TIP3    H240229   3.147   5.438   0.287 -2.6644 -0.6022 -1.9091
 6224TIP3   OH240230   4.786   3.521   8.845 -0.1670  0.1955  0.2177
 6224TIP3    H140231   4.817   3.587   8.907  1.6022  0.2942 -0.7029
 6224TIP3    H240232   4.700   3.552   8.818  0.2446  1.6582  0.4918
 6225TIP3   OH240233   0.436   0.178   2.812  0.0968  0.7691  0.4600
 6225TIP3    H140234   0.380   0.105   2.838  0.0339  0.6976  0.1324
 6225TIP3    H240235   0.378   0.254   2.816 -0.8784  0.3245 -2.6400
 6226TIP3   OH240236   6.557   0.405   2.932  0.5132 -0.2705 -0.1172
 6226TIP3    H140237   6.585   0.493   2.953  0.7589  0.1925 -2.1875
 6226TIP3    H240238   6.475   0.416   2.883  0.6107 -1.1784 -0.5144
 6227TIP3   OH240239   0.590   3.069   7.503 -0.5889 -0.1641 -0.1623
 6227TIP3    H140240   0.516   3.129   7.498  0.0751  0.7407  0.6495
 6227TIP3    H240241   0.663   3.116   7.462  0.1282 -0.1003  1.1461
 6228TIP3   OH240242   5.098   2.287   7.681 -0.4877  0.1241 -0.4570
 6228TIP3    H140243   5.180   2.238   7.689 -0.0225  0.9444 -0.1282
 6228TIP3    H240244   5.107   2.336   7.599 -0.6518  0.2119 -0.4224
 6229TIP3   OH240245   0.733   5.868   1.454 -0.1196  0.3871 -0.3502
 6229TIP3    H140246   0.699   5.781   1.475 -0.5419  0.2257 -1.6105
 6229TIP3    H240247   0.827   5.862   1.473  0.8865 -1.8932 -4.6641
 6230TIP3   OH240248   5.744   3.592   8.286 -0.3769 -0.4398  0.5528
 6230TIP3    H140249   5.731   3.517   8.343 -4.0697  1.1115  2.0259
 6230TIP3    H240250   5.695   3.571   8.207 -1.1644  0.2680  0.8460
 6231TIP3   OH240251   0.818   6.320   0.655  0.7378  0.5513  0.2715
 6231TIP3    H140252   0.776   6.348   0.573 -0.2754 -1.7615 -0.0773
 6231TIP3    H240253   0.911   6.342   0.643  0.5266  0.7294 -1.2752
 6232TIP3   OH240254   6.239   0.765   8.755 -0.3466  0.4336  0.7371
 6232TIP3    H140255   6.251   0.795   8.665  2.8128 -0.5396  0.7014
 6232TIP3    H240256   6.253   0.844   8.808  1.6681  0.3354  0.4368
 6233TIP3   OH240257   4.273   0.039   7.762 -1.0568 -0.2904  0.7295
 6233TIP3    H140258   4.201   0.060   7.820 -0.2812  2.1822  0.8984
 6233TIP3    H240259   4.232   0.012   7.680 -2.1629  0.5458  0.9973
 6234TIP3   OH240260   1.188   3.713   8.720  0.6344 -0.9789  0.6567
 6234TIP3    H140261   1.100   3.677   8.726  0.8790 -1.9374 -0.8319
 6234TIP3    H240262   1.246   3.638   8.733  1.2155 -0.5725  0.4844
 6235TIP3   OH240263   5.579   4.065   0.536  0.1230  0.2746  0.1910
 6235TIP3    H140264   5.525   4.092   0.461 -0.5460  1.1191  0.9448
 6235TIP3    H240265   5.549   4.121   0.607 -0.3919 -1.5962  1.5275
 6236TIP3   OH240266   3.338   1.633   7.611 -0.5791  0.0435 -0.3508
 6236TIP3    H140267   3.345   1.659   7.703  1.2368 -0.7389 -0.2401
 6236TIP3    H240268   3.414   1.672   7.569 -1.3190  0.2869 -1.5286
 6237TIP3   OH240269   2.492   5.905   1.154  0.2746 -0.1264  0.1206
 6237TIP3    H140270   2.553   5.905   1.228  0.6189  1.5230 -0.1370
 6237TIP3    H240271   2.472   5.997   1.139 -0.8665 -0.5298 -0.9802
 6238TIP3   OH240272   2.382   2.425   1.577  0.0970 -0.1672  0.5598
 6238TIP3    H140273   2.403   2.516   1.557  0.8804 -0.6978 -1.1843
 6238TIP3    H240274   2.430   2.407   1.658 -1.3852  1.3954  1.8990
 6239TIP3   OH240275   2.336   1.417   1.137  0.5638 -0.0569 -0.1486
 6239TIP3    H140276   2.309   1.327   1.125 -1.2707  0.5048 -0.4482
 6239TIP3    H240277   2.368   1.445   1.051 -1.0190  0.2333 -0.6811
 6240TIP3   OH240278   5.323   5.740   6.893 -1.3059 -0.1264 -0.5996
 6240TIP3    H140279   5.400   5.778   6.935 -0.9809 -1.0841 -0.3017
 6240TIP3    H240280   5.257   5.809   6.896 -0.1742  1.0754 -1.7416
 6241TIP3   OH240281   2.449   5.899   1.547 -0.8706  0.6136 -0.2190
 6241TIP3    H140282   2.428   5.805   1.543  2.6078 -0.2502 -1.6621
 6241TIP3    H240283   2.400   5.937   1.475 -0.7318 -0.4976 -0.9303
 6242TIP3   OH240284   4.174   4.572   8.513 -0.3537 -0.3103  0.0310
 6242TIP3    H140285   4.139   4.557   8.601 -2.1879 -1.4781 -0.8317
 6242TIP3    H240286   4.159   4.665   8.497  0.6603  0.0782  1.1939
 6243TIP3   OH240287   0.273   0.850   7.982 -0.5368 -0.0303  0.0729
 6243TIP3    H140288   0.362   0.875   7.961 -0.7764 -1.1554 -2.6328
 6243TIP3    H240289   0.282   0.773   8.038  0.1755  0.1541  0.2127
 6244TIP3   OH240290   1.354   0.456   2.246  0.1572 -0.0970 -0.5309
 6244TIP3    H140291   1.294   0.392   2.210  0.9329 -0.8516 -0.4992
 6244TIP3    H240292   1.387   0.416   2.326 -1.9655  1.7579  1.4370
 6245TIP3   OH240293   0.078   2.536   0.098 -0.3481 -0.0068  0.0407
 6245TIP3    H140294   0.166   2.503   0.119 -0.1223  1.0410  0.8501
 6245TIP3    H240295   0.035   2.463   0.053  0.1565 -1.3868  1.6784
 6246TIP3   OH240296   1.658   4.511   0.734 -0.0020 -0.0617 -0.1288
 6246TIP3    H140297   1.707   4.455   0.795  0.3393 -1.1856 -1.3811
 6246TIP3    H240298   1.593   4.554   0.788  0.1628 -1.1772  1.0058
 6247TIP3   OH240299   3.059   1.578   1.108 -0.5062  0.1994  0.2621
 6247TIP3    H140300   3.153   1.558   1.108  0.0514  2.4124 -1.9752
 6247TIP3    H240301   3.038   1.589   1.201  1.5298  0.0462  0.8024
 6248TIP3   OH240302   0.019   0.740   8.174  0.1736  0.3282 -0.1852
 6248TIP3    H140303  -0.057   0.698   8.214  0.8381 -0.2792  0.4774
 6248TIP3    H240304   0.014   0.715   8.081  0.3692 -0.9967  0.1295
 6249TIP3   OH240305   6.553   0.952   0.269 -0.1601  0.4831 -0.3077
 6249TIP3    H140306   6.542   1.019   0.201 -2.3539  1.1173  0.5747
 6249TIP3    H240307   6.498   0.879   0.239 -2.6053  1.4345  1.4825
 6250TIP3   OH240308   1.608   5.088   2.510 -0.4677  0.5358 -0.2213
 6250TIP3    H140309   1.548   5.026   2.469 -0.6073 -0.1547  0.9620
 6250TIP3    H240310   1.686   5.035   2.531 -0.5496  0.7561  0.7135
 6251TIP3   OH240311   0.890   5.559   1.732  0.3536 -0.1414  0.0466
 6251TIP3    H140312   0.797   5.574   1.717  0.5300 -0.1601 -1.1625
 6251TIP3    H240313   0.932   5.579   1.648  1.0745 -3.2879 -0.4735
 6252TIP3   OH240314   4.457   0.646   2.259  0.1993  0.4921 -0.4540
 6252TIP3    H140315   4.531   0.597   2.296  0.4971  1.7360  0.6509
 6252TIP3    H240316   4.478   0.738   2.275 -1.9659  0.8636  0.6570
 6253TIP3   OH240317   5.076   3.426   8.330  0.1809 -0.1296 -0.2314
 6253TIP3    H140318   5.034   3.344   8.357  1.5331 -0.4076  1.2050
 6253TIP3    H240319   5.153   3.398   8.280  0.9440  0.2122  0.7176
 6254TIP3   OH240320   3.574   0.578   0.946 -0.4034  0.4104  0.1019
 6254TIP3    H140321   3.590   0.656   0.893 -1.2223  0.2952 -0.3427
 6254TIP3    H240322   3.480   0.579   0.962 -0.3396 -0.1925  0.5569
 6255TIP3   OH240323   6.686   2.482   8.310 -0.2878 -0.3307  0.1346
 6255TIP3    H140324   6.772   2.468   8.349 -0.8704 -3.0626  0.6123
 6255TIP3    H240325   6.698   2.464   8.217 -0.7204 -3.0719  0.5277
 6256TIP3   OH240326   2.219   1.733   1.637 -0.1396  0.0923  0.6135
 6256TIP3    H140327   2.185   1.708   1.551 -0.6730 -1.6939  1.3017
 6256TIP3    H240328   2.169   1.812   1.660 -0.2333  0.3873 -0.5519
 6257TIP3   OH240329   3.154   2.056   8.223 -0.3101 -0.2555  0.2075
 6257TIP3    H140330   3.204   1.978   8.246 -0.9575 -0.4400  1.0452
 6257TIP3    H240331   3.219   2.118   8.192 -0.0139 -1.9883 -3.0213
 6258TIP3   OH240332   6.419   1.992   7.630  0.0623  0.1937  0.0407
 6258TIP3    H140333   6.369   2.057   7.679 -1.3971 -0.8096 -0.0614
 6258TIP3    H240334   6.490   2.043   7.589 -0.0262  1.4112  1.3155
 6259TIP3   OH240335   0.124   5.728   8.222  0.1878 -0.2260  0.1549
 6259TIP3    H140336   0.215   5.746   8.197 -0.4009  2.7011 -0.2213
 6259TIP3    H240337   0.080   5.709   8.140  0.7078 -3.5512  0.5030
 6260TIP3   OH240338   2.322   3.482   7.785 -0.0727 -0.0420  0.3826
 6260TIP3    H140339   2.411   3.491   7.751  0.8027 -1.0282  2.2187
 6260TIP3    H240340   2.276   3.430   7.720  1.4362 -1.6464  0.5298
 6261TIP3   OH240341   1.153   0.274   1.058 -0.5352  0.2628 -0.4278
 6261TIP3    H140342   1.058   0.258   1.056 -0.3968 -0.5271 -1.0962
 6261TIP3    H240343   1.183   0.224   1.135 -0.8564  1.7686  0.7246
 6262TIP3   OH240344   4.134   1.934   7.830  0.0441 -1.1616 -0.0249
 6262TIP3    H140345   4.169   1.922   7.918 -0.8543 -2.6889  0.1681
 6262TIP3    H240346   4.179   1.867   7.777  1.1421  0.2332 -0.9312
 6263TIP3   OH240347   1.328   3.368   7.369  0.2900 -0.4968  0.5771
 6263TIP3    H140348   1.348   3.360   7.275  0.0341  1.6635  0.2877
 6263TIP3    H240349   1.414   3.379   7.410  0.3056  0.3682  0.3450
 6264TIP3   OH240350   1.075   2.199   0.180  0.8429  0.8281  0.4405
 6264TIP3    H140351   1.129   2.267   0.139  1.1820 -0.3341 -1.1363
 6264TIP3    H240352   1.065   2.132   0.112 -2.2610  0.7861  0.7982
 6265TIP3   OH240353   6.263   1.209   7.851 -0.1631 -0.0924 -0.0006
 6265TIP3    H140354   6.253   1.117   7.874  0.0589 -0.1644 -0.1953
 6265TIP3    H240355   6.230   1.215   7.761  4.2660 -0.9440 -1.9224
 6266TIP3   OH240356   3.683   2.243   7.284  0.2952 -0.1178 -0.0403
 6266TIP3    H140357   3.614   2.290   7.237 -0.6207 -0.0575  1.3288
 6266TIP3    H240358   3.726   2.310   7.337  1.6058 -0.1060 -1.0381
 6267TIP3   OH240359   3.133   1.036   0.358  0.1847 -0.0061  0.3725
 6267TIP3    H140360   3.060   0.997   0.310  1.1289 -2.1238  0.5461
 6267TIP3    H240361   3.153   0.974   0.428  0.6861  1.6382  1.7814
 6268TIP3   OH240362   5.504   1.883   0.992  0.4393 -0.0589 -0.2565
 6268TIP3    H140363   5.430   1.942   0.981  0.2009 -0.4600 -0.8375
 6268TIP3    H240364   5.578   1.942   1.010  0.2523  0.4447 -1.0539
 6269TIP3   OH240365   4.757   1.416   0.029  0.5177  0.0114 -0.2690
 6269TIP3    H140366   4.767   1.442   0.121 -1.3920  1.0904 -0.3129
 6269TIP3    H240367   4.737   1.497  -0.017 -0.6683 -0.8062 -1.2683
 6270TIP3   OH240368   3.316   4.507   0.070 -0.1711 -0.2486 -0.2163
 6270TIP3    H140369   3.378   4.493  -0.002 -0.6273 -0.0466 -0.6526
 6270TIP3    H240370   3.244   4.556   0.031 -0.5779 -0.4187  0.3050
 6271TIP3   OH240371   3.766   2.431   8.880 -0.9204  1.1462  0.1189
 6271TIP3    H140372   3.776   2.503   8.942 -3.0172  1.9258 -0.3611
 6271TIP3    H240373   3.747   2.474   8.797  0.4144  0.0728 -0.7907
 6272TIP3   OH240374   0.893   4.341   2.639 -0.0814 -0.3377  0.4186
 6272TIP3    H140375   0.898   4.390   2.557 -2.4761 -0.9064 -0.1521
 6272TIP3    H240376   0.938   4.396   2.703  3.7028 -0.8123 -1.5917
 6273TIP3   OH240377   2.751   2.904   1.775  0.2811 -0.2357  0.6402
 6273TIP3    H140378   2.764   2.823   1.725 -1.4017  0.9563 -1.9403
 6273TIP3    H240379   2.833   2.915   1.824  1.1311 -2.7041 -0.0697
 6274TIP3   OH240380   1.419   2.476   7.838 -0.3347 -0.4178  0.2247
 6274TIP3    H140381   1.488   2.537   7.813 -1.3174  0.6477  0.0367
 6274TIP3    H240382   1.420   2.477   7.934  1.7384 -2.5586  0.2949
 6275TIP3   OH240383   6.780   1.258   0.961  0.0879  0.3764  0.2281
 6275TIP3    H140384   6.754   1.184   0.905 -0.5740 -0.3115  1.4065
 6275TIP3    H240385   6.699   1.309   0.971  0.5678  1.3685 -0.6838
 6276TIP3   OH240386   4.576   1.994   1.404 -0.2230  0.0592 -0.5210
 6276TIP3    H140387   4.533   2.069   1.445  1.0714  0.7490 -0.3741
 6276TIP3    H240388   4.607   1.941   1.478 -0.7886 -0.4254 -0.6256
 6277TIP3   OH240389   0.792   3.029   0.645  0.4824  0.4081 -0.3444
 6277TIP3    H140390   0.874   3.071   0.619  1.1519 -0.5486  0.1968
 6277TIP3    H240391   0.754   3.090   0.708  1.4029  0.2675  0.3690
 6278TIP3   OH240392   0.383   1.901   0.005  0.5795  0.3430  0.1030
 6278TIP3    H140393   0.369   1.995   0.011  1.1634  0.4325  0.0548
 6278TIP3    H240394   0.337   1.865   0.081 -1.4940  0.4538 -1.0382
 6279TIP3   OH240395   0.241   2.890   2.130  0.2865  0.0649 -0.6398
 6279TIP3    H140396   0.223   2.925   2.217  0.1079  0.7948 -0.9686
 6279TIP3    H240397   0.327   2.848   2.138  0.1528 -0.1049 -0.0480
 6280TIP3   OH240398   1.941   6.059   1.647  0.2287 -0.2226 -0.0191
 6280TIP3    H140399   1.892   5.988   1.689 -0.1142 -0.0907 -0.1920
 6280TIP3    H240400   2.030   6.025   1.638  0.5371  0.0763  1.6406
 6281TIP3   OH240401   1.271   4.972   8.327 -0.4752  0.2996  0.0406
 6281TIP3    H140402   1.216   4.919   8.269 -1.6018  1.3027  0.1480
 6281TIP3    H240403   1.355   4.926   8.329 -1.1072 -0.9504 -0.6195
 6282TIP3   OH240404   3.774   6.786   1.060 -0.1452  0.7052 -0.7936
 6282TIP3    H140405   3.740   6.776   0.971  0.1137  0.9032 -0.9149
 6282TIP3    H240406   3.773   6.697   1.096  0.0055  0.5844 -1.0864
 6283TIP3   OH240407   6.100   0.665   2.204 -0.2018 -0.0893  0.2913
 6283TIP3    H140408   6.048   0.624   2.135  1.2254 -0.4220 -0.6261
 6283TIP3    H240409   6.130   0.592   2.258 -0.0575  0.0261  0.3686
 6284TIP3   OH240410   4.094   1.608   0.549  0.0133  0.4614 -0.5803
 6284TIP3    H140411   4.083   1.563   0.465  1.9640  1.0689 -1.2263
 6284TIP3    H240412   4.060   1.696   0.534 -0.5728  0.2745 -0.3942
 6285TIP3   OH240413   5.068   4.881   8.221  0.3696  0.0659 -0.0714
 6285TIP3    H140414   5.089   4.838   8.304 -1.8469 -0.4768  0.2801
 6285TIP3    H240415   5.045   4.810   8.161 -1.2283  0.5723 -0.1265
 6286TIP3   OH240416   3.772   2.867   0.144  0.3791 -0.5090  0.0540
 6286TIP3    H140417   3.808   2.884   0.057  1.4181 -0.6484  0.4426
 6286TIP3    H240418   3.699   2.807   0.128  0.6251 -0.6165 -0.7134
 6287TIP3   OH240419   5.613   1.711   8.142  0.9249  0.3153  0.0332
 6287TIP3    H140420   5.533   1.755   8.113  0.5171 -1.0683 -1.0612
 6287TIP3    H240421   5.590   1.671   8.226  0.5809  0.2164 -0.1086
 6288TIP3   OH240422   4.583   3.945   8.255  0.4405  0.2820  0.2491
 6288TIP3    H140423   4.612   3.934   8.164  0.1961 -0.1602  0.2223
 6288TIP3    H240424   4.651   3.999   8.295  0.7310  0.1818 -0.1023
 6289TIP3   OH240425   2.932   1.091   1.046 -0.0772 -0.1587 -0.0100
 6289TIP3    H140426   2.966   1.168   1.092  0.5349 -0.8272  0.6928
 6289TIP3    H240427   2.907   1.123   0.960  0.6329  0.7246  0.1048
 6290TIP3   OH240428   3.391   4.549   0.484 -0.1613  0.1726  0.2231
 6290TIP3    H140429   3.360   4.621   0.429  0.1257  1.3280  1.5011
 6290TIP3    H240430   3.326   4.541   0.553  0.8152  0.5718  1.2158
 6291TIP3   OH240431   4.169   3.388   7.647  0.1894 -0.6452  1.0351
 6291TIP3    H140432   4.140   3.449   7.580  1.3440  0.8490  1.8253
 6291TIP3    H240433   4.092   3.374   7.703  0.0839  0.6728  1.2466
 6292TIP3   OH240434   0.149   4.082   8.607 -0.1059  0.0583  0.2672
 6292TIP3    H140435   0.173   4.173   8.589  0.3982  0.0236  0.7503
 6292TIP3    H240436   0.058   4.076   8.577 -0.1802  0.7463  0.3195
 6293TIP3   OH240437   3.741   3.922   1.724 -0.6969  0.1886  0.0155
 6293TIP3    H140438   3.782   3.876   1.797 -0.5681 -1.1096 -0.8425
 6293TIP3    H240439   3.735   4.013   1.753 -0.3260 -0.2314  1.4915
 6294TIP3   OH240440   0.329   0.091   1.913 -0.1652 -0.5132 -0.4289
 6294TIP3    H140441   0.417   0.058   1.895  1.0192  2.0033  0.1787
 6294TIP3    H240442   0.311   0.151   1.841 -1.9230 -1.8283 -1.1448
 6295TIP3   OH240443   3.399   2.163   8.168  0.1927  0.2007 -0.1679
 6295TIP3    H140444   3.451   2.141   8.246 -1.9937 -1.2682  0.9741
 6295TIP3    H240445   3.395   2.259   8.169  1.0128  0.2498  0.9830
 6296TIP3   OH240446   6.743   3.934   7.836  0.8567 -0.1043 -0.7027
 6296TIP3    H140447   6.804   3.877   7.790  0.7055  0.1285 -1.1912
 6296TIP3    H240448   6.680   3.960   7.770  0.0795 -0.5363 -0.1456
 6297TIP3   OH240449   5.874   2.685   8.762 -0.2154 -0.3890  0.0653
 6297TIP3    H140450   5.917   2.647   8.839 -0.6785 -0.2455  0.3999
 6297TIP3    H240451   5.941   2.684   8.694  0.4438  0.1927  0.6891
 6298TIP3   OH240452   4.439   5.329   2.670 -0.0972  0.2678 -0.2294
 6298TIP3    H140453   4.411   5.411   2.711  1.4184  1.2034 -0.9904
 6298TIP3    H240454   4.358   5.283   2.650 -0.9518  0.2506  2.7723
 6299TIP3   OH240455   2.612   4.624   1.334  0.3217  0.5105 -0.4691
 6299TIP3    H140456   2.547   4.692   1.351  0.5895  0.2768  1.8683
 6299TIP3    H240457   2.566   4.542   1.355  0.0082 -0.1126 -3.2120
 6300TIP3   OH240458   0.049   5.700   7.955 -0.1709  0.0018  0.2059
 6300TIP3    H140459  -0.002   5.777   7.930  0.9791  0.5315 -0.6094
 6300TIP3    H240460   0.135   5.715   7.916  0.5040 -1.0287  1.2383
 6301TIP3   OH240461   6.426   3.131   7.711 -0.2097 -0.3248  0.2768
 6301TIP3    H140462   6.465   3.150   7.625  1.2308  1.6811  1.2758
 6301TIP3    H240463   6.499   3.099   7.764 -0.3523  1.3593  1.5742
 6302TIP3   OH240464   0.055   4.694   0.652 -0.4460 -0.3187 -0.1553
 6302TIP3    H140465  -0.007   4.667   0.720 -0.9355  1.6275  0.2171
 6302TIP3    H240466   0.090   4.778   0.682  1.3901 -0.7147 -1.0196
 6303TIP3   OH240467   5.502   3.181   1.459 -0.1010 -0.0113 -0.4684
 6303TIP3    H140468   5.594   3.173   1.484  0.5728  2.1519 -1.9656
 6303TIP3    H240469   5.496   3.139   1.373 -0.6898 -0.7086 -0.1040
 6304TIP3   OH240470   2.088   2.478   1.920 -0.6042 -0.1651  0.5604
 6304TIP3    H140471   2.035   2.410   1.961 -1.1098  0.6813  1.3361
 6304TIP3    H240472   2.079   2.461   1.826 -2.7167  0.2717  0.6277
 6305TIP3   OH240473   0.376   4.777   8.074  0.5409 -0.2690  0.3957
 6305TIP3    H140474   0.451   4.826   8.041 -0.2961  0.8845  0.1224
 6305TIP3    H240475   0.315   4.845   8.104 -0.3975 -1.1741  0.5876
 6306TIP3   OH240476   4.912   0.641   2.786  0.1006  0.4268  0.4363
 6306TIP3    H140477   4.839   0.588   2.753  2.3618 -1.9530 -1.1490
 6306TIP3    H240478   4.887   0.664   2.875 -1.7342 -1.9786  0.6234
 6307TIP3   OH240479   6.409   4.721   0.336 -0.4635  0.2819  0.2979
 6307TIP3    H140480   6.443   4.794   0.389  0.1635  1.3879 -1.5513
 6307TIP3    H240481   6.455   4.644   0.370 -1.0116  0.7262  2.1723
 6308TIP3   OH240482   1.158   6.123   0.362 -0.5572 -0.2635 -0.2550
 6308TIP3    H140483   1.152   6.140   0.268 -0.3365 -0.5956 -0.3291
 6308TIP3    H240484   1.070   6.095   0.386 -0.4190 -0.9373 -0.5160
 6309TIP3   OH240485   2.894   2.801   2.665 -0.0745 -0.1605 -0.0603
 6309TIP3    H140486   2.933   2.879   2.625 -0.2861 -0.3435 -0.6425
 6309TIP3    H240487   2.910   2.732   2.601 -0.8326 -0.3602 -0.0450
 6310TIP3   OH240488   3.109   2.829   2.035  0.5574 -0.0738  0.5775
 6310TIP3    H140489   3.125   2.889   2.108 -0.2488  1.2531 -0.2897
 6310TIP3    H240490   3.088   2.886   1.962  0.0103 -1.4334 -0.3605
 6311TIP3   OH240491   3.517   5.444   1.183  0.1630  0.0670 -0.3227
 6311TIP3    H140492   3.504   5.536   1.158  0.2175  0.2208  0.2050
 6311TIP3    H240493   3.429   5.413   1.205 -0.1311 -0.5255 -2.2053
 6312TIP3   OH240494   0.705   4.259   1.177 -0.2744 -0.1196 -0.4350
 6312TIP3    H140495   0.784   4.283   1.226  0.3250  0.8028 -1.7975
 6312TIP3    H240496   0.667   4.186   1.226  3.2856 -3.0299 -1.6007
 6313TIP3   OH240497   3.580   1.663   1.150 -0.3945 -0.5924 -0.7666
 6313TIP3    H140498   3.567   1.694   1.060 -1.0593 -0.0766 -0.4960
 6313TIP3    H240499   3.565   1.739   1.205 -2.9773 -1.5526 -0.0284
 6314TIP3   OH240500   3.346   4.203   2.402 -0.1803  0.4178 -0.0197
 6314TIP3    H140501   3.399   4.206   2.323  1.7673  0.8290  1.2499
 6314TIP3    H240502   3.351   4.112   2.432  2.1218  0.9798  1.5395
 6315TIP3   OH240503   1.748   1.354   1.159  0.0132  0.2086  0.5733
 6315TIP3    H140504   1.703   1.362   1.075 -0.6757  0.7459  0.9874
 6315TIP3    H240505   1.839   1.335   1.136 -0.4955 -1.4196 -0.2791
 6316TIP3   OH240506   5.627   0.448   7.333  0.2106  0.4262  0.0540
 6316TIP3    H140507   5.586   0.399   7.404 -3.0800  0.5416 -1.5583
 6316TIP3    H240508   5.642   0.535   7.370  2.4852 -0.5933  1.7647
 6317TIP3   OH240509   5.181   3.126   8.344 -0.3924 -0.3915  0.3673
 6317TIP3    H140510   5.115   3.131   8.414 -0.6014 -1.1950  0.2370
 6317TIP3    H240511   5.263   3.151   8.387 -0.6184 -0.3005  0.7586
 6318TIP3   OH240512   2.132   4.478   7.345 -0.7263 -0.2137 -0.2707
 6318TIP3    H140513   2.200   4.487   7.412 -0.7609 -1.3704 -0.0523
 6318TIP3    H240514   2.098   4.389   7.358 -0.2272 -0.7598 -2.2730
 6319TIP3   OH240515   0.613   3.184   8.792  0.0864  0.1527 -0.1225
 6319TIP3    H140516   0.618   3.280   8.787  1.5749  0.0721 -0.7564
 6319TIP3    H240517   0.542   3.160   8.732  1.1551  0.7542 -1.6974
 6320TIP3   OH240518   3.335   0.171   8.151 -0.6952  0.3739  0.4983
 6320TIP3    H140519   3.381   0.115   8.213 -0.4067 -1.4034 -1.2428
 6320TIP3    H240520   3.263   0.117   8.119 -0.1925  0.8239 -1.5021
 6321TIP3   OH240521   2.622   2.984   7.357 -0.1555  0.5410 -0.4225
 6321TIP3    H140522   2.586   2.932   7.429 -1.2413  1.6111 -0.1648
 6321TIP3    H240523   2.608   3.075   7.383 -3.6741  1.0910 -3.3623
 6322TIP3   OH240524   3.322   1.368   8.018  0.3505  0.4416  0.1308
 6322TIP3    H140525   3.276   1.422   8.083 -0.3308  0.0526 -0.0164
 6322TIP3    H240526   3.272   1.286   8.016  1.9386 -0.6027  1.0835
 6323TIP3   OH240527   5.490   4.780   7.997 -1.1054  0.1417 -0.2852
 6323TIP3    H140528   5.506   4.780   8.091 -0.0306  2.0209 -0.4284
 6323TIP3    H240529   5.571   4.745   7.960 -0.3415  2.1342 -0.6142
 6324TIP3   OH240530   5.969   2.919   2.970  0.5805 -0.0358  0.4557
 6324TIP3    H140531   6.028   2.852   2.935  0.3360  0.4222 -0.8699
 6324TIP3    H240532   6.028   2.986   3.005  0.9145  0.9730 -1.9077
 6325TIP3   OH240533   4.258   5.303   6.720  0.0846 -0.3452  0.0400
 6325TIP3    H140534   4.215   5.382   6.752  1.9394  0.7235  0.0565
 6325TIP3    H240535   4.263   5.246   6.797 -1.0976 -0.4357  0.0727
 6326TIP3   OH240536   1.526   0.441   1.328 -0.4036  0.1642 -0.0269
 6326TIP3    H140537   1.621   0.437   1.343 -0.4743  0.3722  0.4989
 6326TIP3    H240538   1.518   0.448   1.233  0.0656 -1.0345 -0.1835
 6327TIP3   OH240539   2.524   0.651   1.439 -0.6033  0.1523 -0.3192
 6327TIP3    H140540   2.600   0.597   1.420 -1.3932 -1.2225  0.2660
 6327TIP3    H240541   2.507   0.700   1.358  1.0672  0.7310 -0.3458
 6328TIP3   OH240542   0.924   1.780   7.973  0.0154 -0.0090  0.0908
 6328TIP3    H140543   0.886   1.838   7.907  1.0600  0.7769  0.1537
 6328TIP3    H240544   0.938   1.837   8.049 -1.3788 -0.9465  1.0966
 6329TIP3   OH240545   0.504   0.675   7.786 -0.0476 -0.2791 -0.4507
 6329TIP3    H140546   0.589   0.637   7.762  0.2310  0.0206  0.0333
 6329TIP3    H240547   0.445   0.600   7.794  0.5065 -0.6260  0.5263
 6330TIP3   OH240548   3.399   2.752   8.214  0.2892  0.1967 -0.2743
 6330TIP3    H140549   3.372   2.757   8.306 -0.8571 -1.1205 -0.5061
 6330TIP3    H240550   3.476   2.809   8.209 -0.7030  1.7568  1.0873
 6331TIP3   OH240551   4.713   5.338   2.575  0.2694 -0.4213  0.2949
 6331TIP3    H140552   4.728   5.425   2.612 -0.2335 -0.4366  0.5324
 6331TIP3    H240553   4.622   5.318   2.595 -0.0099 -0.4471 -0.8995
 6332TIP3   OH240554   1.399   5.286   7.260 -0.6286  0.1861 -0.0426
 6332TIP3    H140555   1.476   5.341   7.244 -0.9333  0.8257  0.6324
 6332TIP3    H240556   1.346   5.294   7.181 -0.3798  0.3826 -0.1881
 6333TIP3   OH240557   1.566   1.981   1.303  0.3939 -0.1922 -0.2249
 6333TIP3    H140558   1.536   2.045   1.239  1.3654  0.8168  0.2797
 6333TIP3    H240559   1.625   1.924   1.254  1.3123  0.7120 -0.2255
 6334TIP3   OH240560   5.873   1.213   8.655 -0.2356  0.5299  0.1252
 6334TIP3    H140561   5.941   1.242   8.595  1.4645 -0.9676  1.2489
 6334TIP3    H240562   5.806   1.174   8.599  0.8571  0.0402 -0.8707
 6335TIP3   OH240563   6.588   2.730   1.483 -0.1588 -0.2735  0.9758
 6335TIP3    H140564   6.616   2.750   1.573 -5.3878  0.4185  2.7628
 6335TIP3    H240565   6.509   2.677   1.493 -0.8554 -0.3726 -3.2770
 6336TIP3   OH240566   3.043   2.975   1.819  0.1703  0.0437  0.0409
 6336TIP3    H140567   3.054   2.902   1.758 -0.1218  0.3170 -0.3462
 6336TIP3    H240568   3.006   3.045   1.765  0.3154  0.4294  0.4398
 6337TIP3   OH240569   6.007   2.887   1.542  0.1038  0.2007 -0.1073
 6337TIP3    H140570   5.991   2.811   1.485  1.1902  0.9356 -1.4563
 6337TIP3    H240571   6.051   2.850   1.619 -3.6536 -1.1924  1.6167
 6338TIP3   OH240572   5.436   5.358   7.803 -0.0573  0.2612  0.1933
 6338TIP3    H140573   5.519   5.402   7.819  0.2768 -0.9036  1.9767
 6338TIP3    H240574   5.456   5.289   7.740 -0.1412  1.2824 -0.9786
 6339TIP3   OH240575   4.108   0.184   2.496  0.2466 -0.3962  0.2056
 6339TIP3    H140576   4.164   0.138   2.559  1.6232 -0.1538 -0.7955
 6339TIP3    H240577   4.071   0.257   2.546 -0.5896 -1.5535  1.3480
 6340TIP3   OH240578   0.915   3.213   8.351 -0.5138 -0.7522  0.5482
 6340TIP3    H140579   0.864   3.266   8.412 -0.4806 -1.5997  1.3337
 6340TIP3    H240580   0.968   3.277   8.302  1.5356 -0.1290  3.3030
 6341TIP3   OH240581   0.711   4.255   8.502  0.2624 -0.3108  0.2320
 6341TIP3    H140582   0.697   4.318   8.432 -0.1092  1.8744  2.1374
 6341TIP3    H240583   0.694   4.170   8.462 -1.4638  0.9341 -1.9151
 6342TIP3   OH240584   1.031   4.513   1.577 -0.0578 -0.5092 -0.4087
 6342TIP3    H140585   1.053   4.547   1.663 -0.1559  2.0195 -1.2947
 6342TIP3    H240586   1.076   4.572   1.516 -2.2278 -0.4738 -2.1126
 6343TIP3   OH240587   6.027   1.045   1.623  0.1218  0.5116  0.1058
 6343TIP3    H140588   6.099   1.080   1.571  1.2811 -0.2184  1.1704
 6343TIP3    H240589   6.068   1.013   1.703 -1.6486  1.9898  1.6982
 6344TIP3   OH240590   6.408   5.645   2.418  0.4238 -0.2755 -0.1056
 6344TIP3    H140591   6.327   5.643   2.468  0.9216 -1.2020  0.6954
 6344TIP3    H240592   6.475   5.673   2.481  0.8960 -0.5092 -0.4983
 6345TIP3   OH240593   6.252   4.234   8.841  0.0635  0.0975 -0.6008
 6345TIP3    H140594   6.271   4.262   8.931 -1.3192  1.2809 -0.6401
 6345TIP3    H240595   6.316   4.165   8.824  3.2636  2.7250 -0.2158
 6346TIP3   OH240596   2.454   6.421   7.421 -0.2591  0.3510  0.1978
 6346TIP3    H140597   2.420   6.508   7.404 -1.5749 -0.4378 -1.6085
 6346TIP3    H240598   2.377   6.369   7.445 -0.3001 -1.1877 -2.7214
 6347TIP3   OH240599   6.165   0.944   7.825 -0.2854 -0.1808  0.3128
 6347TIP3    H140600   6.253   0.909   7.807 -0.4037 -0.3649  0.0785
 6347TIP3    H240601   6.120   0.939   7.741 -0.1136  1.1240  0.1257
 6348TIP3   OH240602   5.993   3.052   0.278  0.1217 -0.6295 -0.1627
 6348TIP3    H140603   6.002   3.115   0.349 -1.3293 -0.9744  0.3755
 6348TIP3    H240604   5.915   3.081   0.230  1.4841  0.0376 -2.1200
 6349TIP3   OH240605   4.490   4.492   7.823  0.5958  0.6002 -0.1494
 6349TIP3    H140606   4.559   4.450   7.773 -0.1252  0.2007 -0.8168
 6349TIP3    H240607   4.483   4.580   7.785  0.5800  0.5637 -0.2306
 6350TIP3   OH240608   0.284   0.524   8.561 -0.2594  0.4598 -0.2161
 6350TIP3    H140609   0.367   0.573   8.558 -0.1867  0.3262 -0.4180
 6350TIP3    H240610   0.302   0.449   8.618 -0.5047  0.9114  0.4644
 6351TIP3   OH240611   3.042   2.587   1.353 -0.1512  0.3486 -0.0860
 6351TIP3    H140612   2.973   2.648   1.326 -0.2061  1.0183  1.4716
 6351TIP3    H240613   3.124   2.632   1.331 -0.1981  0.5887  0.2290
 6352TIP3   OH240614   3.089   6.658   8.748  0.4403 -0.7689 -0.2643
 6352TIP3    H140615   3.153   6.587   8.738  0.7622 -0.4636 -0.4063
 6352TIP3    H240616   3.131   6.734   8.706  0.4902 -0.2682  0.6517
 6353TIP3   OH240617   3.386   5.049   0.448  0.4793  0.4819  0.4823
 6353TIP3    H140618   3.347   5.051   0.535  1.2706  1.3735  0.8323
 6353TIP3    H240619   3.322   5.092   0.391  0.0428  0.0623  0.6537
 6354TIP3   OH240620   1.472   4.155   7.892 -0.4815 -0.3768  0.1862
 6354TIP3    H140621   1.528   4.142   7.816  2.4359  1.2437  1.8717
 6354TIP3    H240622   1.443   4.067   7.917 -0.6855 -1.0214 -2.1166
 6355TIP3   OH240623   0.085   0.484   0.981 -0.4873  0.3873 -0.1061
 6355TIP3    H140624   0.163   0.441   1.014 -0.4308  1.2946  1.0224
 6355TIP3    H240625   0.066   0.440   0.898  0.5734 -0.5779  0.1379
 6356TIP3   OH240626   3.625   2.735   2.448 -0.3423  0.1870  0.0105
 6356TIP3    H140627   3.649   2.729   2.355 -0.7369 -0.3316 -0.0625
 6356TIP3    H240628   3.706   2.763   2.492 -0.1539  0.4439 -0.4861
 6357TIP3   OH240629   5.580   0.917   1.568 -0.2087  0.0590  0.5230
 6357TIP3    H140630   5.501   0.967   1.587 -0.4326 -0.5406  1.1888
 6357TIP3    H240631   5.583   0.913   1.473 -1.3208 -0.4473  0.4968
 6358TIP3   OH240632   3.953   5.847   1.384  0.0619 -0.4180  0.0472
 6358TIP3    H140633   3.879   5.791   1.405 -1.1667  1.1276  0.0051
 6358TIP3    H240634   3.915   5.934   1.370  1.5405 -0.0499 -2.4639
 6359TIP3   OH240635   5.778   3.159   7.387  0.3372  0.0155 -0.4556
 6359TIP3    H140636   5.847   3.164   7.321  0.5315 -1.9820 -0.4612
 6359TIP3    H240637   5.719   3.091   7.355 -0.9283  0.7728  0.2030
 6360TIP3   OH240638   0.103   3.678   2.592 -0.0487 -0.1298 -0.3839
 6360TIP3    H140639   0.149   3.727   2.660 -2.9026 -0.7461  2.2261
 6360TIP3    H240640   0.021   3.726   2.578 -1.5006 -2.3136 -0.0659
 6361TIP3   OH240641   6.287   5.038   1.329 -0.4831 -0.1448  0.0049
 6361TIP3    H140642   6.213   4.980   1.347 -1.1888  0.5998 -0.4519
 6361TIP3    H240643   6.284   5.051   1.235 -0.6242  1.0072  0.1557
 6362TIP3   OH240644   6.552   6.566   8.419 -0.1103 -0.2439  0.0661
 6362TIP3    H140645   6.542   6.661   8.414 -1.5323 -0.1794  2.4911
 6362TIP3    H240646   6.530   6.535   8.331  0.3926  1.6478 -0.7759
 6363TIP3   OH240647   0.242   5.282   8.373 -0.2615 -0.0162 -0.3660
 6363TIP3    H140648   0.296   5.260   8.449 -0.5560 -1.8220 -0.6488
 6363TIP3    H240649   0.161   5.316   8.411 -0.6906 -1.5810  0.1574
 6364TIP3   OH240650   5.283   1.523   7.181 -0.1083 -0.0045  0.8239
 6364TIP3    H140651   5.288   1.537   7.086 -1.2197 -0.9069  0.6092
 6364TIP3    H240652   5.193   1.546   7.204  0.3183  0.7737  1.7773
 6365TIP3   OH240653   3.121   4.129   2.169 -0.2611  0.0453  0.6010
 6365TIP3    H140654   3.169   4.208   2.144 -1.2291  0.2622 -0.6722
 6365TIP3    H240655   3.189   4.062   2.176  0.2910  0.3802 -1.0231
 6366TIP3   OH240656   1.949   1.079   7.120 -0.5948 -0.0375  0.5758
 6366TIP3    H140657   2.027   1.112   7.165  0.1258 -1.6530  0.5909
 6366TIP3    H240658   1.983   1.023   7.050 -1.5916 -3.6106  2.6744
 6367TIP3   OH240659   3.080   4.626   8.769 -0.2953 -0.1163 -0.2929
 6367TIP3    H140660   3.011   4.559   8.778 -0.3265 -0.0886 -0.3278
 6367TIP3    H240661   3.098   4.629   8.676 -1.3921  1.0298 -0.5019
 6368TIP3   OH240662   4.424   3.071   8.761  0.0392 -0.2522 -0.6172
 6368TIP3    H140663   4.351   3.040   8.815 -0.8562  0.7776 -1.2007
 6368TIP3    H240664   4.465   3.140   8.814 -0.8829  0.8081 -1.2279
 6369TIP3   OH240665   6.703   2.281   1.584  0.0061  0.4044  0.2331
 6369TIP3    H140666   6.655   2.344   1.637 -0.7267 -1.1716  1.5323
 6369TIP3    H240667   6.649   2.268   1.506 -0.1674  0.8746  0.2762
 6370TIP3   OH240668   0.574   1.847   0.745 -0.1177 -0.3478  0.1041
 6370TIP3    H140669   0.618   1.875   0.665 -1.7678 -0.7050 -0.9806
 6370TIP3    H240670   0.546   1.757   0.726  2.6340 -1.8862  2.4729
 6371TIP3   OH240671   2.624   1.771   7.293 -0.2682  0.3618 -0.1211
 6371TIP3    H140672   2.590   1.793   7.379 -0.5164  0.6312 -0.2884
 6371TIP3    H240673   2.719   1.784   7.301 -0.2960  0.4300  0.0960
 6372TIP3   OH240674   4.422   4.071   0.886  0.2921  0.0623  0.8589
 6372TIP3    H140675   4.450   4.160   0.865 -0.3361  0.8556  3.0373
 6372TIP3    H240676   4.477   4.015   0.832 -0.5468  1.7655 -1.9743
 6373TIP3   OH240677   1.629   4.847   0.132 -0.2357 -0.3410 -0.7788
 6373TIP3    H140678   1.582   4.876   0.210  1.0266  0.9738 -0.4566
 6373TIP3    H240679   1.591   4.762   0.111 -0.3395 -0.9175  1.5143
 6374TIP3   OH240680   0.585   0.304   1.989 -0.0993 -0.2730  0.1984
 6374TIP3    H140681   0.628   0.336   1.910 -1.6599 -1.0086 -1.0105
 6374TIP3    H240682   0.500   0.348   1.991 -0.9840 -1.8834  0.2200
 6375TIP3   OH240683   1.519   0.052   0.651 -0.1821 -0.0455  0.0303
 6375TIP3    H140684   1.478   0.125   0.697 -2.6183 -0.0144 -1.9910
 6375TIP3    H240685   1.476  -0.026   0.686 -0.3849 -0.1947 -0.5403
 6376TIP3   OH240686   3.223   1.650   2.525  0.2889  0.9456  0.0030
 6376TIP3    H140687   3.262   1.693   2.601  1.2980 -0.5905  0.4209
 6376TIP3    H240688   3.288   1.583   2.500 -0.7071  0.4083 -1.2645
 6377TIP3   OH240689   5.779   3.059   0.090  0.2153 -0.1052 -0.0181
 6377TIP3    H140690   5.781   3.007   0.010  0.7835 -0.7143  0.3778
 6377TIP3    H240691   5.794   3.149   0.061  1.3996 -0.4491 -0.4939
 6378TIP3   OH240692   4.732   2.055   8.841 -0.5296  0.8018  0.2496
 6378TIP3    H140693   4.807   2.006   8.873  0.0264  2.2841  1.3344
 6378TIP3    H240694   4.659   1.992   8.844  0.1064  0.0911  1.8132
 6379TIP3   OH240695   4.324   2.128   0.180 -0.0258 -0.0846 -0.2566
 6379TIP3    H140696   4.333   2.125   0.085  0.9887 -1.0729 -0.1484
 6379TIP3    H240697   4.309   2.221   0.200  2.2052  0.5310 -1.1745
 6380TIP3   OH240698   1.852   1.726   7.354  0.5419 -0.4257 -0.3535
 6380TIP3    H140699   1.858   1.734   7.449 -0.9754  0.2556 -0.2814
 6380TIP3    H240700   1.903   1.648   7.333  2.5901  0.5496  0.7652
 6381TIP3   OH240701   4.431   3.368   0.731  0.1715 -0.1605  0.3051
 6381TIP3    H140702   4.493   3.427   0.687  0.4631 -1.0960 -0.5633
 6381TIP3    H240703   4.460   3.280   0.707 -1.4503 -0.6312 -0.0529
 6382TIP3   OH240704   3.251   6.513   7.785  0.2015  0.2022  0.0523
 6382TIP3    H140705   3.326   6.487   7.839  0.8683  2.4007  0.2979
 6382TIP3    H240706   3.287   6.525   7.697 -0.4216 -1.1800 -0.4163
 6383TIP3   OH240707   0.981   3.950   0.420  0.4553 -0.4185 -0.3815
 6383TIP3    H140708   0.982   4.043   0.445 -1.1478 -0.3286 -0.5101
 6383TIP3    H240709   1.072   3.922   0.426  1.0641  1.3241 -0.9254
 6384TIP3   OH240710   4.479   6.119   8.483  0.1339  0.5625 -0.4169
 6384TIP3    H140711   4.537   6.105   8.558 -0.8461 -3.2732 -0.1332
 6384TIP3    H240712   4.522   6.075   8.410 -2.3571 -2.8998 -0.0721
 6385TIP3   OH240713   1.926   0.184   1.459 -0.8313  0.5068 -0.1610
 6385TIP3    H140714   1.941   0.094   1.429  1.8290  0.7562  0.1746
 6385TIP3    H240715   1.857   0.217   1.402  0.4302 -0.7157 -2.5573
 6386TIP3   OH240716   3.031   1.383   0.573  0.2633 -0.5230 -0.4144
 6386TIP3    H140717   3.104   1.373   0.634 -0.2357 -0.8799  0.1423
 6386TIP3    H240718   3.064   1.349   0.490  1.3669  1.1272 -0.6878
 6387TIP3   OH240719   3.552   4.650   1.562  0.0439  0.6316  0.1553
 6387TIP3    H140720   3.531   4.668   1.654 -0.9811 -1.3934  0.3772
 6387TIP3    H240721   3.481   4.692   1.513  0.1217  0.9903  0.3473
 6388TIP3   OH240722   5.900   1.991   1.447  0.0942 -0.2128  0.2325
 6388TIP3    H140723   5.923   1.918   1.389 -0.3138 -0.9761  0.9955
 6388TIP3    H240724   5.974   1.998   1.507 -0.1009 -0.3542  0.4927
 6389TIP3   OH240725   4.702   3.389   7.344  0.7941 -0.2637 -1.3129
 6389TIP3    H140726   4.741   3.467   7.386  1.1344 -0.6444 -0.9133
 6389TIP3    H240727   4.640   3.356   7.409 -1.4823  1.2724 -2.5558
 6390TIP3   OH240728   1.172   6.404   8.565 -0.0723  0.6663  0.2525
 6390TIP3    H140729   1.126   6.479   8.526 -0.9490  0.6813  1.2615
 6390TIP3    H240730   1.153   6.332   8.506  0.6278  1.1833 -0.6326
 6391TIP3   OH240731   1.341   4.438   8.542  0.3396 -0.1550 -0.0924
 6391TIP3    H140732   1.430   4.404   8.533  0.5484  0.4975 -0.6278
 6391TIP3    H240733   1.337   4.509   8.478 -0.1417  0.6675  0.8235
 6392TIP3   OH240734   0.460   1.099   0.430  0.3865 -0.2773  0.1886
 6392TIP3    H140735   0.472   1.088   0.524  0.7209  0.4182  0.2297
 6392TIP3    H240736   0.471   1.192   0.415  0.1968 -0.3658 -0.5226
 6393TIP3   OH240737   4.457   2.248   8.041  0.2132 -0.2089 -0.3403
 6393TIP3    H140738   4.529   2.217   8.096 -1.4973 -0.1157  2.1611
 6393TIP3    H240739   4.432   2.332   8.080 -1.6334 -0.5620 -0.6744
 6394TIP3   OH240740   1.722   3.832   8.020 -0.2772 -0.7133  0.3767
 6394TIP3    H140741   1.645   3.785   7.988  0.1337 -2.1104  1.3626
 6394TIP3    H240742   1.753   3.881   7.945 -1.8943 -0.4231 -0.1534
 6395TIP3   OH240743   6.358   3.436   2.000 -0.1081 -0.1183  0.1599
 6395TIP3    H140744   6.343   3.382   1.923  1.7841 -2.5192  1.3102
 6395TIP3    H240745   6.272   3.450   2.038 -0.9477  0.2428 -1.7777
 6396TIP3   OH240746   2.812   4.704   2.843  0.2860 -0.4900  0.0999
 6396TIP3    H140747   2.760   4.685   2.921 -1.8296  1.6227 -0.6815
 6396TIP3    H240748   2.901   4.719   2.877 -0.4548 -0.1394  2.0172
 6397TIP3   OH240749   6.008   5.373   8.101  0.0543 -0.2376  0.1734
 6397TIP3    H140750   6.023   5.328   8.018  1.4749 -1.8098  1.2117
 6397TIP3    H240751   6.005   5.466   8.078  2.0246 -0.5082 -1.4818
 6398TIP3   OH240752   2.573   3.460   1.478 -0.7146  0.0959  0.8993
 6398TIP3    H140753   2.657   3.436   1.439 -1.7748  0.0127 -1.4864
 6398TIP3    H240754   2.547   3.383   1.530 -0.9426 -1.3377 -1.2341
 6399TIP3   OH240755   1.386   1.551   8.668  0.4289 -0.1926 -0.4727
 6399TIP3    H140756   1.408   1.509   8.751  0.2810  1.0548  0.2245
 6399TIP3    H240757   1.295   1.527   8.652 -0.4599  1.7630  1.1801
 6400TIP3   OH240758   5.357   3.806   2.596 -0.1553  0.1479  0.7946
 6400TIP3    H140759   5.349   3.781   2.504  0.3289  1.0591  0.4907
 6400TIP3    H240760   5.275   3.776   2.637  0.0143 -1.0685  0.2696
 6401TIP3   OH240761   5.333   1.479   0.918 -0.0299 -0.4348  0.1462
 6401TIP3    H140762   5.328   1.388   0.891  1.5057 -0.6559  0.5337
 6401TIP3    H240763   5.294   1.481   1.005  0.2483 -0.7907  0.2806
 6402TIP3   OH240764   4.562   2.026   1.120 -0.0053  0.0593 -0.0831
 6402TIP3    H140765   4.586   2.029   1.213  2.1418 -0.1310 -0.5867
 6402TIP3    H240766   4.488   1.965   1.116  1.1509 -1.5108  1.2747
 6403TIP3   OH240767   2.462   5.747   2.307 -0.1398 -0.4297 -0.2979
 6403TIP3    H140768   2.445   5.748   2.213  0.4685 -0.8426 -0.4174
 6403TIP3    H240769   2.456   5.839   2.334 -1.7078 -0.4415 -0.4680
 6404TIP3   OH240770   2.933   5.064   2.872  0.1133  0.1425 -0.5077
 6404TIP3    H140771   2.876   5.093   2.944 -0.1970  0.7212 -0.9748
 6404TIP3    H240772   3.007   5.124   2.874  0.8491 -0.7601  0.2506
 6405TIP3   OH240773   1.865   1.173   7.817  0.1667  0.1020 -0.0940
 6405TIP3    H140774   1.870   1.216   7.732  0.0571  0.4459  0.0703
 6405TIP3    H240775   1.824   1.089   7.799  0.4447  0.0369 -0.4289
 6406TIP3   OH240776   6.350   5.367   8.677  0.1400  0.2587 -0.2426
 6406TIP3    H140777   6.332   5.452   8.637 -0.3735 -0.5543 -1.8270
 6406TIP3    H240778   6.263   5.328   8.691  0.2898  0.5710  1.8655
 6407TIP3   OH240779   3.673   1.460   2.134 -0.7724  0.4914 -0.7586
 6407TIP3    H140780   3.592   1.507   2.114 -0.9083  0.1455 -1.0348
 6407TIP3    H240781   3.649   1.368   2.128 -0.5317  0.3831 -0.1096
 6408TIP3   OH240782   5.174   6.614   8.507 -0.6761  0.5187 -0.1432
 6408TIP3    H140783   5.112   6.549   8.473 -1.6754  1.4697 -0.1928
 6408TIP3    H240784   5.152   6.694   8.461  1.1935  0.6993 -0.8095
 6409TIP3   OH240785   4.810   5.159   2.407 -0.1761 -0.7490 -0.6012
 6409TIP3    H140786   4.765   5.237   2.440 -0.4324 -1.1659  0.0507
 6409TIP3    H240787   4.820   5.103   2.484 -0.7935 -1.7520 -1.2251
 6410TIP3   OH240788   4.796   3.823   8.364 -0.6781  0.2146  0.3096
 6410TIP3    H140789   4.802   3.817   8.269  1.6416 -2.5875  0.5154
 6410TIP3    H240790   4.874   3.872   8.390 -0.6672 -0.0802  0.8447
 6411TIP3   OH240791   5.092   5.591   0.177  0.4819 -0.2022  0.1534
 6411TIP3    H140792   5.080   5.682   0.149  1.5431 -0.2120 -0.4232
 6411TIP3    H240793   5.158   5.557   0.117 -0.0544 -1.4213  0.2384
 6412TIP3   OH240794   5.927   5.036   0.834  0.5684 -0.3271 -0.0747
 6412TIP3    H140795   6.022   5.027   0.835  0.7689  1.2840 -0.6199
 6412TIP3    H240796   5.905   5.054   0.743 -0.2247 -0.4185  0.0846
 6413TIP3   OH240797   0.324   3.902   1.450 -0.1497  0.0535 -0.8625
 6413TIP3    H140798   0.381   3.878   1.523 -0.7263  1.6606  0.1683
 6413TIP3    H240799   0.235   3.883   1.481 -0.3296 -0.6861 -1.7559
 6414TIP3   OH240800   2.385   2.225   1.133  0.6540 -0.3413 -1.1167
 6414TIP3    H140801   2.313   2.162   1.130  0.7859 -0.4665 -1.6493
 6414TIP3    H240802   2.350   2.298   1.185  0.3104 -0.6128 -0.9648
 6415TIP3   OH240803   4.553   6.508   1.109  0.1564  0.3609  0.1524
 6415TIP3    H140804   4.594   6.590   1.137  0.7166 -0.3138  1.3989
 6415TIP3    H240805   4.626   6.446   1.103 -0.3244 -0.1703 -0.3150
 6416TIP3   OH240806   4.361   1.294   1.738 -0.3820  0.4088 -0.1734
 6416TIP3    H140807   4.282   1.313   1.686 -1.4707 -0.9681  0.9048
 6416TIP3    H240808   4.331   1.300   1.829  1.1855  1.5298  0.3026
 6417TIP3   OH240809   2.794   0.276   1.978 -0.3518 -0.0525 -0.8865
 6417TIP3    H140810   2.862   0.225   2.020 -0.9438  0.5427  0.8809
 6417TIP3    H240811   2.763   0.336   2.046  0.2513  2.6300 -2.8208
 6418TIP3   OH240812   2.149   5.476   7.016 -0.1338 -0.0134 -0.2509
 6418TIP3    H140813   2.182   5.565   7.009  0.3872 -0.1172  0.6445
 6418TIP3    H240814   2.209   5.433   7.077 -0.3868 -0.9693 -0.6581
 6419TIP3   OH240815   4.807   1.504   0.680 -0.2217 -0.0979 -0.0506
 6419TIP3    H140816   4.783   1.522   0.771 -0.9996  1.8249 -0.5772
 6419TIP3    H240817   4.728   1.523   0.630  0.8162  1.0991 -1.3172
 6420TIP3   OH240818   5.665   6.119   1.615  0.5663 -0.0123  0.0798
 6420TIP3    H140819   5.707   6.201   1.588  1.1601 -0.7384 -1.3202
 6420TIP3    H240820   5.671   6.120   1.710 -3.0016  3.3944  0.5012
 6421TIP3   OH240821   5.390   4.970   0.063 -0.7368  0.2482  0.4174
 6421TIP3    H140822   5.391   4.961   0.158  0.3761  0.2938  0.4196
 6421TIP3    H240823   5.431   4.890   0.031  1.0248  1.2408  0.0844
 6422TIP3   OH240824   1.644   4.421   0.277  0.8300 -0.2100  1.2719
 6422TIP3    H140825   1.670   4.342   0.229 -3.1739 -0.8910 -0.2241
 6422TIP3    H240826   1.609   4.388   0.360 -0.9741 -0.1212  0.5881
 6423TIP3   OH240827   5.556   1.138   0.946 -0.6613 -0.2647  0.2150
 6423TIP3    H140828   5.500   1.061   0.939 -0.4938 -0.3914  0.2338
 6423TIP3    H240829   5.535   1.175   1.032  1.6200 -2.2084  1.7725
 6424TIP3   OH240830   5.854   1.380   8.879  0.5154  0.1066 -0.4053
 6424TIP3    H140831   5.776   1.365   8.933  0.0723  0.3280 -0.9672
 6424TIP3    H240832   5.860   1.301   8.825  0.9162 -0.0830 -0.0920
 6425TIP3   OH240833   4.333   5.288   8.192 -0.3043  0.6320 -0.1567
 6425TIP3    H140834   4.395   5.350   8.230 -1.5682  0.7980  1.7410
 6425TIP3    H240835   4.353   5.289   8.098  2.4414  0.7727  0.3544
 6426TIP3   OH240836   6.489   2.470   2.692 -0.1644  0.2779 -0.8217
 6426TIP3    H140837   6.409   2.419   2.705  0.2586 -0.4695 -1.0909
 6426TIP3    H240838   6.467   2.557   2.725 -0.6283 -0.2914  0.4501
 6427TIP3   OH240839   4.903   3.924   0.857  1.0130  0.0152 -0.1497
 6427TIP3    H140840   4.935   3.870   0.784 -3.0567 -1.5632 -1.0470
 6427TIP3    H240841   4.901   4.013   0.822  0.8879 -0.4254 -1.2916
 6428TIP3   OH240842   1.989   2.322   7.514  0.0264 -0.0003  0.3070
 6428TIP3    H140843   1.979   2.244   7.568  1.9101  0.3178  1.1814
 6428TIP3    H240844   2.073   2.310   7.469  0.6007  1.7341  0.8590
 6429TIP3   OH240845   2.346   1.564   0.320  0.2776  0.4114  0.0946
 6429TIP3    H140846   2.441   1.549   0.327  0.3788 -0.0205 -1.6792
 6429TIP3    H240847   2.310   1.478   0.296 -0.4101  0.8041 -0.3267
 6430TIP3   OH240848   3.870   4.332   0.816  0.1103  0.0867  0.5986
 6430TIP3    H140849   3.872   4.289   0.902  1.0570 -0.3683  0.3596
 6430TIP3    H240850   3.862   4.260   0.753  0.9911  0.3010  0.2309
 6431TIP3   OH240851   2.814   1.074   1.894  0.3684 -0.3480 -0.0499
 6431TIP3    H140852   2.787   1.060   1.985 -0.7006  0.6710 -0.1856
 6431TIP3    H240853   2.879   1.006   1.877  0.1653 -0.9007  1.3022
 6432TIP3   OH240854   4.743   1.826   0.978 -0.0561 -0.0268 -0.4731
 6432TIP3    H140855   4.689   1.900   1.006 -0.2976  0.7863 -2.8913
 6432TIP3    H240856   4.813   1.865   0.926  1.2597 -1.3186  0.2672
 6433TIP3   OH240857   6.518   3.043   7.181 -0.0267 -0.0245  0.7192
 6433TIP3    H140858   6.587   3.104   7.204  0.0504 -0.0273  0.5025
 6433TIP3    H240859   6.546   3.006   7.097 -0.0542 -0.3823  0.8644
 6434TIP3   OH240860   1.726   6.070   1.458 -0.5454 -0.0687  0.3694
 6434TIP3    H140861   1.807   6.082   1.507  0.8289 -0.4518 -1.6479
 6434TIP3    H240862   1.715   5.975   1.452  1.1012 -0.2014 -2.6025
 6435TIP3   OH240863   3.462   1.375   7.789  0.4789 -0.8222 -0.3207
 6435TIP3    H140864   3.406   1.421   7.726  1.1679  0.0673 -0.2947
 6435TIP3    H240865   3.404   1.354   7.862 -0.2992 -1.7303 -1.1591
 6436TIP3   OH240866   0.587   2.991   6.518 -0.0635  0.3744 -0.8060
 6436TIP3    H140867   0.513   2.934   6.537 -0.8517  1.6424  0.0524
 6436TIP3    H240868   0.630   3.005   6.602  0.6570  0.3328 -1.1538
 6437TIP3   OH240869   2.703   2.741   7.185  0.7600  0.0923  0.1992
 6437TIP3    H140870   2.742   2.802   7.248  0.1953  0.4972  0.1586
 6437TIP3    H240871   2.697   2.791   7.104  0.4936 -0.0879  0.1081
 6438TIP3   OH240872   3.219   1.752   8.623  0.1214  0.5593 -0.4265
 6438TIP3    H140873   3.215   1.656   8.628  1.0188  0.5756  1.5306
 6438TIP3    H240874   3.139   1.780   8.669  0.6145  0.7248  0.3537
 6439TIP3   OH240875   0.832   1.537   1.235  0.4177 -0.3892  0.0222
 6439TIP3    H140876   0.870   1.624   1.252 -0.2019  0.1365 -1.1663
 6439TIP3    H240877   0.858   1.485   1.311 -0.1090  1.1297  1.3129
 6440TIP3   OH240878   0.763   5.627   8.138  0.0674 -0.5468 -0.1755
 6440TIP3    H140879   0.840   5.573   8.120  1.2067  1.2523 -0.9490
 6440TIP3    H240880   0.698   5.599   8.074  0.2901 -1.6327  0.0548
 6441TIP3   OH240881   0.380   2.052   7.605  0.3245 -0.1482 -0.4629
 6441TIP3    H140882   0.340   2.038   7.519  0.8356 -0.9014 -0.5956
 6441TIP3    H240883   0.474   2.037   7.590  0.2884 -1.5087  0.4477
 6442TIP3   OH240884   5.854   3.860   2.455  0.1778  0.3795  0.1385
 6442TIP3    H140885   5.829   3.874   2.364 -2.2047  1.2963  0.8513
 6442TIP3    H240886   5.792   3.913   2.505  1.4143 -0.1014  2.3145
 6443TIP3   OH240887   2.173   3.539   6.583 -0.3470  0.5719  0.2602
 6443TIP3    H140888   2.176   3.579   6.670 -0.9680 -1.1773  1.1488
 6443TIP3    H240889   2.096   3.578   6.541 -1.1999  0.0243  1.2700
 6444TIP3   OH240890   4.917   5.150   6.899 -0.1793  0.5168  0.3257
 6444TIP3    H140891   4.916   5.230   6.952  2.0015 -0.0718  1.3607
 6444TIP3    H240892   4.966   5.087   6.951  1.5342 -0.3030 -2.1113
 6445TIP3   OH240893   0.394   0.729   0.097 -0.4670  0.0346  0.4467
 6445TIP3    H140894   0.384   0.765   0.185 -0.5876  2.0432 -0.3361
 6445TIP3    H240895   0.357   0.796   0.039 -0.8432 -1.4496 -1.1164
 6446TIP3   OH240896   3.232   5.553   7.557  0.6949 -0.9536 -0.2168
 6446TIP3    H140897   3.276   5.531   7.475 -0.0329 -1.8037 -0.3934
 6446TIP3    H240898   3.226   5.470   7.604 -0.9801 -0.9327 -0.3454
 6447TIP3   OH240899   6.734   4.243   8.236 -0.0795 -0.4873 -0.0513
 6447TIP3    H140900   6.726   4.218   8.144 -0.9668  0.6298 -0.2988
 6447TIP3    H240901   6.817   4.203   8.264 -0.0288 -1.2541 -1.1833
 6448TIP3   OH240902   3.610   3.536   8.002 -0.7510  0.6855  0.2077
 6448TIP3    H140903   3.534   3.536   7.944 -0.7841  0.5577  0.2510
 6448TIP3    H240904   3.680   3.576   7.950 -0.0957 -1.6317 -0.8128
 6449TIP3   OH240905   4.613   5.563   1.945 -0.0226  0.0694 -0.0002
 6449TIP3    H140906   4.591   5.470   1.953  1.0911 -0.2493 -0.5114
 6449TIP3    H240907   4.561   5.605   2.014  0.2559 -1.0618  0.9541
 6450TIP3   OH240908   3.891   3.096   7.756 -0.0065  0.0974  0.6590
 6450TIP3    H140909   3.814   3.065   7.707  1.5001 -1.5079 -0.8101
 6450TIP3    H240910   3.901   3.187   7.730 -0.7281 -0.0175 -0.0686
 6451TIP3   OH240911   2.356   4.647   8.359  0.2114 -0.1739  0.1358
 6451TIP3    H140912   2.274   4.629   8.313 -0.2388  1.1760  0.3637
 6451TIP3    H240913   2.387   4.729   8.320 -0.8277  1.7313  3.0202
 6452TIP3   OH240914   2.907   3.154   7.443  0.1086  0.8447  0.1415
 6452TIP3    H140915   2.864   3.070   7.427  2.7704 -0.5648 -0.3202
 6452TIP3    H240916   2.878   3.179   7.530 -0.5471 -0.7140  0.4178
 6453TIP3   OH240917   3.268   1.493   8.557  0.3180 -0.0693  0.5100
 6453TIP3    H140918   3.350   1.500   8.605  0.7990  1.8940 -0.4675
 6453TIP3    H240919   3.288   1.434   8.484  0.6736 -0.0870  0.6190
 6454TIP3   OH240920   5.247   5.139   3.060 -0.1559  0.4531  0.0250
 6454TIP3    H140921   5.195   5.154   2.981 -0.4951  0.9490  0.3364
 6454TIP3    H240922   5.289   5.223   3.077  0.6241  0.1051 -0.1273
 6455TIP3   OH240923   2.125   6.638   8.742 -0.4303 -0.3554  0.2923
 6455TIP3    H140924   2.146   6.729   8.766  0.8142 -0.4155 -0.4949
 6455TIP3    H240925   2.191   6.586   8.787  1.6616 -0.5077 -2.6649
 6456TIP3   OH240926   5.360   2.152   0.348  0.4023  0.4101 -0.2333
 6456TIP3    H140927   5.338   2.179   0.437 -0.4448 -1.3682  0.1305
 6456TIP3    H240928   5.300   2.201   0.292 -0.4328  0.0445  0.3321
 6457TIP3   OH240929   2.359   1.867   7.934 -0.3395  0.3560 -0.5328
 6457TIP3    H140930   2.445   1.893   7.967 -0.1157 -1.2317  0.2470
 6457TIP3    H240931   2.298   1.897   8.002 -0.0406 -1.3808  0.5893
 6458TIP3   OH240932   1.472   2.638   0.481 -0.0633 -0.1955  0.5236
 6458TIP3    H140933   1.481   2.597   0.395 -2.1364 -1.6657  0.9214
 6458TIP3    H240934   1.499   2.729   0.467 -0.0307 -0.4746 -1.5966
 6459TIP3   OH240935   2.870   2.944   8.868 -0.1043 -0.1151 -0.0441
 6459TIP3    H140936   2.811   2.875   8.898 -0.6164  0.2854 -0.1182
 6459TIP3    H240937   2.820   3.025   8.877  0.8322  0.3837  1.0043
 6460TIP3   OH240938   2.595   4.129   8.628  0.3718  0.4640  0.5006
 6460TIP3    H140939   2.658   4.076   8.676  1.5044  2.0338  0.8263
 6460TIP3    H240940   2.643   4.157   8.549 -0.9105 -0.7265 -0.7354
 6461TIP3   OH240941   3.350   4.250   3.037  0.7668  0.3357  0.1592
 6461TIP3    H140942   3.389   4.164   3.024  0.6542  0.2434  0.4233
 6461TIP3    H240943   3.260   4.232   3.065 -0.5685  0.5323 -3.4966
 6462TIP3   OH240944   3.722   6.527   0.617  0.6162 -0.4198 -0.2183
 6462TIP3    H140945   3.642   6.543   0.566  1.2671  2.4482 -0.5430
 6462TIP3    H240946   3.712   6.584   0.694  2.0778 -0.4646  0.0290
 6463TIP3   OH240947   6.787   0.782   7.131  0.2602 -0.0316 -0.0431
 6463TIP3    H140948   6.852   0.838   7.174  1.7063 -1.1830 -0.6672
 6463TIP3    H240949   6.703   0.825   7.150  1.0128  0.6120  2.1681
 6464TIP3   OH240950   0.903   6.675   1.634  0.1903  0.2443 -0.1728
 6464TIP3    H140951   0.827   6.731   1.647 -0.4154 -0.7468  0.6812
 6464TIP3    H240952   0.975   6.724   1.675  0.0625  1.2334 -1.0791
 6465TIP3   OH240953   1.867   6.529   0.663 -0.1220 -0.0596 -0.3446
 6465TIP3    H140954   1.809   6.552   0.590  0.0953 -0.6487 -0.7134
 6465TIP3    H240955   1.937   6.595   0.660  0.7755 -0.9996 -1.7102
 6466TIP3   OH240956   2.297   2.307   0.430  0.7983 -1.1786 -0.9262
 6466TIP3    H140957   2.308   2.343   0.518 -0.0562 -0.0295 -1.2616
 6466TIP3    H240958   2.321   2.378   0.371  3.3221 -2.5508 -1.7050
 6467TIP3   OH240959   2.546   5.158   3.184 -0.0529  0.1559  0.5198
 6467TIP3    H140960   2.543   5.064   3.169 -0.4568  0.5689 -3.0595
 6467TIP3    H240961   2.455   5.183   3.202  0.1540 -0.1709  2.1113
 6468TIP3   OH240962   5.069   5.541   0.608  0.0889  0.1216 -0.1017
 6468TIP3    H140963   5.026   5.490   0.540 -0.5653  1.6973 -0.9161
 6468TIP3    H240964   5.143   5.583   0.564  1.4213 -1.0982  0.8617
 6469TIP3   OH240965   3.466   5.898   0.940 -0.1001  0.4216  0.3988
 6469TIP3    H140966   3.489   5.987   0.968 -0.8389  1.0146 -0.7522
 6469TIP3    H240967   3.527   5.879   0.868  0.1324 -0.0557  0.7184
 6470TIP3   OH240968   5.643   2.554   0.206  0.0322  0.3104 -0.0568
 6470TIP3    H140969   5.584   2.629   0.198  0.4962  0.4741 -2.6578
 6470TIP3    H240970   5.608   2.488   0.147  0.8972 -0.6865  0.5046
 6471TIP3   OH240971   3.924   0.062   7.825  0.1424 -0.3171 -0.0304
 6471TIP3    H140972   3.988   0.039   7.892  1.4576 -0.6274 -1.3512
 6471TIP3    H240973   3.952   0.148   7.794 -0.8896  0.1595  0.2983
 6472TIP3   OH240974   1.987   0.011   7.886  0.4218 -0.0035 -0.3109
 6472TIP3    H140975   1.924  -0.036   7.832  0.3945  1.9027 -2.0310
 6472TIP3    H240976   2.056   0.039   7.825  1.1828  0.9163  0.9148
 6473TIP3   OH240977   1.933   3.424   1.230  0.0639  0.2696 -0.4384
 6473TIP3    H140978   1.915   3.518   1.229 -0.9040  0.1256  0.6047
 6473TIP3    H240979   1.900   3.393   1.146 -0.5782  0.7094 -0.3583
 6474TIP3   OH240980   1.588   5.472   0.692  0.1530 -0.2045 -0.4147
 6474TIP3    H140981   1.573   5.567   0.694  0.3582 -0.1740  1.2277
 6474TIP3    H240982   1.682   5.463   0.708  0.0055 -0.7031  0.2009
 6475TIP3   OH240983   4.732   4.595   0.034 -0.0489  0.2952 -0.4355
 6475TIP3    H140984   4.702   4.652   0.104 -1.1343 -1.7402  0.8333
 6475TIP3    H240985   4.678   4.619  -0.041  0.6589  2.0246 -0.4470
 6476TIP3   OH240986   4.559   5.439   8.195 -0.2080 -0.2498 -0.3965
 6476TIP3    H140987   4.576   5.518   8.143  0.2457  0.0161  0.1470
 6476TIP3    H240988   4.620   5.445   8.268 -0.5459 -0.8368 -0.0617
 6477TIP3   OH240989   1.830   2.234   0.003  0.3749 -0.1036 -0.1006
 6477TIP3    H140990   1.752   2.210  -0.046  0.7924 -1.5344 -0.1156
 6477TIP3    H240991   1.797   2.282   0.079 -0.6468 -1.8288  0.5937
 6478TIP3   OH240992   6.667   5.589   8.202 -0.5680 -0.0512  0.4789
 6478TIP3    H140993   6.582   5.584   8.246 -0.5194  0.9880  0.7253
 6478TIP3    H240994   6.720   5.647   8.258 -0.5682  1.4789 -1.0052
 6479TIP3   OH240995   3.416   3.302   1.534  0.4822 -0.7137  0.1850
 6479TIP3    H140996   3.481   3.318   1.604  2.3857 -1.4538 -1.3169
 6479TIP3    H240997   3.458   3.238   1.477 -0.7994  0.2166 -1.9151
 6480TIP3   OH240998   4.266   2.349   2.368 -0.0637  0.1413 -0.0913
 6480TIP3    H140999   4.253   2.281   2.435  0.2676  0.4662  0.3093
 6480TIP3    H241000   4.269   2.431   2.418 -0.6720  0.4730 -0.5929
 6481TIP3   OH241001   4.661   6.397   0.622 -0.4906  0.7033 -0.1944
 6481TIP3    H141002   4.736   6.421   0.568 -1.2043 -0.1400 -1.6447
 6481TIP3    H241003   4.685   6.423   0.710  1.6682  0.0950 -0.5431
 6482TIP3   OH241004   5.180   6.427   1.440  0.2291 -0.0504 -0.1092
 6482TIP3    H141005   5.230   6.500   1.478  0.3502 -0.4812  0.5701
 6482TIP3    H241006   5.112   6.470   1.388  0.5709  0.5492 -0.0732
 6483TIP3   OH241007   1.980   0.161   8.604 -0.6669 -0.1150 -0.2354
 6483TIP3    H141008   1.958   0.103   8.677 -0.3346 -1.0398 -0.8620
 6483TIP3    H241009   2.052   0.214   8.637 -0.7997 -0.2259  0.2522
 6484TIP3   OH241010   4.382   4.137   7.968  0.3776 -0.2827 -0.1470
 6484TIP3    H141011   4.432   4.192   8.028 -0.2146 -0.3977  0.4599
 6484TIP3    H241012   4.311   4.102   8.021 -0.1452 -0.3998 -0.9127
 6485TIP3   OH241013   3.885   4.099   7.616 -0.2472  0.5555  0.2442
 6485TIP3    H141014   3.936   4.056   7.685  0.3761 -0.2915 -0.7183
 6485TIP3    H241015   3.878   4.034   7.546 -0.2196  1.6424 -0.8123
 6486TIP3   OH241016   5.424   4.223   0.708  0.1137 -0.1918  0.5375
 6486TIP3    H141017   5.349   4.240   0.653  0.8688 -0.9886 -0.7822
 6486TIP3    H241018   5.396   4.248   0.796 -1.0675  1.2185 -0.2164
 6487TIP3   OH241019   0.105   0.257   7.297  0.1237  0.2803  0.1232
 6487TIP3    H141020   0.110   0.162   7.302  1.7410  0.3355 -0.0764
 6487TIP3    H241021   0.039   0.273   7.229  0.1937 -0.7055 -0.2009
 6488TIP3   OH241022   0.773   1.534   1.986  0.1284  0.3901 -0.6905
 6488TIP3    H141023   0.814   1.465   1.933 -0.4120 -1.0156  0.6227
 6488TIP3    H241024   0.799   1.512   2.076  0.4903  2.3211 -0.2828
 6489TIP3   OH241025   3.524   5.838   2.764 -0.0100 -0.0410  0.2540
 6489TIP3    H141026   3.504   5.745   2.757  0.9236 -0.3159  1.0399
 6489TIP3    H241027   3.570   5.859   2.683 -0.4783 -0.1932 -0.0527
 6490TIP3   OH241028   5.864   5.950   0.390 -0.3377 -0.4869  0.0103
 6490TIP3    H141029   5.799   5.984   0.329  2.1738  3.1948 -0.8947
 6490TIP3    H241030   5.848   5.999   0.471  0.4730 -0.5397  0.2064
 6491TIP3   OH241031   1.593   5.790   8.316 -0.0869 -0.2911 -0.2498
 6491TIP3    H141032   1.633   5.871   8.347  0.2801  0.6024 -2.8467
 6491TIP3    H241033   1.651   5.760   8.245 -0.3904 -2.6733  0.4134
 6492TIP3   OH241034   1.067   5.959   7.693  0.4856  0.1482  0.2122
 6492TIP3    H141035   1.121   5.940   7.617  1.1289  0.4426  0.5880
 6492TIP3    H241036   1.006   6.027   7.663  0.9222  0.4653  0.0355
 6493TIP3   OH241037   3.631   6.043   2.276  0.2905  0.1001 -0.3201
 6493TIP3    H141038   3.637   5.968   2.218  0.0046  1.3137 -1.9737
 6493TIP3    H241039   3.692   6.107   2.240 -2.2636  2.1684 -1.3126
 6494TIP3   OH241040   0.970   1.748   8.718  0.2319 -0.3871 -0.2154
 6494TIP3    H141041   0.877   1.760   8.704  0.1955 -0.2239  0.1449
 6494TIP3    H241042   0.980   1.657   8.746  0.2534 -0.5801 -0.8421
 6495TIP3   OH241043   0.796   6.063   0.778 -0.3463 -0.2796  0.1998
 6495TIP3    H141044   0.796   6.022   0.691  0.8836  1.3905 -0.6583
 6495TIP3    H241045   0.765   6.152   0.762  1.7889  0.7036  1.0538
 6496TIP3   OH241046   3.730   1.651   6.748 -0.1966 -0.3780 -0.1857
 6496TIP3    H141047   3.666   1.616   6.686  1.2807 -2.2315 -0.7556
 6496TIP3    H241048   3.727   1.746   6.735 -0.1637 -0.6908 -2.8848
 6497TIP3   OH241049   4.747   2.668   0.878  0.7762  0.2050 -0.2065
 6497TIP3    H141050   4.750   2.594   0.818 -1.2237  1.0836 -1.5299
 6497TIP3    H241051   4.835   2.674   0.914  1.1424 -2.4380 -0.4727
 6498TIP3   OH241052   2.118   2.233   0.803 -0.4026 -0.0754  0.1719
 6498TIP3    H141053   2.099   2.139   0.805 -1.5655  0.1283 -0.5637
 6498TIP3    H241054   2.214   2.237   0.804 -0.3333 -1.2178  1.3551
 6499TIP3   OH241055   5.171   6.137   0.967  0.2012 -0.6359  1.0961
 6499TIP3    H141056   5.209   6.114   0.882 -0.7999  1.1036  0.1365
 6499TIP3    H241057   5.229   6.205   1.001 -1.1070  0.9286  0.3250
 6500TIP3   OH241058   6.516   0.185   7.541  0.2723  0.1422  0.0003
 6500TIP3    H141059   6.430   0.147   7.525  0.1799  0.0355  0.6808
 6500TIP3    H241060   6.547   0.213   7.456  0.4896 -1.7717 -0.6065
 6501TIP3   OH241061   1.734   6.126   1.002 -0.4114  0.1078 -0.2310
 6501TIP3    H141062   1.657   6.078   1.030 -0.9383  0.9511 -0.1930
 6501TIP3    H241063   1.727   6.211   1.046  0.8425 -0.0128  0.2382
 6502TIP3   OH241064   1.941   3.687   8.378 -0.0572  0.5056  0.1629
 6502TIP3    H141065   1.852   3.652   8.389 -0.1622  1.0069  1.0290
 6502TIP3    H241066   1.952   3.697   8.284 -0.9860  0.5890  0.0560
 6503TIP3   OH241067   5.664   2.879   0.796 -0.0993 -0.0614 -0.4468
 6503TIP3    H141068   5.607   2.833   0.734 -0.1234  0.7023 -0.9971
 6503TIP3    H241069   5.608   2.894   0.872  0.0267 -1.2984 -0.0946
 6504TIP3   OH241070   3.325   1.516   1.132 -0.1104  0.0449 -0.6974
 6504TIP3    H141071   3.344   1.502   1.225 -2.4621 -0.1486 -0.1781
 6504TIP3    H241072   3.407   1.549   1.095  1.2334 -1.0015  1.1816
 6505TIP3   OH241073   2.388   6.631   2.203  0.1360 -0.0643 -0.4172
 6505TIP3    H141074   2.338   6.698   2.248  2.3240  2.4006 -1.4111
 6505TIP3    H241075   2.369   6.644   2.110  0.2291 -1.1485 -0.6051
 6506TIP3   OH241076   2.016   1.433   7.487  0.1149 -0.6054  0.7661
 6506TIP3    H141077   2.057   1.519   7.483  1.5195 -1.2709 -0.0061
 6506TIP3    H241078   1.976   1.421   7.401 -0.0378 -0.7369  0.8544
 6507TIP3   OH241079   4.585   3.207   6.957 -0.5660 -0.3767  0.5227
 6507TIP3    H141080   4.548   3.282   7.003  0.0697 -0.0123  0.4436
 6507TIP3    H241081   4.572   3.227   6.864  2.0277  0.9552  0.3591
 6508TIP3   OH241082   5.223   1.229   8.277 -0.4315  1.0487  0.3091
 6508TIP3    H141083   5.312   1.194   8.270 -1.1300 -0.8305  0.3395
 6508TIP3    H241084   5.228   1.291   8.349  0.9971  1.5050 -0.1366
 6509TIP3   OH241085   2.873   6.534   8.609 -0.6885  0.0096  0.6381
 6509TIP3    H141086   2.936   6.588   8.657  0.0819  0.4292 -0.7921
 6509TIP3    H241087   2.910   6.445   8.615  0.4017  0.3430 -0.6959
 6510TIP3   OH241088   2.072   4.443   8.475 -0.6956  0.1412 -0.0837
 6510TIP3    H141089   2.135   4.434   8.547 -0.4940 -0.1327 -0.2930
 6510TIP3    H241090   2.122   4.484   8.405 -0.6796 -0.3204 -0.3425
 6511TIP3   OH241091   3.615   2.550   8.672  0.3675 -0.4291 -0.0736
 6511TIP3    H141092   3.630   2.516   8.584 -0.8568  1.0445 -0.8987
 6511TIP3    H241093   3.610   2.645   8.661  0.2439 -0.2057  1.6006
 6512TIP3   OH241094   6.679   3.333   1.606  0.1398 -0.1251  0.3747
 6512TIP3    H141095   6.770   3.352   1.628 -0.5098 -0.3817  4.0035
 6512TIP3    H241096   6.628   3.400   1.652 -1.6058 -2.7929  2.7226
 6513TIP3   OH241097   0.768   0.998   1.603 -0.3770  1.3567 -0.7290
 6513TIP3    H141098   0.728   0.930   1.548 -1.7309  2.3321 -0.9963
 6513TIP3    H241099   0.862   0.989   1.588 -0.3727 -1.3959  0.3563
 6514TIP3   OH241100   2.770   5.159   1.204  0.5415 -0.3629 -0.4892
 6514TIP3    H141101   2.852   5.109   1.210  0.5619 -0.1673  1.7188
 6514TIP3    H241102   2.702   5.097   1.229  0.1606 -0.1649 -1.0208
 6515TIP3   OH241103   0.338   5.218   1.270 -0.8104  0.5494 -0.2412
 6515TIP3    H141104   0.380   5.213   1.356  0.9012 -0.8632 -1.0895
 6515TIP3    H241105   0.411   5.231   1.209 -2.0543  2.2334 -1.4471
 6516TIP3   OH241106   6.573   5.088   0.092  0.1610  0.4079  0.0997
 6516TIP3    H141107   6.611   5.174   0.073 -0.0417  0.3417 -0.6595
 6516TIP3    H241108   6.482   5.107   0.116  0.3629  0.4754  0.8347
 6517TIP3   OH241109   5.757   5.496   2.553 -0.1388  0.1243 -0.3860
 6517TIP3    H141110   5.701   5.427   2.588  0.3779  0.3255  0.9201
 6517TIP3    H241111   5.841   5.453   2.536  0.4457  0.5458  1.2124
 6518TIP3   OH241112   4.743   5.753   1.164  0.2170 -0.2892 -0.5087
 6518TIP3    H141113   4.803   5.750   1.090  2.1449  0.0317  0.9388
 6518TIP3    H241114   4.762   5.838   1.206 -2.3561  0.5161 -0.8207
 6519TIP3   OH241115   0.637   6.212   7.670 -0.1150  0.2667  0.6363
 6519TIP3    H141116   0.590   6.184   7.591  0.2107  0.6201  0.3086
 6519TIP3    H241117   0.569   6.248   7.727  0.0584  4.9859 -1.6109
 6520TIP3   OH241118   6.204   1.901   7.876  0.1480 -0.8866  0.0529
 6520TIP3    H141119   6.275   1.851   7.915  0.5513 -0.5180 -0.1890
 6520TIP3    H241120   6.125   1.849   7.892  0.7935 -2.6163 -1.9542
 6521TIP3   OH241121   1.749   2.948   8.857  0.2218 -0.1109 -0.3829
 6521TIP3    H141122   1.803   2.870   8.844  1.7371  0.6934  0.8324
 6521TIP3    H241123   1.809   3.021   8.841 -1.2899  0.8675 -2.0292
 6522TIP3   OH241124   2.177   2.141   3.073 -0.1454  1.3080  0.3409
 6522TIP3    H141125   2.212   2.084   3.141  1.3690  0.8135 -0.7735
 6522TIP3    H241126   2.226   2.223   3.084 -1.1843  1.8631  0.9481
 6523TIP3   OH241127   2.244   5.087   0.698 -0.4819 -0.4618  0.4970
 6523TIP3    H141128   2.329   5.127   0.680  0.1348 -1.1236  1.8400
 6523TIP3    H241129   2.186   5.125   0.632  0.6791  0.5665  0.0213
 6524TIP3   OH241130   2.150   5.696   0.406 -0.2598 -0.0279 -0.5320
 6524TIP3    H141131   2.226   5.640   0.420  0.1847  0.3116 -1.4474
 6524TIP3    H241132   2.094   5.682   0.482  0.0385 -1.3849 -0.5477
 6525TIP3   OH241133   3.807   5.649   7.659 -0.1312 -0.0093  0.3214
 6525TIP3    H141134   3.776   5.613   7.742  0.5871  1.4151  1.2471
 6525TIP3    H241135   3.740   5.623   7.595 -1.9419  0.8112  1.7746
 6526TIP3   OH241136   4.332   5.199   0.018  0.2133  0.4763  0.4903
 6526TIP3    H141137   4.368   5.199  -0.070 -0.6564 -1.0971  0.0841
 6526TIP3    H241138   4.281   5.280   0.024 -1.3425 -0.3018 -1.1948
 6527TIP3   OH241139   4.380   3.360   2.789 -0.0229  0.1854 -0.0159
 6527TIP3    H141140   4.451   3.423   2.799  0.1662 -0.2171  1.5588
 6527TIP3    H241141   4.423   3.281   2.755  0.7860 -0.7508  2.8397
 6528TIP3   OH241142   1.752   3.166   1.098  0.4550  0.5020 -0.0033
 6528TIP3    H141143   1.693   3.169   1.173 -0.4928  0.5674 -0.7462
 6528TIP3    H241144   1.769   3.073   1.083 -0.2160  0.4409 -0.3798
 6529TIP3   OH241145   4.110   6.510   1.914 -0.9763  0.3025  0.1008
 6529TIP3    H141146   4.194   6.466   1.903 -0.7584  0.3997  1.2571
 6529TIP3    H241147   4.130   6.603   1.909 -0.8094  0.3623  1.5557
 6530TIP3   OH241148   6.119   5.699   1.361 -0.5740 -0.2229  0.0764
 6530TIP3    H141149   6.099   5.759   1.289 -0.5407  1.0485  1.0927
 6530TIP3    H241150   6.165   5.627   1.319  0.1959  0.8788 -1.0705
 6531TIP3   OH241151   6.205   3.765   0.652 -0.2980 -0.0567 -0.2370
 6531TIP3    H141152   6.142   3.814   0.600 -0.5446 -1.2822 -1.1330
 6531TIP3    H241153   6.268   3.732   0.588  0.4579 -0.0284  0.4769
 6532TIP3   OH241154   4.539   3.660   8.313 -0.2187 -0.3013 -0.7272
 6532TIP3    H141155   4.601   3.733   8.312  0.8122 -1.1528 -1.7400
 6532TIP3    H241156   4.477   3.680   8.243  1.4047 -1.4640 -2.5687
 6533TIP3   OH241157   3.120   2.358   1.880  0.4843 -0.2183  0.3093
 6533TIP3    H141158   3.136   2.423   1.811  0.0973 -2.8153 -2.4111
 6533TIP3    H241159   3.028   2.370   1.903  0.2874 -0.0949 -0.5055
 6534TIP3   OH241160   3.728   1.936   7.260  0.1967  0.1176 -0.3384
 6534TIP3    H141161   3.702   2.012   7.312 -1.3738 -1.0742  0.7145
 6534TIP3    H241162   3.756   1.972   7.176 -0.8020  1.8307  0.0242
 6535TIP3   OH241163   1.484   0.279   0.279  0.4786  0.1506 -0.1046
 6535TIP3    H141164   1.530   0.320   0.205  2.0273 -2.3808 -0.6451
 6535TIP3    H241165   1.537   0.300   0.355  0.1029  0.8807 -0.0334
 6536TIP3   OH241166   3.992   6.373   2.178  0.4352 -0.0532  0.8863
 6536TIP3    H141167   4.008   6.424   2.098 -1.4109  0.3905  0.7479
 6536TIP3    H241168   4.029   6.426   2.248  0.1244  0.6417  0.5408
 6537TIP3   OH241169   5.852   3.816   6.670  0.4335 -0.0502 -0.2366
 6537TIP3    H141170   5.805   3.736   6.695  0.6469 -0.1953 -0.2960
 6537TIP3    H241171   5.791   3.887   6.689  0.4744 -0.1771  0.3986
 6538TIP3   OH241172   4.925   5.258   8.436  0.0924  0.3528 -0.1424
 6538TIP3    H141173   4.886   5.175   8.461  1.0766 -0.3948 -1.0249
 6538TIP3    H241174   5.010   5.235   8.397  0.3418  1.7504 -0.4970
 6539TIP3   OH241175   3.888   4.471   3.101 -0.2232 -0.2562  0.1852
 6539TIP3    H141176   3.803   4.429   3.086 -0.5787  0.1261  1.0017
 6539TIP3    H241177   3.872   4.563   3.080  0.3051 -0.3695 -0.7407
 6540TIP3   OH241178   6.785   1.897   1.423  0.0883  0.9262  0.0507
 6540TIP3    H141179   6.835   1.907   1.342  0.0286  2.9526  0.2154
 6540TIP3    H241180   6.720   1.830   1.403  1.7950 -0.6002 -0.6806
 6541TIP3   OH241181   4.942   2.735   2.280 -0.1849  0.3639  0.3797
 6541TIP3    H141182   4.853   2.747   2.312 -0.4891 -0.3232 -0.1898
 6541TIP3    H241183   4.975   2.823   2.265 -0.5784  0.6389  1.1020
 6542TIP3   OH241184   0.885   0.007   0.156  0.1745 -0.1301  0.3919
 6542TIP3    H141185   0.866  -0.083   0.183 -0.4709  0.3183  1.4835
 6542TIP3    H241186   0.975   0.022   0.184 -0.3027  0.1401  1.8580
 6543TIP3   OH241187   0.507   3.541   1.564 -0.4944 -0.3934  0.2175
 6543TIP3    H141188   0.484   3.456   1.603 -1.7156  0.5317  1.6214
 6543TIP3    H241189   0.463   3.541   1.479 -1.5091 -0.7034  0.7245
 6544TIP3   OH241190   4.355   4.466   7.487 -0.5522 -0.2843 -0.9696
 6544TIP3    H141191   4.363   4.561   7.476  0.4439 -0.1063  0.7937
 6544TIP3    H241192   4.291   4.456   7.557  0.6179 -0.8044  0.0626
 6545TIP3   OH241193   3.792   5.368   3.062  0.2336 -0.1859  1.0401
 6545TIP3    H141194   3.880   5.405   3.065  0.2165 -0.1281  0.8285
 6545TIP3    H241195   3.738   5.436   3.021  0.6215 -1.2357 -1.4146
 6546TIP3   OH241196   2.980   1.366   0.917  0.1963  0.9545 -0.1635
 6546TIP3    H141197   3.049   1.362   0.983  1.1710 -0.9166 -1.2132
 6546TIP3    H241198   2.973   1.459   0.896  1.4272  1.3354  0.9506
 6547TIP3   OH241199   3.129   6.408   0.517  0.0129  0.3310  0.3244
 6547TIP3    H141200   3.209   6.404   0.568 -0.9048  0.8540  1.8741
 6547TIP3    H241201   3.071   6.343   0.556  0.5418 -2.0283 -2.4933
 6548TIP3   OH241202   4.570   3.203   0.081  0.2335  0.1943 -0.4367
 6548TIP3    H141203   4.638   3.136   0.093 -1.7174 -1.7477  0.6721
 6548TIP3    H241204   4.604   3.280   0.125  1.0985 -1.2054  1.5087
 6549TIP3   OH241205   2.756   2.434   8.534  0.1111 -0.1306 -0.0441
 6549TIP3    H141206   2.788   2.521   8.511 -2.7250  0.6244 -1.6331
 6549TIP3    H241207   2.826   2.375   8.507  1.2516  1.5234 -0.9178
 6550TIP3   OH241208   5.884   0.147   1.008 -0.2209 -0.0753  0.4126
 6550TIP3    H141209   5.850   0.128   0.921  0.4899 -1.0500  0.3355
 6550TIP3    H241210   5.883   0.063   1.054  0.0355  0.2968  1.1210
 6551TIP3   OH241211   4.473   4.501   1.163  0.1306 -0.3978 -0.4657
 6551TIP3    H141212   4.440   4.583   1.199  2.1176  0.2391  0.0349
 6551TIP3    H241213   4.502   4.524   1.074  0.3751 -0.6286 -0.4483
 6552TIP3   OH241214   4.059   6.364   0.971  0.2037  0.1262 -0.4824
 6552TIP3    H141215   4.124   6.323   0.913 -0.4940 -1.0465 -0.4646
 6552TIP3    H241216   4.111   6.408   1.038  0.9946 -0.6278 -0.5853
 6553TIP3   OH241217   2.887   4.195   8.070  0.4762  0.2164  0.3212
 6553TIP3    H141218   2.938   4.123   8.035  2.5567  1.7209  0.0735
 6553TIP3    H241219   2.851   4.239   7.993 -1.7699 -1.1403  0.5079
 6554TIP3   OH241220   2.617   1.271   1.291 -0.3984  0.0060  0.6083
 6554TIP3    H141221   2.677   1.303   1.224  0.8600 -4.6268 -0.8786
 6554TIP3    H241222   2.532   1.309   1.268  0.2925 -0.2184 -2.7622
 6555TIP3   OH241223   5.506   2.597   2.837  0.5876  0.6374  0.0937
 6555TIP3    H141224   5.447   2.671   2.851  1.0936  1.0864 -0.0828
 6555TIP3    H241225   5.558   2.592   2.918  0.8478  0.7527 -0.0638
 6556TIP3   OH241226   4.923   2.335   2.028 -0.1923 -0.0544 -0.2982
 6556TIP3    H141227   5.005   2.286   2.024  0.0272  0.3844 -1.7566
 6556TIP3    H241228   4.858   2.270   2.053  0.5918 -0.4024  0.9106
 6557TIP3   OH241229   4.344   3.603   7.730 -0.9754  0.1537 -0.0753
 6557TIP3    H141230   4.298   3.537   7.677  0.4240  0.6323 -2.0159
 6557TIP3    H241231   4.282   3.627   7.798 -3.6134  0.7519 -2.5204
 6558TIP3   OH241232   3.648   3.957   0.611  0.0429 -0.3262 -0.1822
 6558TIP3    H141233   3.696   3.990   0.687 -0.7929  0.0821  0.1839
 6558TIP3    H241234   3.583   3.897   0.648 -0.0797 -0.4642 -0.6162
 6559TIP3   OH241235   4.670   6.041   8.648  0.1794 -0.2361 -0.9214
 6559TIP3    H141236   4.758   6.050   8.611  1.5657 -0.5646  2.0456
 6559TIP3    H241237   4.656   6.121   8.698 -0.9408 -0.4988 -0.7799
 6560TIP3   OH241238   3.524   3.062   0.314  0.0699 -0.3089 -0.0896
 6560TIP3    H141239   3.451   3.111   0.352  0.2736  0.1628 -0.2986
 6560TIP3    H241240   3.485   2.980   0.283 -0.1615 -0.5467  0.8108
 6561TIP3   OH241241   6.426   0.814   0.456  0.4902 -0.3186  0.3259
 6561TIP3    H141242   6.474   0.867   0.393 -1.9579  0.5424 -0.9543
 6561TIP3    H241243   6.438   0.724   0.425 -1.0196  0.1076 -1.7725
 6562TIP3   OH241244   3.662   0.909   7.887  0.0486 -0.2786  0.5006
 6562TIP3    H141245   3.706   0.858   7.819 -0.0306 -1.0556  1.0195
 6562TIP3    H241246   3.655   0.997   7.849  1.2251 -0.3509  0.0478
 6563TIP3   OH241247   2.726   1.640   2.075 -0.2901  0.2437 -0.2194
 6563TIP3    H141248   2.691   1.689   2.001  0.6352 -0.3554 -1.0875
 6563TIP3    H241249   2.808   1.685   2.097 -0.1662 -0.0380 -0.0914
 6564TIP3   OH241250   4.547   3.852   0.777 -0.3909 -0.3133 -0.0577
 6564TIP3    H141251   4.485   3.821   0.711  1.7629 -2.1176 -1.3516
 6564TIP3    H241252   4.549   3.781   0.842  0.3537 -0.3194 -0.0812
 6565TIP3   OH241253   3.539   5.440   6.919  0.5809 -0.4687  0.0802
 6565TIP3    H141254   3.462   5.385   6.930  1.4984 -1.6682  0.6951
 6565TIP3    H241255   3.508   5.514   6.866 -0.8792 -1.1281 -0.0361
 6566TIP3   OH241256   3.841   0.569   2.036  0.2921 -0.2048  0.3931
 6566TIP3    H141257   3.795   0.595   1.956 -0.0528 -0.5865  0.4614
 6566TIP3    H241258   3.773   0.562   2.102  0.4535 -0.7000  0.5151
 6567TIP3   OH241259   4.897   3.258   1.635  0.6465  0.5823 -0.9097
 6567TIP3    H141260   4.965   3.201   1.598  1.5721  2.0342 -1.5744
 6567TIP3    H241261   4.918   3.345   1.599 -1.4933  1.1003 -1.0170
 6568TIP3   OH241262   5.418   2.849   8.777 -0.3701 -0.3769 -0.3882
 6568TIP3    H141263   5.347   2.786   8.762 -1.5401  1.1886 -1.8163
 6568TIP3    H241264   5.478   2.835   8.704  0.1812 -0.8519  0.1425
 6569TIP3   OH241265   4.950   4.657   8.064  0.3267 -0.1266  0.1238
 6569TIP3    H141266   4.900   4.688   7.988 -0.6474 -0.0149  0.7828
 6569TIP3    H241267   5.023   4.608   8.027  1.1244  1.7722 -0.9263
 6570TIP3   OH241268   6.051   2.210   7.085 -0.2869 -0.2917 -0.5436
 6570TIP3    H141269   6.129   2.248   7.044 -1.4323  1.2019 -1.3958
 6570TIP3    H241270   6.002   2.172   7.013 -0.7182 -0.5699 -0.1056
 6571TIP3   OH241271   5.470   4.478   7.644 -0.3339 -0.3316  0.5966
 6571TIP3    H141272   5.410   4.433   7.585 -1.1902  1.1892  0.2450
 6571TIP3    H241273   5.437   4.458   7.732 -1.5480  0.6805  0.3995
 6572TIP3   OH241274   6.777   4.352   8.641 -0.1500 -0.7814  0.5488
 6572TIP3    H141275   6.726   4.271   8.646 -1.5584  0.0057 -0.4035
 6572TIP3    H241276   6.763   4.384   8.552 -0.3095  0.9398  1.1562
 6573TIP3   OH241277   4.731   1.532   7.829  0.5385  0.1768  0.1609
 6573TIP3    H141278   4.782   1.577   7.896  2.0291 -1.9768  0.5732
 6573TIP3    H241279   4.796   1.498   7.768 -0.5115 -1.1876 -0.2440
 6574TIP3   OH241280   3.422   1.551   6.600  0.6532  0.1096 -0.7452
 6574TIP3    H141281   3.356   1.532   6.668 -1.9842 -3.1442 -3.8338
 6574TIP3    H241282   3.484   1.479   6.606  0.6663  0.0592 -1.4875
 6575TIP3   OH241283   5.656   4.363   7.296  0.5199  0.2913 -0.7534
 6575TIP3    H141284   5.629   4.275   7.321  0.6312  0.8951  1.7411
 6575TIP3    H241285   5.729   4.383   7.354 -1.5319  3.1821  1.0682
 6576TIP3   OH241286   4.533   4.472   8.453  0.1117  0.4710 -0.5688
 6576TIP3    H141287   4.488   4.550   8.421  0.6756  0.3435 -1.7399
 6576TIP3    H241288   4.624   4.482   8.423  0.5461  0.0722  0.5570
 6577TIP3   OH241289   0.443   2.203   8.256  0.2260 -0.2856  0.1198
 6577TIP3    H141290   0.366   2.252   8.285  0.0567  0.8479 -2.0621
 6577TIP3    H241291   0.408   2.120   8.224 -0.4406  0.9980 -2.7375
 6578TIP3   OH241292   6.087   2.507   0.628 -0.1371  0.2599  0.5330
 6578TIP3    H141293   6.097   2.502   0.723 -1.5091  0.3339  0.6983
 6578TIP3    H241294   6.176   2.496   0.594  0.4270  0.5821  1.8310
 6579TIP3   OH241295   1.103   5.666   0.750  0.2474 -0.4058  0.5991
 6579TIP3    H141296   1.099   5.573   0.727  1.4728 -0.6476  1.2952
 6579TIP3    H241297   1.118   5.711   0.666 -1.6337 -0.6736  0.0571
 6580TIP3   OH241298   3.469   4.702   1.830  0.1028  0.6542  0.0475
 6580TIP3    H141299   3.492   4.778   1.884  0.4276  1.2938 -0.9721
 6580TIP3    H241300   3.376   4.714   1.810 -0.3345 -0.1828  1.3668
 6581TIP3   OH241301   3.245   3.495   0.836  0.5839  0.1702  0.4197
 6581TIP3    H141302   3.223   3.443   0.759 -2.1320 -1.1528  1.9366
 6581TIP3    H241303   3.181   3.468   0.902  0.3069  3.9881  1.9695
 6582TIP3   OH241304   0.536   2.967   0.530  0.1052  0.4241 -0.7339
 6582TIP3    H141305   0.622   2.933   0.508  0.1854  1.0992 -1.5475
 6582TIP3    H241306   0.510   2.920   0.609  0.4665 -1.0439 -1.4496
 6583TIP3   OH241307   0.485   2.678   8.632  0.3370 -0.4210 -0.3370
 6583TIP3    H141308   0.482   2.588   8.599  2.3216 -2.0179  3.1979
 6583TIP3    H241309   0.578   2.693   8.649 -0.1175  1.7902  0.4679
 6584TIP3   OH241310   2.541   6.736   7.892  0.2405 -0.3772  0.4027
 6584TIP3    H141311   2.526   6.802   7.958 -0.0036  1.0820 -1.0503
 6584TIP3    H241312   2.619   6.766   7.845 -0.2440 -0.7605 -0.6832
 6585TIP3   OH241313   0.809   0.965   7.788  0.6737 -0.1823  0.2240
 6585TIP3    H141314   0.855   0.950   7.870  1.3512 -0.7863 -0.2598
 6585TIP3    H241315   0.718   0.944   7.807  1.3791 -4.4544 -0.1895
 6586TIP3   OH241316   6.340   1.164   0.829 -0.6002  0.5250 -0.3675
 6586TIP3    H141317   6.247   1.152   0.846 -1.0321  0.8728 -2.2002
 6586TIP3    H241318   6.354   1.124   0.743  0.9145  0.6255 -0.2006
 6587TIP3   OH241319   0.522   1.055   3.172  0.1579 -0.2754 -0.2055
 6587TIP3    H141320   0.474   1.126   3.129 -2.8517 -1.6853  0.5285
 6587TIP3    H241321   0.590   1.031   3.109 -0.2515  1.6791 -1.4921
 6588TIP3   OH241322   4.601   1.006   3.176  0.0373 -0.1650  0.3879
 6588TIP3    H141323   4.546   1.056   3.115  0.3059  1.1936  1.2243
 6588TIP3    H241324   4.690   1.037   3.159  0.2837 -0.7820  0.5308
 6589TIP3   OH241325   3.459   2.910   7.638  0.0793 -0.4467 -0.3418
 6589TIP3    H141326   3.483   2.817   7.642  0.6694 -0.2724  0.3762
 6589TIP3    H241327   3.369   2.910   7.606  0.7347 -1.1613 -2.3631
 6590TIP3   OH241328   1.971   0.899   2.383 -0.4408  0.7502 -0.1705
 6590TIP3    H141329   2.043   0.946   2.340 -0.9166  3.1821  1.4973
 6590TIP3    H241330   1.951   0.827   2.323  1.1467  1.9524 -2.3170
 6591TIP3   OH241331   1.758   4.111   2.058  0.0442 -0.2372 -0.0624
 6591TIP3    H141332   1.819   4.064   2.002 -0.8320  1.7618 -2.9520
 6591TIP3    H241333   1.808   4.132   2.137  2.6663  0.1735 -1.7408
 6592TIP3   OH241334   4.815   1.150   1.407 -0.5043  0.0480 -0.2828
 6592TIP3    H141335   4.883   1.153   1.473  0.6226 -1.9072 -1.2482
 6592TIP3    H241336   4.744   1.101   1.447 -0.2801 -0.1606 -0.1412
 6593TIP3   OH241337   2.449   5.757   2.014  0.5894  0.5743  0.4946
 6593TIP3    H141338   2.528   5.756   1.960  0.3870 -0.0732  0.2046
 6593TIP3    H241339   2.386   5.809   1.964  0.7364  0.8486  0.5927
 6594TIP3   OH241340   0.818   6.537   2.922  0.4315 -0.5246  0.4778
 6594TIP3    H141341   0.748   6.599   2.904  0.3354 -0.0795  2.2231
 6594TIP3    H241342   0.822   6.482   2.844 -2.4050 -1.1012  0.6608
 6595TIP3   OH241343   5.629   3.823   0.359 -0.3199  0.2215 -0.0845
 6595TIP3    H141344   5.622   3.869   0.443  1.1272 -0.4120  0.4217
 6595TIP3    H241345   5.628   3.730   0.383  0.2562  0.0398 -0.7481
 6596TIP3   OH241346   2.603   6.143   7.688 -0.5615 -0.3211 -0.3022
 6596TIP3    H141347   2.526   6.139   7.631 -1.0791 -0.3338  0.3776
 6596TIP3    H241348   2.582   6.084   7.760  0.6442 -1.3282 -0.7445
 6597TIP3   OH241349   5.790   6.728   8.848 -0.3196 -1.0334  0.0557
 6597TIP3    H141350   5.783   6.821   8.872 -2.5847 -1.0353 -0.3491
 6597TIP3    H241351   5.867   6.697   8.896  0.6191  1.0758  0.0428
 6598TIP3   OH241352   4.617   2.383   8.764  0.8942 -0.1805  0.4738
 6598TIP3    H141353   4.611   2.478   8.768  1.8871 -0.1584  2.1523
 6598TIP3    H241354   4.545   2.352   8.818  0.8861 -0.3801  0.3502
 6599TIP3   OH241355   4.335   1.864   1.877 -0.1820  0.4623  0.2126
 6599TIP3    H141356   4.313   1.923   1.805 -1.8090 -1.3814 -0.8876
 6599TIP3    H241357   4.290   1.901   1.953 -2.0249  0.1506 -0.6785
 6600TIP3   OH241358   5.249   4.286   0.482  0.2796  0.2354  0.9885
 6600TIP3    H141359   5.197   4.352   0.436  1.9718  0.5569 -0.5271
 6600TIP3    H241360   5.295   4.239   0.413  0.1409 -1.6952  2.1336
 6601TIP3   OH241361   2.838   4.494   8.747 -0.3771 -0.1724  0.3443
 6601TIP3    H141362   2.800   4.563   8.693  1.3145 -0.1472 -0.8808
 6601TIP3    H241363   2.763   4.442   8.776 -1.3975  0.2772 -1.3737
 6602TIP3   OH241364   4.468   0.052   0.259  0.3429 -0.3967 -0.0098
 6602TIP3    H141365   4.513  -0.016   0.308 -1.8524 -1.4896  0.5984
 6602TIP3    H241366   4.489   0.033   0.167  1.1079 -0.8444  0.2492
 6603TIP3   OH241367   0.268   1.886   8.531  0.1732 -0.3117  0.7680
 6603TIP3    H141368   0.347   1.890   8.477  0.4048  1.0095  1.1605
 6603TIP3    H241369   0.291   1.934   8.611 -1.6426  1.9746  0.0256
 6604TIP3   OH241370   2.652   5.529   0.880  0.6925 -0.3804  0.5655
 6604TIP3    H141371   2.737   5.518   0.838  1.1271  2.1247  0.6543
 6604TIP3    H241372   2.649   5.621   0.905 -0.7831 -1.0787  3.3872
 6605TIP3   OH241373   2.621   0.023   0.036 -0.1926 -0.2574  0.4290
 6605TIP3    H141374   2.704   0.063   0.011  0.0932 -0.2058  1.3926
 6605TIP3    H241375   2.631  -0.070   0.015 -0.4596 -0.0077 -0.8364
 6606TIP3   OH241376   1.747   1.603   7.934 -0.3842 -0.1267 -0.1950
 6606TIP3    H141377   1.670   1.558   7.968 -0.9146  1.3326  0.6526
 6606TIP3    H241378   1.716   1.690   7.911  0.8513  0.2454 -0.5701
 6607TIP3   OH241379   2.711   3.405   8.457  0.1823 -0.0623  0.4829
 6607TIP3    H141380   2.783   3.351   8.426 -0.5316 -0.9709  0.3649
 6607TIP3    H241381   2.632   3.355   8.436 -0.3723 -1.4895  4.9222
 6608TIP3   OH241382   6.481   2.887   8.291  0.5908 -0.4489 -0.1180
 6608TIP3    H141383   6.427   2.859   8.365  1.6674  2.1170  1.7798
 6608TIP3    H241384   6.418   2.904   8.221 -0.9966  1.1156  1.5823
 6609TIP3   OH241385   3.326   2.193   7.726 -0.7065  0.0423  0.3073
 6609TIP3    H141386   3.308   2.149   7.644 -1.6644 -0.3797  0.7245
 6609TIP3    H241387   3.416   2.223   7.719 -0.2930 -1.2925 -0.2955
 6610TIP3   OH241388   4.423   5.926   8.820 -0.0978 -0.2316 -0.6098
 6610TIP3    H141389   4.354   5.872   8.859 -0.3296  0.5454  0.0657
 6610TIP3    H241390   4.378   6.002   8.785  0.5440  1.0732  1.2404
 6611TIP3   OH241391   3.089   4.012   7.055 -0.3171  0.7224 -0.2781
 6611TIP3    H141392   3.006   4.049   7.084 -1.9897 -0.8943 -2.6564
 6611TIP3    H241393   3.144   4.088   7.033 -0.6324  1.8484  2.4006
 6612TIP3   OH241394   6.343   0.638   3.012  0.3374  0.0880 -0.0970
 6612TIP3    H141395   6.295   0.674   3.086 -0.6867  1.4543 -1.3707
 6612TIP3    H241396   6.301   0.554   2.995 -1.3641  1.0744 -0.9226
 6613TIP3   OH241397   4.362   6.025   0.570 -0.3357  0.4563 -0.5770
 6613TIP3    H141398   4.437   6.080   0.593 -1.3278  0.1914  4.3958
 6613TIP3    H241399   4.401   5.940   0.546  1.0118  0.8995 -0.0467
 6614TIP3   OH241400   4.458   5.611   1.482  0.2394  0.0136 -0.3611
 6614TIP3    H141401   4.375   5.640   1.445  0.5228 -0.8621 -1.7615
 6614TIP3    H241402   4.453   5.515   1.482  2.2952 -0.2286 -3.2260
 6615TIP3   OH241403   1.215   0.800   0.238  0.6048 -0.2340  0.1852
 6615TIP3    H141404   1.129   0.831   0.210  0.6562  0.9883  1.2700
 6615TIP3    H241405   1.232   0.722   0.185 -0.3374  0.5942 -1.3774
 6616TIP3   OH241406   5.195   1.587   2.086  0.1474 -0.2676 -0.1967
 6616TIP3    H141407   5.141   1.554   2.158 -1.9050  0.1150 -1.4621
 6616TIP3    H241408   5.258   1.645   2.127 -0.1665 -1.0040  1.4065
 6617TIP3   OH241409   0.913   4.253   1.353  0.4710  0.1624  0.2813
 6617TIP3    H141410   1.008   4.260   1.355  0.4504  0.4014  0.3747
 6617TIP3    H241411   0.884   4.287   1.437  0.4403 -1.9805  1.2131
 6618TIP3   OH241412   6.764   3.244   8.672 -0.1106 -0.5048 -0.8068
 6618TIP3    H141413   6.748   3.284   8.758  0.0417  1.3941 -1.6148
 6618TIP3    H241414   6.677   3.216   8.642 -0.2685 -0.4951 -0.3667
 6619TIP3   OH241415   4.353   2.743   8.715  0.1112 -0.3650  0.3960
 6619TIP3    H141416   4.414   2.769   8.784 -1.2011  2.3876  0.6292
 6619TIP3    H241417   4.296   2.818   8.703 -2.2575 -2.2291 -0.9389
 6620TIP3   OH241418   0.850   1.700   0.765  0.7305 -0.2885 -0.1589
 6620TIP3    H141419   0.889   1.624   0.808  0.0830  0.1715  1.2992
 6620TIP3    H241420   0.802   1.746   0.834 -0.0965  0.6680 -1.3085
 6621TIP3   OH241421   4.169   0.622   2.842 -0.1928 -0.1158 -0.0814
 6621TIP3    H141422   4.205   0.538   2.813  1.0408 -0.3009  1.7850
 6621TIP3    H241423   4.105   0.598   2.909 -2.5801  0.3142 -2.0656
 6622TIP3   OH241424   4.907   0.007   1.113  0.1255  0.6043 -0.4607
 6622TIP3    H141425   4.815   0.005   1.140  0.0492  1.4687 -0.6546
 6622TIP3    H241426   4.915   0.084   1.057  0.6932 -0.1523 -1.4707
 6623TIP3   OH241427   4.982   3.149   0.506  0.2412 -0.4980 -0.3360
 6623TIP3    H141428   4.956   3.187   0.590  0.2488  0.9134 -0.9467
 6623TIP3    H241429   5.039   3.216   0.466 -2.8121  0.6713 -3.1561
 6624TIP3   OH241430   0.692   6.133   2.758 -0.5160 -0.2010 -0.4110
 6624TIP3    H141431   0.616   6.168   2.804 -0.2854  1.6335 -1.3358
 6624TIP3    H241432   0.705   6.046   2.796 -1.7789  0.2822  1.2551
 6625TIP3   OH241433   0.033   4.757   7.908  0.5571 -0.0433  0.4723
 6625TIP3    H141434  -0.021   4.683   7.934 -1.7047  0.6467 -1.8240
 6625TIP3    H241435  -0.015   4.834   7.940  0.7393  0.5631 -0.6751
 6626TIP3   OH241436   1.031   0.887   1.520  0.2414  0.1155 -0.2855
 6626TIP3    H141437   1.092   0.866   1.449  0.5116  0.9763 -0.3168
 6626TIP3    H241438   1.069   0.846   1.597 -0.2571 -1.1705 -0.6890
 6627TIP3   OH241439   5.440   1.158   8.469  0.5418 -0.1476 -0.1860
 6627TIP3    H141440   5.474   1.243   8.499 -0.0470 -0.0926  0.3513
 6627TIP3    H241441   5.408   1.116   8.548 -0.3857 -0.3122 -0.6348
 6628TIP3   OH241442   1.555   1.235   3.046 -0.1338  0.0926 -0.1217
 6628TIP3    H141443   1.599   1.318   3.064 -0.4395  0.5654 -1.4805
 6628TIP3    H241444   1.626   1.176   3.021  0.0976 -0.1117  0.9498
 6629TIP3   OH241445   4.697   6.351   2.044  0.6045 -0.0716  0.5732
 6629TIP3    H141446   4.658   6.433   2.012  0.1654 -0.0862  1.0677
 6629TIP3    H241447   4.622   6.295   2.063  0.8926 -0.3963  0.7582
 6630TIP3   OH241448   6.583   4.415   7.576 -0.2841  0.1472  0.1774
 6630TIP3    H141449   6.583   4.506   7.607  0.2627 -0.5561  2.4996
 6630TIP3    H241450   6.492   4.387   7.585 -0.1313 -0.0500  1.2623
 6631TIP3   OH241451   3.218   2.082   0.757 -0.3276  0.0712  0.1939
 6631TIP3    H141452   3.158   2.076   0.682 -0.3927 -0.6469  0.2902
 6631TIP3    H241453   3.215   2.174   0.784 -0.5698  0.2608 -0.4668
 6632TIP3   OH241454   3.202   5.680   8.838  0.6606 -0.3732  0.4311
 6632TIP3    H141455   3.271   5.704   8.900 -0.3063 -0.5965  1.6271
 6632TIP3    H241456   3.214   5.586   8.824  1.2230 -0.2185 -0.1748
 6633TIP3   OH241457   2.493   1.626   2.209 -0.7015 -0.1090  0.7214
 6633TIP3    H141458   2.489   1.536   2.238 -2.4627 -1.1291 -2.1552
 6633TIP3    H241459   2.573   1.632   2.157 -0.6451 -0.0440  0.8152
 6634TIP3   OH241460   0.557   5.142   7.594 -0.3019  0.2974  0.3723
 6634TIP3    H141461   0.643   5.133   7.635  0.2226  1.1143 -0.5080
 6634TIP3    H241462   0.573   5.196   7.516 -1.6007  0.4064  0.1610
 6635TIP3   OH241463   0.697   6.697   8.862 -0.3886 -0.5294 -0.2929
 6635TIP3    H141464   0.788   6.698   8.833 -0.5845 -0.1540 -0.9065
 6635TIP3    H241465   0.702   6.716   8.956  0.2248 -1.4450 -0.1256
 6636TIP3   OH241466   6.665   5.802   0.645 -0.5369  0.0162  0.2892
 6636TIP3    H141467   6.696   5.834   0.561 -0.1513  2.4410  1.2873
 6636TIP3    H241468   6.683   5.707   0.642 -1.5538 -0.1905 -2.7238
 6637TIP3   OH241469   4.536   5.804   8.583 -0.3114 -0.7912  0.6339
 6637TIP3    H141470   4.597   5.874   8.559 -1.0199 -0.6139 -0.7770
 6637TIP3    H241471   4.509   5.825   8.672  0.3766  0.0836  0.6464
 6638TIP3   OH241472   0.174   2.524   1.977 -0.2678 -0.0578 -0.6357
 6638TIP3    H141473   0.163   2.549   2.068  1.0229  1.1087 -0.7665
 6638TIP3    H241474   0.266   2.501   1.969 -0.2253  0.4119 -1.7505
 6639TIP3   OH241475   2.648   4.653   0.438 -0.2545  0.0532 -0.5861
 6639TIP3    H141476   2.627   4.561   0.454 -0.5807  0.0521 -0.9948
 6639TIP3    H241477   2.713   4.675   0.505 -1.1103 -0.1194  0.3293
 6640TIP3   OH241478   6.148   3.037   6.760  0.6752  0.4655  0.8315
 6640TIP3    H141479   6.182   2.948   6.753 -1.0298 -0.1205 -0.9016
 6640TIP3    H241480   6.154   3.057   6.853 -1.7773 -2.7074  1.8593
 6641TIP3   OH241481   0.968   2.038   1.573 -0.3333  0.7629 -0.1783
 6641TIP3    H141482   1.026   2.043   1.649 -0.2996  0.1901 -0.1566
 6641TIP3    H241483   1.018   1.989   1.508 -1.2929 -1.0350  0.3480
 6642TIP3   OH241484   0.839   1.651   1.521  0.3890 -0.1098  1.0378
 6642TIP3    H141485   0.861   1.724   1.464 -1.1640  0.0591  0.6209
 6642TIP3    H241486   0.922   1.628   1.564  0.9749  1.6281  0.8878
 6643TIP3   OH241487   3.623   1.180   1.768  0.4500  0.1782  0.3066
 6643TIP3    H141488   3.578   1.230   1.835  0.2819  0.3816  0.0428
 6643TIP3    H241489   3.713   1.173   1.800  0.6853  1.3749 -0.0560
 6644TIP3   OH241490   2.306   0.421   2.466 -0.6916 -0.5162 -0.1402
 6644TIP3    H141491   2.313   0.326   2.462 -2.1323 -0.6207 -0.6052
 6644TIP3    H241492   2.319   0.451   2.376 -0.6507 -0.3068 -0.0664
 6645TIP3   OH241493   0.284   5.183   2.257 -0.7676  0.7174  0.2117
 6645TIP3    H141494   0.339   5.193   2.335 -1.4827  1.4262  0.6361
 6645TIP3    H241495   0.346   5.182   2.184 -0.0469 -0.4521  0.8003
 6646TIP3   OH241496   2.170   2.294   2.247 -0.3225  0.2481 -0.4147
 6646TIP3    H141497   2.210   2.365   2.297  2.4842 -0.6042 -1.2755
 6646TIP3    H241498   2.219   2.292   2.165  0.1067 -3.0029 -0.2016
 6647TIP3   OH241499   4.315   2.826   1.460 -0.1433  0.1701 -0.1339
 6647TIP3    H141500   4.238   2.823   1.516  0.5230  0.1983  0.8120
 6647TIP3    H241501   4.280   2.827   1.371 -1.2364  0.5914  0.2801
 6648TIP3   OH241502   1.747   1.363   7.062  0.1682 -0.3819 -0.3580
 6648TIP3    H141503   1.673   1.344   7.119  1.4226  0.2888  1.6045
 6648TIP3    H241504   1.756   1.286   7.006  0.7755 -2.5561  2.5137
 6649TIP3   OH241505   6.433   2.169   3.296  0.2876  0.5625  0.3206
 6649TIP3    H141506   6.350   2.147   3.254  0.5832  0.3144 -0.1415
 6649TIP3    H241507   6.412   2.241   3.355 -0.1100  0.9946 -0.3339
 6650TIP3   OH241508   1.358   1.233   0.653 -0.6600  0.0456 -0.0960
 6650TIP3    H141509   1.356   1.247   0.558 -1.2116 -1.3712 -0.3180
 6650TIP3    H241510   1.433   1.175   0.667 -1.2553 -0.6901  0.1634
 6651TIP3   OH241511   5.775   1.320   0.352  0.0006  0.1422  0.6254
 6651TIP3    H141512   5.853   1.283   0.393 -0.5310 -0.3998  1.1585
 6651TIP3    H241513   5.715   1.247   0.345 -1.0772  0.8825  1.7112
 6652TIP3   OH241514   3.294   5.710   0.630  0.0421 -0.2343  0.5514
 6652TIP3    H141515   3.319   5.625   0.666 -2.4386 -2.0421 -1.5301
 6652TIP3    H241516   3.304   5.700   0.535 -0.7510  1.6371  0.2115
 6653TIP3   OH241517   5.819   2.237   1.318 -0.7035  0.0285 -0.2019
 6653TIP3    H141518   5.862   2.160   1.354  0.3555  0.6623 -0.0576
 6653TIP3    H241519   5.841   2.307   1.380 -0.0747  0.8289 -1.2995
 6654TIP3   OH241520   5.600   5.791   1.557  0.3547 -0.0516 -0.0786
 6654TIP3    H141521   5.547   5.853   1.508  1.5408  1.1384  0.0997
 6654TIP3    H241522   5.634   5.731   1.491 -0.7055 -0.4621 -0.2667
 6655TIP3   OH241523   4.981   2.971   7.593 -0.2076  0.0905 -0.5195
 6655TIP3    H141524   4.891   2.948   7.617 -0.4904  0.2789 -1.3566
 6655TIP3    H241525   4.994   2.930   7.507  0.3384  0.4786 -0.6248
 6656TIP3   OH241526   5.654   4.764   8.250 -0.5456  0.4781  0.6021
 6656TIP3    H141527   5.677   4.783   8.341 -0.0396  1.1325  0.3532
 6656TIP3    H241528   5.627   4.672   8.250  0.6341  0.1140  1.1964
 6657TIP3   OH241529   3.286   2.573   8.444  0.5014 -0.2544 -0.4770
 6657TIP3    H141530   3.283   2.531   8.530 -0.1098 -0.5254 -0.6224
 6657TIP3    H241531   3.258   2.663   8.460 -0.9237 -0.6519 -0.5774
 6658TIP3   OH241532   5.004   5.884   1.725 -0.0621 -0.0672 -0.1468
 6658TIP3    H141533   4.912   5.877   1.752 -0.9906  0.5191 -2.7972
 6658TIP3    H241534   5.010   5.829   1.647  1.4046  1.1769 -0.9720
 6659TIP3   OH241535   2.866   4.640   0.131  0.2748  0.4500  0.0251
 6659TIP3    H141536   2.771   4.640   0.117 -0.0161 -2.5666  1.2073
 6659TIP3    H241537   2.903   4.615   0.047 -0.1371 -0.4132  0.0984
 6660TIP3   OH241538   5.477   0.057   7.858  0.3722  0.1612  0.3051
 6660TIP3    H141539   5.427   0.076   7.779 -0.7070  1.0993  1.1797
 6660TIP3    H241540   5.519  -0.027   7.840  0.1497  0.3584 -1.2524
 6661TIP3   OH241541   5.525   2.517   6.749 -0.0283  0.0184 -0.8487
 6661TIP3    H141542   5.446   2.502   6.697 -1.2795  1.0411  0.6650
 6661TIP3    H241543   5.509   2.471   6.832  0.3597  1.3204 -0.0185
 6662TIP3   OH241544   2.356   2.953   7.187  0.0340 -0.3172 -0.3184
 6662TIP3    H141545   2.364   2.891   7.259 -0.2190  1.8291  1.6727
 6662TIP3    H241546   2.431   3.011   7.196 -0.9492  1.0699 -0.6760
 6663TIP3   OH241547   1.277   0.909   0.501  0.2151 -0.3396 -0.0435
 6663TIP3    H141548   1.369   0.937   0.495 -0.5244  2.0755 -1.1028
 6663TIP3    H241549   1.264   0.854   0.424  0.5712 -0.0333 -0.3274
 6664TIP3   OH241550   2.471   6.017   2.347 -0.2926 -0.3240 -0.3252
 6664TIP3    H141551   2.555   6.047   2.382 -0.3053  0.9203 -1.2837
 6664TIP3    H241552   2.446   6.084   2.284 -1.5605 -1.1507 -0.7456
 6665TIP3   OH241553   1.047   1.353   8.109  0.0657 -0.0945  0.2445
 6665TIP3    H141554   1.073   1.432   8.154 -0.2348  0.2104 -0.1087
 6665TIP3    H241555   0.976   1.380   8.051  0.5646 -0.4408 -0.5462
 6666TIP3   OH241556   2.096   5.476   2.093 -0.4494  0.4894  0.1419
 6666TIP3    H141557   2.050   5.543   2.043 -0.3080  0.4531 -0.0403
 6666TIP3    H241558   2.171   5.453   2.037  0.4746  1.4230  0.9590
 6667TIP3   OH241559   0.034   0.332   1.937 -0.8188 -0.0531 -0.1877
 6667TIP3    H141560   0.125   0.341   1.909  0.2572 -3.1011  1.7699
 6667TIP3    H241561  -0.016   0.327   1.855  1.1629 -1.1074 -1.4176
 6668TIP3   OH241562   4.474   0.981   7.820 -0.6338 -0.5989 -0.4739
 6668TIP3    H141563   4.546   0.971   7.882  0.5062  1.5365 -1.3412
 6668TIP3    H241564   4.489   0.914   7.754 -0.7300 -1.5875  0.4717
 6669TIP3   OH241565   0.268   4.738   7.779  0.0662  0.0008 -0.8892
 6669TIP3    H141566   0.289   4.824   7.744 -0.8772 -0.1534 -1.8953
 6669TIP3    H241567   0.175   4.744   7.803  0.1929 -0.5007 -0.2447
 6670TIP3   OH241568   2.242   0.182   7.821 -0.0545  0.0198  0.2851
 6670TIP3    H141569   2.273   0.181   7.731  1.2760  1.6776  0.6805
 6670TIP3    H241570   2.161   0.232   7.818  0.4750  0.8832  0.1330
 6671TIP3   OH241571   5.251   3.210   1.078 -0.1333  0.6612  0.1923
 6671TIP3    H141572   5.345   3.194   1.066 -0.4331 -1.5947  0.5038
 6671TIP3    H241573   5.213   3.123   1.088 -2.1867  1.5740  0.7542
 6672TIP3   OH241574   1.676   3.041   0.207 -0.1950  0.1000 -0.1308
 6672TIP3    H141575   1.646   3.007   0.122  2.5159 -0.9270 -0.8013
 6672TIP3    H241576   1.729   2.970   0.243 -1.4123  0.4438  2.5827
 6673TIP3   OH241577   3.467   0.561   2.664 -0.8110  0.2244 -0.1652
 6673TIP3    H141578   3.389   0.512   2.638 -0.1668 -0.6292 -0.5802
 6673TIP3    H241579   3.436   0.648   2.685 -1.7927  0.0642 -0.9040
 6674TIP3   OH241580   0.621   1.988   7.508  0.0944  0.1591 -0.3202
 6674TIP3    H141581   0.665   2.068   7.537  0.8412 -0.7764  1.2721
 6674TIP3    H241582   0.629   1.989   7.413 -1.0366  2.5898 -0.4751
 6675TIP3   OH241583   4.242   3.621   8.307  1.0565  0.2057  0.4512
 6675TIP3    H141584   4.245   3.621   8.211  3.0636  1.7144  0.4523
 6675TIP3    H241585   4.182   3.692   8.330  1.3735  0.5230  0.3040
 6676TIP3   OH241586   0.153   1.559   2.578 -0.8315 -0.0410 -0.0605
 6676TIP3    H141587   0.200   1.599   2.652 -0.7587  0.8804 -0.5872
 6676TIP3    H241588   0.100   1.630   2.543 -1.6175 -0.7365 -0.2923
 6677TIP3   OH241589   4.050   5.285   0.575 -0.0198  0.0294 -0.3368
 6677TIP3    H141590   4.096   5.211   0.534 -1.5296 -1.1348 -0.0095
 6677TIP3    H241591   4.007   5.330   0.502 -2.1503 -1.6471 -0.2273
 6678TIP3   OH241592   5.622   6.188   7.795  0.4844  0.3155  0.0777
 6678TIP3    H141593   5.575   6.268   7.775 -0.2995 -0.2555 -0.4449
 6678TIP3    H241594   5.590   6.162   7.882  2.9208  2.0930  1.6744
 6679TIP3   OH241595   2.481   0.924   8.445  0.2555  0.4573  0.1121
 6679TIP3    H141596   2.407   0.865   8.433  1.3642 -1.5908  2.4271
 6679TIP3    H241597   2.503   0.917   8.538  2.8444  1.5992 -0.3116
 6680TIP3   OH241598   3.961   0.189   1.178 -0.4344  0.5178 -0.4484
 6680TIP3    H141599   3.905   0.250   1.226 -0.4362  0.7100 -0.6934
 6680TIP3    H241600   3.905   0.113   1.162 -0.6644  0.7545 -0.7878
 6681TIP3   OH241601   6.011   5.694   2.332 -0.4893  0.0813  0.0443
 6681TIP3    H141602   6.083   5.653   2.380  0.4410  0.0227 -1.3463
 6681TIP3    H241603   5.976   5.759   2.393  0.6423  0.0153  0.8064
 6682TIP3   OH241604   3.653   1.064   0.239  0.1227  0.3832 -0.6883
 6682TIP3    H141605   3.689   1.027   0.159 -1.0300  1.5342 -1.7979
 6682TIP3    H241606   3.576   1.009   0.258  0.8814 -0.4265  0.1625
 6683TIP3   OH241607   2.668   0.773   1.105 -0.1187 -0.1200  0.4242
 6683TIP3    H141608   2.655   0.819   1.022  0.2655  0.5208  0.7050
 6683TIP3    H241609   2.625   0.830   1.170 -0.3162 -0.5567  0.6807
 6684TIP3   OH241610   4.908   0.606   2.448 -0.0617  0.1004  0.4636
 6684TIP3    H141611   4.954   0.650   2.519 -0.8126  0.2574  0.8630
 6684TIP3    H241612   4.975   0.554   2.404 -0.1149 -2.4706  3.1585
 6685TIP3   OH241613   4.223   5.098   8.328 -0.2919  0.2163 -0.3981
 6685TIP3    H141614   4.230   5.155   8.405 -0.8464  1.2325 -1.0688
 6685TIP3    H241615   4.268   5.147   8.258  0.2012 -0.6825 -0.7358
 6686TIP3   OH241616   4.105   4.525   1.918 -0.3253  0.2012 -0.1960
 6686TIP3    H141617   4.196   4.496   1.909 -0.4223 -1.0133  1.9728
 6686TIP3    H241618   4.056   4.446   1.941 -0.9798  1.5157  3.7646
 6687TIP3   OH241619   1.214   5.518   1.829  0.3549  0.2223 -0.2543
 6687TIP3    H141620   1.252   5.583   1.888 -1.7612  0.2059  1.2389
 6687TIP3    H241621   1.120   5.533   1.834 -0.0430 -1.3933 -1.7742
 6688TIP3   OH241622   1.007   0.888   0.049 -0.5650 -0.0247  0.5687
 6688TIP3    H141623   0.954   0.958   0.089 -1.9299 -0.6014 -0.1770
 6688TIP3    H241624   0.943   0.828   0.011  0.5799 -1.6351  1.0788
 6689TIP3   OH241625   2.835   0.827   2.379  0.1270 -0.6153 -0.2056
 6689TIP3    H141626   2.835   0.919   2.405 -1.6690 -0.2792 -1.2290
 6689TIP3    H241627   2.925   0.808   2.354  0.5935  0.7507  0.4003
 6690TIP3   OH241628   2.599   4.773   0.188  0.1604  0.3798  0.1814
 6690TIP3    H141629   2.645   4.857   0.182 -0.1879  0.6918  1.4741
 6690TIP3    H241630   2.620   4.741   0.276  0.1124 -0.7972 -0.2185
 6691TIP3   OH241631   2.936   3.486   0.490  0.6550 -0.0011  0.2851
 6691TIP3    H141632   2.954   3.409   0.545 -3.3679 -0.0971  1.8084
 6691TIP3    H241633   2.933   3.559   0.552  0.1863  0.6312 -0.4711
 6692TIP3   OH241634   6.687   2.392   8.815  0.0749 -0.7543  0.3298
 6692TIP3    H141635   6.615   2.436   8.860 -1.6861 -1.0867 -1.9679
 6692TIP3    H241636   6.734   2.462   8.771  0.9363 -0.5889  1.4657
 6693TIP3   OH241637   3.980   1.471   8.301  0.4508  0.2961 -0.1817
 6693TIP3    H141638   3.913   1.537   8.321 -0.1837 -0.2458 -0.4583
 6693TIP3    H241639   3.930   1.393   8.280  1.2013 -0.3598  0.4296
 6694TIP3   OH241640   1.822   1.569   8.615  0.2727  0.1745  0.5353
 6694TIP3    H141641   1.848   1.514   8.541 -2.5891 -0.1550 -0.3624
 6694TIP3    H241642   1.851   1.657   8.590 -1.4499  0.2515 -1.5634
 6695TIP3   OH241643   4.327   0.444   0.863  0.1737 -0.2679 -0.2323
 6695TIP3    H141644   4.408   0.393   0.867  0.0770 -0.3946  0.1634
 6695TIP3    H241645   4.296   0.447   0.954 -0.2883 -0.2564 -0.3885
 6696TIP3   OH241646   2.696   1.320   7.893 -0.2446 -0.2800 -0.1839
 6696TIP3    H141647   2.667   1.411   7.884 -0.3237 -0.3365 -0.5055
 6696TIP3    H241648   2.615   1.270   7.902 -0.1914 -0.2952  0.2114
 6697TIP3   OH241649   6.068   6.075   8.595 -0.2152 -0.5789 -0.2422
 6697TIP3    H141650   6.055   6.008   8.662 -0.4297  0.0803  0.3936
 6697TIP3    H241651   6.163   6.082   8.586 -0.1720 -0.4082  0.2798
 6698TIP3   OH241652   5.349   5.806   8.188  0.2624  0.1764  0.7408
 6698TIP3    H141653   5.432   5.765   8.165  0.4275 -0.0520  1.6915
 6698TIP3    H241654   5.369   5.900   8.193  0.6227  0.0618  1.5935
 6699TIP3   OH241655   4.717   0.443   0.136  0.2350  0.4107  0.1720
 6699TIP3    H141656   4.632   0.464   0.099 -0.5942  0.4502  1.9810
 6699TIP3    H241657   4.725   0.348   0.126 -0.2819  0.3308  0.4892
 6700TIP3   OH241658   4.914   5.801   0.969  0.0197 -0.3215 -0.2427
 6700TIP3    H141659   4.913   5.837   0.881  1.2078  1.3816  0.3992
 6700TIP3    H241660   5.007   5.793   0.991 -0.2057  1.6021  1.7158
 6701TIP3   OH241661   2.099   5.530   7.730 -0.8273  0.5687 -0.8143
 6701TIP3    H141662   2.009   5.561   7.735 -0.5320  1.5504 -1.3334
 6701TIP3    H241663   2.151   5.596   7.776 -0.4239 -0.2412 -0.0892
 6702TIP3   OH241664   5.064   3.611   7.140  0.4182 -0.2255  0.1909
 6702TIP3    H141665   5.132   3.600   7.074  0.4555 -0.3876  0.2557
 6702TIP3    H241666   5.032   3.701   7.127 -0.7641 -0.8004 -1.1842
 6703TIP3   OH241667   0.681   4.648   1.267  0.1694 -0.2026  0.7238
 6703TIP3    H141668   0.669   4.683   1.355  1.4427  0.3610  0.7032
 6703TIP3    H241669   0.760   4.594   1.274  0.9798  0.7979 -0.3169
 6704TIP3   OH241670   0.814   0.548   7.835  0.2787  0.0470  0.5258
 6704TIP3    H141671   0.843   0.514   7.751 -1.1136  0.8776 -0.3385
 6704TIP3    H241672   0.868   0.625   7.850  2.5005 -1.6479  1.8351
 6705TIP3   OH241673   3.043   3.532   1.886  0.0486  0.5432 -0.0783
 6705TIP3    H141674   3.030   3.445   1.924 -0.4822  0.5627 -0.2042
 6705TIP3    H241675   3.009   3.525   1.797 -1.8578  1.4057  0.5265
 6706TIP3   OH241676   3.230   1.869   1.336 -0.5203 -0.1428  0.4260
 6706TIP3    H141677   3.288   1.827   1.273 -3.2810 -0.0234 -2.4660
 6706TIP3    H241678   3.276   1.950   1.359  0.5587 -0.0963 -1.6123
 6707TIP3   OH241679   1.839   0.616   0.419  0.3827 -0.1379  0.2066
 6707TIP3    H141680   1.852   0.573   0.335 -0.2143  0.2633 -0.1037
 6707TIP3    H241681   1.905   0.578   0.476  0.6824 -0.5435 -0.3960
 6708TIP3   OH241682   3.170   1.535   8.186 -0.5161 -0.2926  0.0569
 6708TIP3    H141683   3.159   1.612   8.243  0.7020 -0.2578  0.2747
 6708TIP3    H241684   3.119   1.556   8.108  0.4615  1.1138 -0.2430
 6709TIP3   OH241685   2.947   0.932   0.175 -0.3196 -0.3451  0.1470
 6709TIP3    H141686   2.889   0.964   0.106  0.8245  0.6198 -0.3964
 6709TIP3    H241687   3.021   0.893   0.128  0.0937 -0.3970  0.8209
 6710TIP3   OH241688   5.625   4.499   1.341 -0.0543 -0.3264 -0.4993
 6710TIP3    H141689   5.697   4.468   1.284  0.4986 -0.2081  0.1218
 6710TIP3    H241690   5.620   4.433   1.410  1.1002  0.9093  0.8103
 6711TIP3   OH241691   6.432   1.602   1.927 -0.0721  0.1478 -0.2501
 6711TIP3    H141692   6.459   1.513   1.947 -1.9011 -0.9425 -2.2858
 6711TIP3    H241693   6.357   1.618   1.985 -1.4141 -0.6842 -1.6833
 6712TIP3   OH241694   0.418   2.118   0.635 -0.0247  0.2748  0.3407
 6712TIP3    H141695   0.511   2.096   0.649 -0.4640 -1.6040  0.6342
 6712TIP3    H241696   0.411   2.133   0.541  0.2548 -1.4357  0.0187
 6713TIP3   OH241697   2.038   4.937   1.567  0.0281 -0.0230 -0.8057
 6713TIP3    H141698   2.062   4.941   1.659  0.1061  0.7005 -0.8510
 6713TIP3    H241699   2.041   5.028   1.538 -1.6203 -0.0248 -1.0943
 6714TIP3   OH241700   0.108   3.287   8.289 -0.0389 -0.4657  0.1350
 6714TIP3    H141701   0.022   3.255   8.263  0.3757 -0.7581 -0.9275
 6714TIP3    H241702   0.158   3.209   8.310  0.1239 -0.3297  0.2564
 6715TIP3   OH241703   6.619   3.451   2.032 -0.0601 -0.0038 -0.7453
 6715TIP3    H141704   6.524   3.439   2.044 -0.2753  1.2829 -1.0020
 6715TIP3    H241705   6.627   3.539   1.993  1.1016 -0.8906 -2.6582
 6716TIP3   OH241706   3.351   5.857   2.007 -0.3993 -0.5089 -0.0490
 6716TIP3    H141707   3.399   5.930   1.968  0.4603  0.0579  1.9428
 6716TIP3    H241708   3.343   5.793   1.936 -0.4588  1.1692 -1.6154
 6717TIP3   OH241709   2.584   4.692   8.160 -0.0222 -0.3867  0.5416
 6717TIP3    H141710   2.528   4.696   8.082  0.6940  0.6121  0.0696
 6717TIP3    H241711   2.568   4.604   8.195 -0.4605 -0.8084 -0.6433
 6718TIP3   OH241712   3.999   2.034   1.364  0.6026  0.2632 -0.6480
 6718TIP3    H141713   3.937   1.961   1.373  0.1028  0.7120 -0.3977
 6718TIP3    H241714   4.085   1.992   1.357  0.6733 -0.3071  2.3502
 6719TIP3   OH241715   0.841   4.546   8.092  0.2575 -0.2492 -0.0643
 6719TIP3    H141716   0.801   4.466   8.057  0.2436  0.0441 -0.7427
 6719TIP3    H241717   0.920   4.558   8.040 -0.1204  0.5708 -0.4680
 6720TIP3   OH241718   5.586   6.694   0.649  0.4913 -0.5390 -0.6194
 6720TIP3    H141719   5.585   6.693   0.553  1.2425  0.8309 -0.6710
 6720TIP3    H241720   5.496   6.674   0.674  0.6801 -2.8347 -1.5456
 6721TIP3   OH241721   4.048   6.026   1.144  0.2188 -0.5012  0.4737
 6721TIP3    H141722   4.091   5.983   1.071  0.4236 -1.0427  0.9097
 6721TIP3    H241723   3.954   6.015   1.126  0.1165  2.3497 -1.4950
 6722TIP3   OH241724   1.491   3.300   2.578 -0.0507  0.3074 -0.3210
 6722TIP3    H141725   1.581   3.267   2.568  0.2011  1.2712 -1.4411
 6722TIP3    H241726   1.502   3.391   2.604 -0.7326  0.1186  0.6851
 6723TIP3   OH241727   2.972   1.096   2.726 -0.2605 -0.2845  0.4742
 6723TIP3    H141728   3.044   1.115   2.665  0.1359 -0.5899  0.8369
 6723TIP3    H241729   2.994   1.144   2.806 -0.5924 -0.1757  0.5023
 6724TIP3   OH241730   0.261   6.485   8.621  0.2465  0.7983  0.2445
 6724TIP3    H141731   0.349   6.504   8.655  0.6490 -0.3821 -0.1036
 6724TIP3    H241732   0.208   6.469   8.699  0.9006 -0.7811  0.3909
 6725TIP3   OH241733   1.359   1.209   0.350  0.4898  0.3635  0.7142
 6725TIP3    H141734   1.441   1.169   0.324  0.7351  1.4871 -0.3184
 6725TIP3    H241735   1.291   1.148   0.322  0.9364 -0.4587  1.3669
 6726TIP3   OH241736   4.149   1.540   1.956 -0.3500 -0.0160  0.2308
 6726TIP3    H141737   4.231   1.550   1.908 -0.6211  0.7820 -0.0816
 6726TIP3    H241738   4.109   1.461   1.920 -1.4907  1.5851 -2.3065
 6727TIP3   OH241739   2.947   5.486   7.492  0.4513  0.3491  0.0831
 6727TIP3    H141740   2.942   5.498   7.586  0.4922  0.7943  0.0298
 6727TIP3    H241741   2.964   5.574   7.457  1.6638  0.0039 -0.2489
 6728TIP3   OH241742   1.838   0.366   7.874  0.1738 -0.1420 -0.1880
 6728TIP3    H141743   1.919   0.385   7.828  0.2881 -0.7402 -0.2432
 6728TIP3    H241744   1.865   0.329   7.958 -0.0358 -0.9015 -0.4473
 6729TIP3   OH241745   4.224   0.169   0.289  0.4271 -0.6309  0.2851
 6729TIP3    H141746   4.244   0.180   0.382  1.0168 -0.4288  0.1400
 6729TIP3    H241747   4.300   0.123   0.253  0.9563  0.7135 -0.4041
 6730TIP3   OH241748   1.616   2.708   7.209 -0.4368  0.7471  0.7617
 6730TIP3    H141749   1.612   2.800   7.235  3.1292  1.6782 -1.3371
 6730TIP3    H241750   1.586   2.707   7.118  1.0042  0.1200  0.2774
 6731TIP3   OH241751   5.914   6.225   7.996 -0.3937  0.0437 -0.3075
 6731TIP3    H141752   6.006   6.217   8.021 -0.3278 -1.5353 -0.9421
 6731TIP3    H241753   5.899   6.153   7.935 -2.3984 -0.5819  0.8135
 6732TIP3   OH241754   4.920   0.047   1.839  0.0633 -0.0132 -0.7527
 6732TIP3    H141755   4.973   0.018   1.765  1.5755  2.6887 -0.8605
 6732TIP3    H241756   4.942   0.140   1.850 -1.9212  0.3018  1.5795
 6733TIP3   OH241757   5.166   4.685   1.716 -0.2080 -0.5917  0.2084
 6733TIP3    H141758   5.085   4.636   1.733 -0.9801  0.3730 -0.5726
 6733TIP3    H241759   5.194   4.656   1.630  0.6864 -1.4454  0.7730
 6734TIP3   OH241760   5.080   1.993   8.068  0.8426 -0.2401  0.5568
 6734TIP3    H141761   5.041   1.976   7.982  0.7756  1.2908  0.2568
 6734TIP3    H241762   5.028   1.940   8.129  1.2466 -1.7943 -0.3882
 6735TIP3   OH241763   3.887   2.777   2.582  0.2801 -0.9817 -0.0467
 6735TIP3    H141764   3.939   2.715   2.633 -0.1500 -2.2046 -1.0637
 6735TIP3    H241765   3.837   2.825   2.648  1.2232 -1.1401  0.8090
 6736TIP3   OH241766   4.688   4.306   1.945 -0.6819  1.0475 -0.3809
 6736TIP3    H141767   4.645   4.356   1.876 -1.0603 -0.1750 -1.0583
 6736TIP3    H241768   4.761   4.263   1.901 -0.9172  0.2715 -0.0294
 6737TIP3   OH241769   3.419   4.807   1.367 -0.4160  0.8343  0.3736
 6737TIP3    H141770   3.410   4.848   1.281 -1.2886 -0.2649 -0.0818
 6737TIP3    H241771   3.358   4.855   1.422 -2.6199 -0.7703 -0.5355
 6738TIP3   OH241772   4.309   0.587   1.822  0.2913  0.7505  0.3072
 6738TIP3    H141773   4.366   0.617   1.893 -1.2885  2.6898  0.8875
 6738TIP3    H241774   4.234   0.548   1.867  0.8492 -1.2732 -0.4236
 6739TIP3   OH241775   1.882   4.692   8.833  0.5288  0.2879  0.5164
 6739TIP3    H141776   1.938   4.760   8.870  0.9180 -0.0131  0.4911
 6739TIP3    H241777   1.910   4.612   8.878 -0.2798  0.2287  0.9258
 6740TIP3   OH241778   1.559   0.025   1.816 -0.1080  0.0512 -0.9386
 6740TIP3    H141779   1.627   0.021   1.884  0.6145 -0.2054 -1.6524
 6740TIP3    H241780   1.499  -0.046   1.838 -2.4487  2.6710  2.0210
 6741TIP3   OH241781   2.241   5.244   1.967 -0.1763 -0.0923 -0.0103
 6741TIP3    H141782   2.173   5.234   1.900 -0.2640 -0.7365  0.1712
 6741TIP3    H241783   2.197   5.223   2.049  0.0225  0.3518  0.2132
 6742TIP3   OH241784   4.302   2.343   1.596  0.3157  0.0715  0.6468
 6742TIP3    H141785   4.236   2.310   1.657  0.7560  0.0542  1.1187
 6742TIP3    H241786   4.278   2.434   1.582  0.5216  0.2229  1.2638
 6743TIP3   OH241787   0.271   5.445   1.065  0.5511  0.4554  0.1808
 6743TIP3    H141788   0.193   5.446   1.120  0.6449  0.6181  0.3100
 6743TIP3    H241789   0.339   5.483   1.119  0.5103  1.1337 -0.2400
 6744TIP3   OH241790   2.955   1.661   1.735 -0.1890  0.2064  0.0805
 6744TIP3    H141791   2.992   1.728   1.793  1.7794  1.8439 -2.7917
 6744TIP3    H241792   3.026   1.599   1.720 -0.3112  0.3668 -1.2969
 6745TIP3   OH241793   4.899   6.313   6.982 -0.5135  0.4879  0.1703
 6745TIP3    H141794   4.894   6.298   6.887 -0.4011  2.3874 -0.1772
 6745TIP3    H241795   4.962   6.249   7.013 -0.3892 -0.0305 -1.0724
 6746TIP3   OH241796   0.949   6.282   2.028  0.1753  0.5198 -0.4011
 6746TIP3    H141797   0.911   6.257   1.944  0.0632  1.4912 -0.6393
 6746TIP3    H241798   0.901   6.229   2.092  0.8760 -0.9030 -1.0042
 6747TIP3   OH241799   6.126   5.605   2.098 -0.4799 -0.4772  0.2494
 6747TIP3    H141800   6.072   5.646   2.165 -1.2987 -1.4078  0.1738
 6747TIP3    H241801   6.079   5.525   2.074 -0.7068  0.2913 -2.1186
 6748TIP3   OH241802   4.047   6.756   0.681  0.0652 -0.0632 -0.1184
 6748TIP3    H141803   4.071   6.727   0.770 -1.1777 -0.6590  0.0347
 6748TIP3    H241804   4.024   6.848   0.692 -0.7783 -0.3144  0.3277
 6749TIP3   OH241805   5.032   4.509   2.280 -0.6593 -0.0616 -0.3294
 6749TIP3    H141806   5.036   4.502   2.185 -1.2325  2.3488 -0.5933
 6749TIP3    H241807   4.945   4.475   2.302 -0.1777 -1.4895 -0.5227
 6750TIP3   OH241808   2.751   5.016   1.896  0.1461 -0.3138  0.0908
 6750TIP3    H141809   2.686   4.947   1.909 -0.2671  0.2932  1.4476
 6750TIP3    H241810   2.700   5.095   1.878  0.4090  0.3638  2.0525
 6751TIP3   OH241811   3.779   2.451   7.715 -0.5049  0.0309  0.2883
 6751TIP3    H141812   3.818   2.538   7.714  0.6986 -0.4108  2.3752
 6751TIP3    H241813   3.854   2.391   7.721 -1.2721 -1.2263 -1.6039
 6752TIP3   OH241814   6.694   5.435   0.907 -0.1621 -0.0413  0.1059
 6752TIP3    H141815   6.640   5.378   0.961 -2.8404  2.2562  0.1032
 6752TIP3    H241816   6.722   5.505   0.966 -2.4605  2.0720 -1.1196
 6753TIP3   OH241817   2.739   0.587   2.930 -0.2579  0.5019 -0.0125
 6753TIP3    H141818   2.803   0.629   2.873 -0.7861  1.8927  0.3831
 6753TIP3    H241819   2.772   0.497   2.941  0.3033  0.4576 -1.7708
 6754TIP3   OH241820   5.517   3.540   8.622 -0.4054  0.5078  0.0895
 6754TIP3    H141821   5.460   3.508   8.552  0.0298  0.1848 -0.1246
 6754TIP3    H241822   5.580   3.469   8.636 -0.4054  0.6254  0.7154
 6755TIP3   OH241823   6.384   3.606   8.217  0.2720  0.3669 -0.2685
 6755TIP3    H141824   6.315   3.569   8.161 -0.8558  0.2814  1.1145
 6755TIP3    H241825   6.420   3.530   8.263  0.2209  0.5854  0.1367
 6756TIP3   OH241826   3.780   3.493   1.941 -0.0881  0.2431 -0.2808
 6756TIP3    H141827   3.742   3.507   2.028  2.8550  0.9692  0.9916
 6756TIP3    H241828   3.783   3.580   1.902  0.1985  0.1773 -0.4039
 6757TIP3   OH241829   1.023   1.132   8.516 -0.3467  1.0672  0.3175
 6757TIP3    H141830   1.048   1.087   8.435 -0.0691 -1.3126  1.6294
 6757TIP3    H241831   0.928   1.140   8.511 -0.5830 -1.0001  0.6153
 6758TIP3   OH241832   1.132   5.702   8.404 -0.0313 -0.1559 -0.0706
 6758TIP3    H141833   1.065   5.748   8.455  0.0409  0.3498 -0.4268
 6758TIP3    H241834   1.093   5.617   8.384  0.3781 -0.8330  1.8127
 6759TIP3   OH241835   1.138   2.937   1.822  0.1661  0.0977 -0.2222
 6759TIP3    H141836   1.072   3.002   1.799  0.8287  0.9263  0.1690
 6759TIP3    H241837   1.124   2.921   1.916  0.8172  0.6428 -0.0220
 6760TIP3   OH241838   2.345   0.452   0.181 -0.3474 -0.0770 -0.4351
 6760TIP3    H141839   2.387   0.447   0.096  2.9651 -0.2478  1.0633
 6760TIP3    H241840   2.301   0.368   0.192  2.1796 -1.5392 -0.6562
 6761TIP3   OH241841   2.049   2.885   0.445  0.3159 -0.3679 -0.5850
 6761TIP3    H141842   2.118   2.849   0.501 -0.6302 -1.1743  0.0727
 6761TIP3    H241843   2.049   2.979   0.465 -1.0387 -0.8439  1.9688
 6762TIP3   OH241844   3.630   6.147   8.619  0.2706 -0.1799  0.1075
 6762TIP3    H141845   3.616   6.194   8.537  1.2906  0.8406  0.4798
 6762TIP3    H241846   3.591   6.202   8.686 -0.6530 -1.0601  0.3122
 6763TIP3   OH241847   2.578   4.812   2.704  0.5233 -0.8660 -0.5355
 6763TIP3    H141848   2.639   4.767   2.761  0.6875 -0.5721 -0.4821
 6763TIP3    H241849   2.624   4.891   2.676 -0.8574  0.9141  1.8262
 6764TIP3   OH241850   0.115   0.413   7.565 -0.0613  0.6405 -0.0376
 6764TIP3    H141851   0.108   0.398   7.470  0.7572  0.8198 -0.1316
 6764TIP3    H241852   0.181   0.351   7.594  0.3977  1.2562  0.2512
 6765TIP3   OH241853   5.571   6.559   7.792  0.0538  0.1935 -0.8248
 6765TIP3    H141854   5.510   6.595   7.728  3.9543  1.8626 -4.0092
 6765TIP3    H241855   5.608   6.482   7.750  1.3226  0.1791  0.2635
 6766TIP3   OH241856   4.505   2.815   7.006 -0.0445  0.1392  0.4077
 6766TIP3    H141857   4.595   2.797   6.977  0.6666  1.7463  1.4762
 6766TIP3    H241858   4.467   2.728   7.020  1.6128 -0.5747  0.7634
 6767TIP3   OH241859   5.360   5.248   0.250 -0.2714 -0.6939 -0.1065
 6767TIP3    H141860   5.453   5.256   0.268 -0.9079  3.2287  2.8820
 6767TIP3    H241861   5.343   5.311   0.180 -0.8878  0.1242  0.7526
 6768TIP3   OH241862   1.182   0.475   0.304  0.5052 -0.2663 -0.3826
 6768TIP3    H141863   1.153   0.468   0.213  0.2541  0.3634 -0.3598
 6768TIP3    H241864   1.276   0.460   0.300  0.6841  0.8905 -0.9141
 6769TIP3   OH241865   2.676   1.367   0.363  0.1931 -1.2073 -0.3544
 6769TIP3    H141866   2.700   1.444   0.312  0.7245  0.3574  2.0550
 6769TIP3    H241867   2.731   1.297   0.329  3.8617  0.8170  0.8552
 6770TIP3   OH241868   2.384   2.247   2.060  0.6679  0.4024 -0.6381
 6770TIP3    H141869   2.434   2.285   1.987  1.5258 -0.8620 -0.7386
 6770TIP3    H241870   2.449   2.205   2.115 -0.0777  0.5449  0.3851
 6771TIP3   OH241871   1.793   1.582   1.291  0.2603 -0.6771 -0.0465
 6771TIP3    H141872   1.724   1.576   1.356 -0.4020 -0.4915 -0.7169
 6771TIP3    H241873   1.789   1.499   1.243  1.0405 -1.0034  0.4219
 6772TIP3   OH241874   1.763   6.526   1.507  0.1892  0.7114 -0.1045
 6772TIP3    H141875   1.670   6.545   1.517  0.4472  1.4022  1.2486
 6772TIP3    H241876   1.796   6.519   1.597  1.4351  0.4658 -0.5601
 6773TIP3   OH241877   5.697   1.913   2.187 -0.0081 -0.2706 -0.0161
 6773TIP3    H141878   5.693   1.915   2.092  0.1534  0.2936 -0.0094
 6773TIP3    H241879   5.767   1.973   2.210 -0.4308  0.0347  0.4853
 6774TIP3   OH241880   2.720   4.986   8.843  0.0292  0.0283  0.3366
 6774TIP3    H141881   2.629   5.014   8.828  0.3976  1.0013 -0.1433
 6774TIP3    H241882   2.767   5.067   8.860  1.3777 -0.0775 -2.3203
 6775TIP3   OH241883   4.738   2.204   8.603 -0.0148  0.0190 -0.0532
 6775TIP3    H141884   4.682   2.279   8.626  0.5018  0.4973 -0.3181
 6775TIP3    H241885   4.743   2.152   8.684 -1.7102 -0.6200 -0.3132
 6776TIP3   OH241886   6.103   5.523   0.839 -0.1215  0.0119  0.4293
 6776TIP3    H141887   6.109   5.591   0.772  1.8658 -0.3368  0.1962
 6776TIP3    H241888   6.194   5.503   0.862 -0.7042 -1.2662  1.8280
 6777TIP3   OH241889   0.568   1.613   8.768 -0.2954  0.5748 -0.3734
 6777TIP3    H141890   0.561   1.561   8.848  0.6784 -1.1717 -1.3564
 6777TIP3    H241891   0.478   1.618   8.735 -0.3276 -1.1193 -0.6162
 6778TIP3   OH241892   2.877   6.588   8.345 -0.1719 -0.1926  0.1143
 6778TIP3    H141893   2.869   6.578   8.439  1.6309 -0.3862  0.2856
 6778TIP3    H241894   2.881   6.499   8.311  1.8866 -0.1787  0.1804
 6779TIP3   OH241895   3.775   4.024   2.228  0.6686  0.7160  0.2010
 6779TIP3    H141896   3.860   4.006   2.187  0.4344 -0.9766  0.3943
 6779TIP3    H241897   3.722   3.948   2.206 -0.0780  0.6771  2.0079
 6780TIP3   OH241898   4.097   4.837   0.732 -0.9036  0.1097 -0.1947
 6780TIP3    H141899   4.004   4.851   0.715 -0.8085  0.3033 -0.5751
 6780TIP3    H241900   4.131   4.923   0.756 -0.8486  0.0135  0.0777
 6781TIP3   OH241901   3.434   2.399   1.621 -0.2615  0.1640  0.2779
 6781TIP3    H141902   3.351   2.351   1.621  0.1455 -0.6520 -1.8905
 6781TIP3    H241903   3.501   2.331   1.625  0.3162  0.6707 -0.5346
 6782TIP3   OH241904   4.501   2.992   0.343  0.2280  0.2000 -0.2037
 6782TIP3    H141905   4.517   2.938   0.266 -0.2818  0.6651 -0.6418
 6782TIP3    H241906   4.587   3.005   0.381  0.4039 -0.6092 -0.2979
 6783TIP3   OH241907   4.082   4.200   7.882 -0.1491 -0.5511  0.3538
 6783TIP3    H141908   3.995   4.164   7.899 -0.4865 -1.0151 -2.0548
 6783TIP3    H241909   4.141   4.142   7.929 -0.9665 -1.8068 -0.1262
 6784TIP3   OH241910   1.585   1.469   2.207 -0.0934  0.0472  0.2832
 6784TIP3    H141911   1.602   1.518   2.288  0.6863  1.1714 -0.5312
 6784TIP3    H241912   1.668   1.473   2.159 -0.5438 -0.6070 -0.5770
 6785TIP3   OH241913   1.549   6.274   2.058  0.0815 -0.2584 -0.0550
 6785TIP3    H141914   1.548   6.318   2.143 -0.8205 -2.2065  1.0207
 6785TIP3    H241915   1.471   6.219   2.059 -0.1040 -0.0937 -2.2975
 6786TIP3   OH241916   1.554   1.601   2.453 -0.2232  0.3715 -0.1531
 6786TIP3    H141917   1.610   1.661   2.502  1.0115 -2.0113  1.5603
 6786TIP3    H241918   1.465   1.635   2.466  0.4141  1.7619  0.8192
 6787TIP3   OH241919   2.421   1.776   1.897  0.6429 -0.1391  0.2692
 6787TIP3    H141920   2.459   1.690   1.876  1.7694 -0.0733  1.8447
 6787TIP3    H241921   2.336   1.755   1.935  0.2449 -0.4467 -0.7356
 6788TIP3   OH241922   5.176   2.033   2.124 -0.6597 -0.1711  0.2856
 6788TIP3    H141923   5.149   1.974   2.053 -0.8243  1.7640 -1.3434
 6788TIP3    H241924   5.271   2.036   2.118 -0.7483  1.2342 -0.9747
 6789TIP3   OH241925   4.915   1.633   8.008 -0.1610 -0.2060 -0.0593
 6789TIP3    H141926   4.980   1.659   8.073 -1.1212  1.0127  0.4408
 6789TIP3    H241927   4.950   1.663   7.924 -0.8466  2.0357  0.4046
 6790TIP3   OH241928   4.842   3.493   2.871 -0.4287 -0.3014 -0.3249
 6790TIP3    H141929   4.801   3.416   2.910 -0.8210 -0.2986 -0.7315
 6790TIP3    H241930   4.934   3.469   2.859 -0.0788 -0.0172  1.3946
 6791TIP3   OH241931   2.815   5.539   1.481 -0.1135 -0.4809 -0.4637
 6791TIP3    H141932   2.847   5.472   1.541  0.9427  0.1954 -0.2287
 6791TIP3    H241933   2.721   5.523   1.475 -0.0032 -1.4922  0.1908
 6792TIP3   OH241934   3.097   6.707   0.134 -0.1945  0.5457  0.2441
 6792TIP3    H141935   3.129   6.624   0.169  2.4802  0.7952 -1.3522
 6792TIP3    H241936   3.073   6.686   0.044 -0.2859  1.3470  0.0814
 6793TIP3   OH241937   4.632   6.685   0.439  0.0712  0.1185  0.2267
 6793TIP3    H141938   4.554   6.656   0.486  0.7188 -0.4871  0.9704
 6793TIP3    H241939   4.682   6.605   0.423 -0.1818  0.3005 -1.6366
 6794TIP3   OH241940   3.459   2.439   0.470 -0.1156  0.2909  0.0677
 6794TIP3    H141941   3.384   2.395   0.509 -0.4930 -0.1157 -1.0776
 6794TIP3    H241942   3.430   2.464   0.382  1.0610  0.1750 -0.3780
 6795TIP3   OH241943   2.678   2.994   1.508  0.4980 -0.4891 -0.8599
 6795TIP3    H141944   2.757   2.944   1.488  1.4010  0.2606  0.6594
 6795TIP3    H241945   2.652   2.965   1.595  0.6825  1.1668 -0.1996
 6796TIP3   OH241946   4.081   3.604   1.222  0.3703 -0.1796 -0.3309
 6796TIP3    H141947   4.175   3.593   1.236  0.4973 -0.4049 -1.2787
 6796TIP3    H241948   4.052   3.657   1.296  1.5986  1.5575 -1.0158
 6797TIP3   OH241949   5.579   1.821   7.613 -0.2054  0.4594 -0.4706
 6797TIP3    H141950   5.538   1.810   7.527  0.1115  0.4445 -0.6178
 6797TIP3    H241951   5.563   1.913   7.635 -0.1187  0.5132 -0.6316
 6798TIP3   OH241952   1.036   0.123   1.649  0.0269  0.0955  0.1423
 6798TIP3    H141953   1.026   0.200   1.705 -1.4462 -0.8282  1.1989
 6798TIP3    H241954   0.961   0.126   1.590  0.5112 -0.0017 -0.4854
 6799TIP3   OH241955   4.804   0.448   0.990 -0.2132 -0.1325  0.0315
 6799TIP3    H141956   4.806   0.543   0.999 -1.1385 -0.1026 -0.0176
 6799TIP3    H241957   4.744   0.419   1.058  1.3235 -0.8408  1.1550
 6800TIP3   OH241958   1.074   2.875   0.906  0.3531 -0.1888  0.0125
 6800TIP3    H141959   1.151   2.822   0.884  0.0318 -0.5868 -0.1705
 6800TIP3    H241960   1.061   2.859   0.999  1.9891  1.8566  0.6618
 6801TIP3   OH241961   4.646   3.825   1.377 -0.1948 -0.2893  0.2977
 6801TIP3    H141962   4.653   3.843   1.471 -1.1524 -1.1608  0.5441
 6801TIP3    H241963   4.669   3.909   1.336 -0.8441  0.4222  1.3291
 6802TIP3   OH241964   5.081   0.262   8.770 -0.0965 -0.3871  0.1453
 6802TIP3    H141965   5.132   0.183   8.753 -0.6791 -1.1654  1.7811
 6802TIP3    H241966   5.082   0.272   8.866 -2.3684 -0.0294  0.1973
 6803TIP3   OH241967   4.660   3.802   2.198 -0.0518  0.0667 -0.1564
 6803TIP3    H141968   4.685   3.869   2.134  1.4270 -0.0804  0.2438
 6803TIP3    H241969   4.578   3.835   2.235  1.2067  2.3160  0.8840
 6804TIP3   OH241970   4.772   2.142   2.171  0.0751 -0.1186  0.0184
 6804TIP3    H141971   4.787   2.206   2.240  0.8207  0.6215 -0.7958
 6804TIP3    H241972   4.816   2.063   2.200  1.6357  0.6258 -0.2397
 6805TIP3   OH241973   1.362   3.519   8.872  0.1143  0.0541 -0.1562
 6805TIP3    H141974   1.362   3.455   8.943 -0.7669 -1.6458 -1.5919
 6805TIP3    H241975   1.451   3.514   8.836  0.1430 -0.1376 -0.0626
 6806TIP3   OH241976   2.668   1.752   8.443 -0.8780  0.4990  0.8331
 6806TIP3    H141977   2.574   1.739   8.453 -1.2254 -0.4585 -2.4412
 6806TIP3    H241978   2.676   1.823   8.378  0.6430  0.3671  0.8295
 6807TIP3   OH241979   0.206   5.102   7.560  0.1697 -0.1261 -0.3898
 6807TIP3    H141980   0.286   5.049   7.551 -0.7102 -1.3448 -1.5206
 6807TIP3    H241981   0.195   5.143   7.475 -0.0111  0.6616  0.0038
 6808TIP3   OH241982   3.715   3.468   0.662 -0.3966 -0.3767  0.1575
 6808TIP3    H141983   3.772   3.541   0.689 -0.3550 -0.7945  1.2434
 6808TIP3    H241984   3.639   3.474   0.719 -1.9733  0.7471 -1.8997
 6809TIP3   OH241985   5.216   4.400   1.884  0.8239  0.2472 -0.6872
 6809TIP3    H141986   5.186   4.474   1.831 -0.7939 -0.3531 -0.6807
 6809TIP3    H241987   5.300   4.376   1.846  0.3681  0.7438 -2.0766
 6810TIP3   OH241988   2.946   0.573   7.820 -0.3267 -0.1430 -0.3972
 6810TIP3    H141989   2.913   0.635   7.886  0.3616 -1.4987  1.2924
 6810TIP3    H241990   3.041   0.575   7.831 -0.3301 -2.3064  0.5293
 6811TIP3   OH241991   3.187   1.107   0.881  0.3969  0.4892 -0.7390
 6811TIP3    H141992   3.118   1.168   0.855  0.7075  1.2547  0.1585
 6811TIP3    H241993   3.236   1.154   0.950  0.7755 -0.6894 -0.1779
 6812TIP3   OH241994   6.113   5.820   2.655 -0.2163 -0.2021 -0.2389
 6812TIP3    H141995   6.121   5.734   2.613  0.7768  0.0330 -0.5427
 6812TIP3    H241996   6.105   5.800   2.748  4.1975 -0.5686  0.2641
 6813TIP3   OH241997   1.001   2.691   8.380 -0.4434  0.4517  0.1396
 6813TIP3    H141998   0.933   2.727   8.436 -0.9205  0.9179 -0.7221
 6813TIP3    H241999   0.967   2.606   8.352 -0.1027  0.1113  0.7181
 6814TIP3   OH242000   3.524   2.543   0.756 -0.3605 -0.1962  0.2466
 6814TIP3    H142001   3.559   2.632   0.749 -0.8561 -0.0243 -0.1120
 6814TIP3    H242002   3.518   2.513   0.665  1.2404 -1.1718  0.4298
 6815TIP3   OH242003   1.552   5.729   1.923 -0.6232  0.1990  0.4699
 6815TIP3    H142004   1.464   5.767   1.929 -1.6249 -1.8449 -0.4487
 6815TIP3    H242005   1.548   5.649   1.975  1.0464  0.6255  1.3179
 6816TIP3   OH242006   6.074   4.311   0.265  0.0804  0.3395 -0.4423
 6816TIP3    H142007   6.019   4.243   0.226 -0.0496 -0.8452  1.6348
 6816TIP3    H242008   6.154   4.312   0.212  0.4026 -2.0293 -0.0981
 6817TIP3   OH242009   3.006   5.307   2.223 -0.2320 -0.1579 -0.4216
 6817TIP3    H142010   3.020   5.236   2.285 -2.0880  0.0692  0.3096
 6817TIP3    H242011   2.912   5.307   2.207 -0.0571  1.1122 -1.6567
 6818TIP3   OH242012   0.785   6.557   0.922  0.1414 -0.5930  0.1236
 6818TIP3    H142013   0.753   6.474   0.957  2.2030 -1.5698 -0.1693
 6818TIP3    H242014   0.780   6.547   0.827 -0.0785 -0.1667  0.0863
 6819TIP3   OH242015   2.482   3.822   0.675  0.0525  0.6781  0.3131
 6819TIP3    H142016   2.467   3.909   0.636  0.8570  0.5146 -0.4018
 6819TIP3    H242017   2.400   3.775   0.660 -0.6436  1.5138  1.3094
 6820TIP3   OH242018   6.112   4.297   1.388  0.0840 -0.0174  0.3346
 6820TIP3    H142019   6.076   4.222   1.341  0.2366  0.0816  0.0589
 6820TIP3    H242020   6.205   4.299   1.363 -0.1400  0.8846 -0.4917
 6821TIP3   OH242021   2.157   5.770   0.970 -0.0904 -0.3187  0.1535
 6821TIP3    H142022   2.133   5.846   1.023 -0.7686 -0.2818 -0.1979
 6821TIP3    H242023   2.077   5.717   0.967  0.0175 -0.4470 -0.6123
 6822TIP3   OH242024   3.483   5.051   7.949  0.2578 -0.4861 -0.3523
 6822TIP3    H142025   3.566   5.091   7.974 -0.8708  1.2037  0.9465
 6822TIP3    H242026   3.417   5.116   7.973 -1.4744 -1.8623 -1.1339
 6823TIP3   OH242027   3.416   4.260   0.139  0.2001 -0.0935 -0.0974
 6823TIP3    H142028   3.338   4.210   0.160  1.0305 -1.5659 -0.3838
 6823TIP3    H242029   3.388   4.352   0.144 -2.0667 -0.5674 -2.1661
 6824TIP3   OH242030   3.008   0.934   1.248  0.8877  0.3844 -0.0888
 6824TIP3    H142031   3.079   0.883   1.208  0.2135  0.3950 -1.3384
 6824TIP3    H242032   2.970   0.984   1.176 -1.6111 -1.0288  0.1164
 6825TIP3   OH242033   4.090   4.283   3.099  0.2107  0.3882  0.5731
 6825TIP3    H142034   4.047   4.220   3.041  3.2685 -0.2518 -1.2182
 6825TIP3    H242035   4.032   4.359   3.098 -1.0565 -0.5079 -1.4106
 6826TIP3   OH242036   4.533   2.004   0.757 -0.3813 -0.4354 -0.3172
 6826TIP3    H142037   4.477   1.969   0.827  0.0638 -1.3874 -0.4264
 6826TIP3    H242038   4.471   2.034   0.690 -0.7705 -2.0799 -0.7290
 6827TIP3   OH242039   3.834   6.059   7.905 -0.2108 -0.5135 -0.0416
 6827TIP3    H142040   3.875   5.995   7.846  0.8710  0.8879 -0.8637
 6827TIP3    H242041   3.744   6.029   7.914  0.0640 -1.7190 -1.0107
 6828TIP3   OH242042   0.279   2.108   2.683 -0.0008 -0.5473  0.5601
 6828TIP3    H142043   0.216   2.161   2.732 -0.4037 -1.2179  0.7813
 6828TIP3    H242044   0.344   2.083   2.748 -0.7310 -1.7432  0.8577
 6829TIP3   OH242045   6.451   6.358   8.662 -0.1971  0.3206 -0.0354
 6829TIP3    H142046   6.496   6.442   8.668  0.6226 -0.1225  0.1653
 6829TIP3    H242047   6.360   6.378   8.683  0.2782  0.9074  1.6111
 6830TIP3   OH242048   6.019   2.404   1.450  0.2453  0.0962  0.7201
 6830TIP3    H142049   6.029   2.378   1.542  1.0914 -0.1407  0.5655
 6830TIP3    H242050   6.072   2.342   1.401  0.2210  0.5462  0.1107
 6831TIP3   OH242051   3.460   6.291   7.407 -0.5274  0.1342 -0.1178
 6831TIP3    H142052   3.415   6.364   7.450 -2.8169 -0.3753 -1.4812
 6831TIP3    H242053   3.522   6.260   7.473  0.7738  3.4494  0.3910
 6832TIP3   OH242054   1.256   6.459   1.066  0.0164  0.3176  0.6646
 6832TIP3    H142055   1.316   6.463   0.992  0.9684 -1.1895  1.3051
 6832TIP3    H242056   1.271   6.373   1.105 -1.9376  0.2544  1.3949
 6833TIP3   OH242057   0.779   0.087   0.542  0.4998  0.1724  0.2374
 6833TIP3    H142058   0.865   0.131   0.542  0.8419 -0.4910  0.7033
 6833TIP3    H242059   0.798  -0.004   0.564 -0.2375 -0.1727 -0.4924
 6834TIP3   OH242060   6.689   6.274   1.306  0.0265  0.2452  0.4916
 6834TIP3    H142061   6.698   6.289   1.211 -0.2130  1.8227  0.6913
 6834TIP3    H242062   6.754   6.331   1.345  0.6497 -0.9672  1.2812
 6835TIP3   OH242063   2.632   4.608   1.635 -0.8526 -0.1012 -0.2630
 6835TIP3    H142064   2.727   4.619   1.622 -0.6820 -2.7734 -2.3461
 6835TIP3    H242065   2.596   4.614   1.546 -2.0796 -2.6885 -0.0299
 6836TIP3   OH242066   4.935   1.544   8.648 -0.2249  0.4806 -0.2549
 6836TIP3    H142067   4.858   1.562   8.701 -0.8901 -0.4890 -0.8591
 6836TIP3    H242068   4.970   1.463   8.683 -0.4303  0.0538 -1.0165
 6837TIP3   OH242069   5.348   1.429   7.728 -0.1579  0.1648 -0.1582
 6837TIP3    H142070   5.313   1.519   7.730 -1.6697 -0.3848 -0.3489
 6837TIP3    H242071   5.442   1.440   7.714 -0.3715  1.7195 -0.5756
 6838TIP3   OH242072   3.963   2.140   8.748  0.2319  0.3695  0.1996
 6838TIP3    H142073   4.032   2.155   8.683 -0.1751  0.6041 -0.1854
 6838TIP3    H242074   3.915   2.064   8.715  0.1645  0.3487  0.3442
 6839TIP3   OH242075   2.780   2.776   0.610  0.7527  0.1634  0.0723
 6839TIP3    H142076   2.824   2.691   0.604 -0.6620 -0.6232  0.3279
 6839TIP3    H242077   2.708   2.770   0.547 -0.4583  0.4665  1.3792
 6840TIP3   OH242078   4.629   3.555   0.885 -0.1728 -0.6812  0.2320
 6840TIP3    H142079   4.721   3.570   0.906  0.1764 -0.1675 -1.5276
 6840TIP3    H242080   4.581   3.585   0.963  1.0190  1.1589  0.3105
 6841TIP3   OH242081   4.955   2.112   2.866  0.0490  0.1442  0.3462
 6841TIP3    H142082   4.999   2.078   2.944 -0.7656 -0.0288  0.7438
 6841TIP3    H242083   4.905   2.187   2.898  0.4681  0.6612 -0.1992
 6842TIP3   OH242084   4.754   5.905   0.474 -0.1619 -0.6086  0.2560
 6842TIP3    H142085   4.708   5.989   0.465 -0.0158 -0.5783 -0.2487
 6842TIP3    H242086   4.683   5.841   0.486 -0.4961 -0.7651 -1.9435
 6843TIP3   OH242087   5.359   0.749   1.117  0.1403  1.0579 -0.4906
 6843TIP3    H142088   5.396   0.689   1.052  1.1066 -0.1325  1.0966
 6843TIP3    H242089   5.264   0.733   1.112 -0.0532  2.5227 -3.0200
 6844TIP3   OH242090   0.519   5.861   8.776  0.9035  0.1982  0.5978
 6844TIP3    H142091   0.599   5.809   8.785  0.6812  0.1493  2.5350
 6844TIP3    H242092   0.459   5.825   8.841 -1.1399 -0.4904 -1.5279
 6845TIP3   OH242093   2.585   0.739   8.698 -0.2093  0.2864 -0.0659
 6845TIP3    H142094   2.649   0.795   8.742  1.5686 -0.3734 -1.6627
 6845TIP3    H242095   2.604   0.749   8.605  0.4555 -3.1057 -0.4498
 6846TIP3   OH242096   0.160   4.120   7.948  0.8167  0.2069  0.3857
 6846TIP3    H142097   0.182   4.035   7.987  1.2647  0.9115  1.7307
 6846TIP3    H242098   0.174   4.107   7.854  1.6736 -0.9705  0.6403
 6847TIP3   OH242099   1.428   3.585   0.473  0.2594  0.5286 -0.7050
 6847TIP3    H142100   1.401   3.498   0.502  1.8128 -0.3293 -1.7295
 6847TIP3    H242101   1.459   3.628   0.552 -3.3164  1.3498  0.4285
 6848TIP3   OH242102   5.985   4.365   0.520  0.1983  0.3741  0.0934
 6848TIP3    H142103   6.053   4.430   0.537 -0.8538  1.9327 -1.3354
 6848TIP3    H242104   6.001   4.335   0.430 -1.0180  0.8220 -0.2945
 6849TIP3   OH242105   4.337   4.964   7.987 -0.1571  0.6203 -0.3976
 6849TIP3    H142106   4.267   5.026   8.006  1.6603  2.4500  0.7376
 6849TIP3    H242107   4.414   5.002   8.029  1.4942 -1.3997 -1.4446
 6850TIP3   OH242108   0.072   4.572   2.002  0.0321 -0.7878 -0.0890
 6850TIP3    H142109   0.161   4.607   2.006  0.2307 -1.2928 -0.0599
 6850TIP3    H242110   0.075   4.493   2.055 -0.2435 -1.2184 -0.7080
 6851TIP3   OH242111   4.702   0.260   8.642  0.0894 -0.0649 -0.5204
 6851TIP3    H142112   4.784   0.306   8.659  0.5950 -1.8432  2.6355
 6851TIP3    H242113   4.634   0.324   8.663  0.6486  0.8101 -1.2819
 6852TIP3   OH242114   0.795   4.277   0.881  0.5819  0.0884 -0.5001
 6852TIP3    H142115   0.828   4.240   0.963  0.0414  0.8083  0.0584
 6852TIP3    H242116   0.760   4.362   0.906 -0.0496  0.1046 -1.3994
 6853TIP3   OH242117   3.968   5.686   8.196 -0.4410  0.0242 -0.0539
 6853TIP3    H142118   4.033   5.615   8.188 -1.6737 -1.1333 -0.1193
 6853TIP3    H242119   3.933   5.696   8.108 -0.8208  0.1827  0.1176
 6854TIP3   OH242120   2.719   6.339   0.528 -0.5615 -0.7157 -0.0214
 6854TIP3    H142121   2.635   6.370   0.564 -0.7838 -1.5850  0.2265
 6854TIP3    H242122   2.782   6.356   0.598 -0.5895 -0.3960 -0.0695
 6855TIP3   OH242123   1.163   5.341   7.117  0.3751  0.3327  0.5964
 6855TIP3    H142124   1.149   5.266   7.059 -1.4963  1.0432  0.0625
 6855TIP3    H242125   1.077   5.359   7.155  0.4246  2.9949 -0.3296
 6856TIP3   OH242126   6.067   3.802   1.302  0.4212 -0.2584 -0.3162
 6856TIP3    H142127   6.122   3.793   1.380 -0.3960 -0.4716  0.2417
 6856TIP3    H242128   6.129   3.823   1.232  1.1998 -0.3535  0.3273
 6857TIP3   OH242129   2.397   5.409   8.669  0.1933  0.3332 -0.0773
 6857TIP3    H142130   2.493   5.410   8.665  0.2914 -1.9943  0.3516
 6857TIP3    H242131   2.372   5.332   8.619 -1.5627  1.5092 -1.1092
 6858TIP3   OH242132   0.863   3.895   7.766 -0.4565  0.7661  0.1192
 6858TIP3    H142133   0.854   3.847   7.848  1.9766 -0.0669 -0.0228
 6858TIP3    H242134   0.957   3.905   7.754 -0.7814  3.2987 -1.2148
 6859TIP3   OH242135   0.920   3.542   2.122 -0.1631  0.6011 -0.2527
 6859TIP3    H142136   0.867   3.462   2.121  1.4196 -0.4953 -0.2471
 6859TIP3    H242137   0.949   3.552   2.031  0.3505  0.6655 -0.0843
 6860TIP3   OH242138   3.940   6.676   2.300 -0.5477  0.7844  0.1085
 6860TIP3    H142139   4.008   6.628   2.347 -1.5438  0.4725  1.3106
 6860TIP3    H242140   3.870   6.611   2.286 -0.2476  0.8473 -1.9354
 6861TIP3   OH242141   4.552   6.672   8.114 -0.1224 -0.1343 -0.1888
 6861TIP3    H142142   4.625   6.647   8.171 -0.0118  1.3283  0.3498
 6861TIP3    H242143   4.474   6.662   8.169 -0.1346  0.1362 -0.1563
 6862TIP3   OH242144   0.171   5.054   0.502  0.4181 -0.0885  0.0066
 6862TIP3    H142145   0.136   5.023   0.586  1.0749 -0.4712  0.1484
 6862TIP3    H242146   0.095   5.058   0.444 -0.1468  0.7595  0.7883
 6863TIP3   OH242147   2.285   1.669   2.517  0.0597 -0.5785  0.4699
 6863TIP3    H142148   2.249   1.613   2.586 -0.8217 -1.6074 -0.7754
 6863TIP3    H242149   2.210   1.717   2.484  1.0932  3.2452  3.0430
 6864TIP3   OH242150   0.071   1.822   2.910 -0.1149 -0.1893  0.1058
 6864TIP3    H142151  -0.008   1.771   2.892 -0.2192 -0.0741  0.2429
 6864TIP3    H242152   0.043   1.913   2.906  0.4155 -0.0548 -1.8879
 6865TIP3   OH242153   0.295   5.942   1.430 -0.1134  0.3786 -0.1925
 6865TIP3    H142154   0.248   5.891   1.363  0.9361  1.3848 -1.7660
 6865TIP3    H242155   0.230   5.956   1.499 -0.9846 -1.4524 -0.5754
 6866TIP3   OH242156   5.095   4.892   1.393  0.0721 -0.3116 -0.3724
 6866TIP3    H142157   5.029   4.889   1.324 -0.1143 -0.1348 -0.2032
 6866TIP3    H242158   5.059   4.837   1.463 -0.4320  0.7167  0.1861
 6867TIP3   OH242159   0.564   3.591   7.871  0.5586 -0.1424 -0.5196
 6867TIP3    H142160   0.598   3.656   7.932 -1.1753  0.2646  0.0932
 6867TIP3    H242161   0.508   3.641   7.811  1.4761 -0.6799 -1.8647
 6868TIP3   OH242162   2.511   5.900   0.246  0.0483 -0.0003  0.3491
 6868TIP3    H142163   2.567   5.858   0.311  0.8063 -0.8948 -0.8260
 6868TIP3    H242164   2.558   5.980   0.221  0.0281  0.0616  0.5120
 6869TIP3   OH242165   0.291   1.866   0.830  0.8295  0.3635  0.3238
 6869TIP3    H142166   0.320   1.803   0.896  1.7778  0.0336 -0.3639
 6869TIP3    H242167   0.368   1.877   0.773  0.4065  1.5048 -0.0564
 6870TIP3   OH242168   3.508   3.913   2.383  0.4690 -0.0529  0.5632
 6870TIP3    H142169   3.539   3.906   2.293 -1.2493  0.8198 -0.1458
 6870TIP3    H242170   3.581   3.953   2.430  1.0470  0.3848 -0.6649
 6871TIP3   OH242171   0.136   5.320   0.050 -0.0466 -0.0092  0.1350
 6871TIP3    H142172   0.052   5.334   0.008 -0.7322 -0.2508  1.3674
 6871TIP3    H242173   0.158   5.229   0.030  0.0202  0.1042 -0.3279
 6872TIP3   OH242174   1.979   6.729   2.570 -0.1816  0.1184  0.4173
 6872TIP3    H142175   2.011   6.818   2.562 -0.1289  0.0882  0.2774
 6872TIP3    H242176   2.058   6.675   2.569 -0.2456  0.0257 -0.2142
 6873TIP3   OH242177   6.381   4.570   1.598 -0.3637 -0.1539 -0.0141
 6873TIP3    H142178   6.288   4.582   1.613 -0.5912 -0.1006 -1.3086
 6873TIP3    H242179   6.388   4.557   1.503  0.8820 -0.7130  0.1345
 6874TIP3   OH242180   3.817   0.491   1.054 -0.1189 -0.2480  0.1810
 6874TIP3    H142181   3.758   0.547   1.003  1.0490  1.9615  1.0865
 6874TIP3    H242182   3.776   0.488   1.141  0.2862  0.0034  0.3840
 6875TIP3   OH242183   1.575   1.401   0.954 -0.9705 -0.0969  0.1619
 6875TIP3    H142184   1.536   1.483   0.983  0.9401  0.5001  1.2575
 6875TIP3    H242185   1.593   1.414   0.860 -1.3294  0.4677  0.1697
 6876TIP3   OH242186   4.593   1.091   0.343  0.0640  0.5046 -0.5110
 6876TIP3    H142187   4.568   1.073   0.434  0.0443 -0.0397 -0.6211
 6876TIP3    H242188   4.590   1.187   0.336  1.5842  0.6686  0.5102
 6877TIP3   OH242189   3.119   2.163   2.622 -0.3275  0.0862 -0.5140
 6877TIP3    H142190   3.211   2.184   2.602  0.0551 -0.4476  0.6079
 6877TIP3    H242191   3.123   2.081   2.672 -1.3536  0.4610  0.2191
 6878TIP3   OH242192   6.517   6.050   0.393  0.4248  0.1955  0.0916
 6878TIP3    H142193   6.422   6.040   0.400  0.0499  2.9011 -0.0351
 6878TIP3    H242194   6.545   6.077   0.481  1.1560 -1.0166  0.2428
 6879TIP3   OH242195   2.182   1.274   0.750  0.3475  0.2433  0.3467
 6879TIP3    H142196   2.213   1.269   0.660  0.2442 -0.3899  0.3476
 6879TIP3    H242197   2.262   1.285   0.802  0.5272 -0.7357  0.2895
 6880TIP3   OH242198   4.449   4.363   8.096 -0.1373  0.3867  0.1758
 6880TIP3    H142199   4.411   4.430   8.152 -1.7335 -0.4675  0.1886
 6880TIP3    H242200   4.446   4.400   8.008 -0.2312  0.6501  0.2899
 6881TIP3   OH242201   4.220   4.131   8.552 -0.2082 -0.2350 -0.3686
 6881TIP3    H142202   4.240   4.197   8.618 -1.7273  0.6287 -0.7211
 6881TIP3    H242203   4.175   4.061   8.600  1.2605 -0.9870 -0.0238
 6882TIP3   OH242204   6.021   5.456   8.516  0.4762  0.2611  0.5929
 6882TIP3    H142205   5.953   5.471   8.450  2.0697 -1.2842 -1.5749
 6882TIP3    H242206   5.973   5.441   8.597 -1.6758  0.8172 -0.5007
 6883TIP3   OH242207   5.146   6.495   8.766 -0.5936 -0.3304 -0.0153
 6883TIP3    H142208   5.084   6.423   8.760  0.3833 -1.2364  0.5247
 6883TIP3    H242209   5.168   6.516   8.675 -3.6548  1.8163 -0.4260
 6884TIP3   OH242210   3.482   0.761   7.735 -0.2221 -0.1242 -0.1167
 6884TIP3    H142211   3.506   0.669   7.723 -1.3552 -0.3583 -0.7556
 6884TIP3    H242212   3.531   0.789   7.812 -0.3820 -1.4638  0.4890
 6885TIP3   OH242213   5.588   6.445   2.940 -0.1085  0.6262 -0.4737
 6885TIP3    H142214   5.596   6.354   2.969 -2.3610  0.4789 -0.1203
 6885TIP3    H242215   5.669   6.487   2.968  0.1088 -0.7917  1.1959
 6886TIP3   OH242216   1.294   0.961   1.652 -0.6225 -0.2550 -0.0294
 6886TIP3    H142217   1.285   0.878   1.701  0.8204 -0.8050 -0.6481
 6886TIP3    H242218   1.238   0.949   1.576  0.2962 -1.0647 -0.5993
 6887TIP3   OH242219   3.689   1.218   7.449 -0.2333 -0.1787 -0.2939
 6887TIP3    H142220   3.741   1.240   7.372  2.2135 -0.2462  1.2137
 6887TIP3    H242221   3.620   1.283   7.452  0.4701  0.6787 -1.7681
 6888TIP3   OH242222   4.830   4.874   1.582  0.0775  0.0555 -0.2203
 6888TIP3    H142223   4.737   4.893   1.569 -0.0605  0.0136  0.6356
 6888TIP3    H242224   4.843   4.786   1.546 -0.7072 -0.8554  1.6185
 6889TIP3   OH242225   6.163   0.804   1.287  0.2274  0.5163 -0.2820
 6889TIP3    H142226   6.102   0.780   1.356  0.5446 -1.2908 -0.5760
 6889TIP3    H242227   6.229   0.858   1.330  1.1838 -1.6941  1.1981
 6890TIP3   OH242228   0.081   1.067   8.434 -0.4177 -0.0778  0.2333
 6890TIP3    H142229   0.104   0.974   8.439 -1.4828 -0.3334  0.5899
 6890TIP3    H242230   0.053   1.090   8.522 -0.0998  0.6059  0.1625
 6891TIP3   OH242231   2.874   4.087   1.576 -0.4501 -0.6277  0.7162
 6891TIP3    H142232   2.819   4.012   1.557  0.5318 -1.1581 -0.1232
 6891TIP3    H242233   2.894   4.125   1.490  1.1482 -0.9453  0.9224
 6892TIP3   OH242234   3.831   0.738   8.365 -0.2626  0.1542  0.2469
 6892TIP3    H142235   3.906   0.740   8.424  0.3591  0.7799 -0.5431
 6892TIP3    H242236   3.869   0.725   8.278 -1.1980 -1.4347  0.0325
 6893TIP3   OH242237   5.277   4.850   7.251  0.1142  0.0830 -0.4230
 6893TIP3    H142238   5.224   4.816   7.178 -1.5717  1.0326  0.2989
 6893TIP3    H242239   5.287   4.774   7.309  0.3591 -0.3512 -1.0210
 6894TIP3   OH242240   2.335   2.430   0.654 -1.2244 -0.4758  0.3219
 6894TIP3    H142241   2.373   2.398   0.736 -2.9387  0.9622  1.7685
 6894TIP3    H242242   2.392   2.502   0.627 -0.7356 -0.8572  0.3319
 6895TIP3   OH242243   3.535   2.539   8.096 -0.0903 -0.0899 -0.1433
 6895TIP3    H142244   3.461   2.599   8.105 -0.4415 -0.0262 -2.5946
 6895TIP3    H242245   3.597   2.586   8.040 -0.4853 -1.9824 -2.3483
 6896TIP3   OH242246   4.272   4.373   2.757 -0.2172  0.3629  0.6583
 6896TIP3    H142247   4.281   4.352   2.664  1.5269  2.3145  0.3165
 6896TIP3    H242248   4.178   4.389   2.769 -0.5565 -0.5529 -0.5965
 6897TIP3   OH242249   2.239   3.908   8.234 -0.4794 -0.4911 -0.1074
 6897TIP3    H142250   2.279   3.827   8.266  0.6968  0.0254 -0.2441
 6897TIP3    H242251   2.230   3.962   8.313 -3.2807 -1.5236  0.3966
 6898TIP3   OH242252   1.517   5.984   8.043 -0.2271  0.5479  0.5582
 6898TIP3    H142253   1.553   5.900   8.071 -0.4155  0.3992  0.3597
 6898TIP3    H242254   1.556   6.048   8.102 -0.9663  0.1917  1.4565
 6899TIP3   OH242255   5.204   6.156   7.574  0.0156  0.3972  0.2533
 6899TIP3    H142256   5.161   6.238   7.599 -0.2160  1.0639 -2.1468
 6899TIP3    H242257   5.254   6.177   7.495  1.5049 -1.3500  0.6528
 6900TIP3   OH242258   4.833   6.245   8.463  0.0435 -0.1744 -0.2537
 6900TIP3    H142259   4.799   6.168   8.418 -0.7129 -0.3815  0.6354
 6900TIP3    H242260   4.756   6.297   8.483  0.4407  0.2810  0.1147
 6901TIP3   OH242261   3.779   2.249   0.766 -0.0195 -0.7049 -0.2165
 6901TIP3    H142262   3.718   2.193   0.815 -1.7542  0.7861 -0.5726
 6901TIP3    H242263   3.830   2.188   0.713 -0.3454 -2.1066  1.0104
 6902TIP3   OH242264   0.296   2.936   2.704  0.3486 -0.1840  0.0722
 6902TIP3    H142265   0.318   2.960   2.793 -0.2080  1.1350 -0.1269
 6902TIP3    H242266   0.305   2.840   2.702  1.4477 -0.1264  1.2200
 6903TIP3   OH242267   4.300   4.007   1.208  0.0435  0.1918  1.0926
 6903TIP3    H142268   4.321   4.014   1.115  1.4342  0.1250  1.3852
 6903TIP3    H242269   4.358   4.070   1.251 -0.6221  0.2652  1.9117
 6904TIP3   OH242270   4.712   3.701   7.989  0.1405  0.0230  0.1770
 6904TIP3    H142271   4.774   3.774   7.988  0.1851 -0.0104  0.3386
 6904TIP3    H242272   4.758   3.633   8.039  1.2763 -1.1618 -2.3001
 6905TIP3   OH242273   5.056   6.142   0.040  0.0698 -0.0863 -0.3968
 6905TIP3    H142274   5.034   6.120  -0.050  0.8912 -3.9045  0.1964
 6905TIP3    H242275   5.065   6.058   0.085  2.6912  1.5275  2.5330
 6906TIP3   OH242276   2.572   5.978   7.917 -0.2204 -0.0714 -0.2249
 6906TIP3    H142277   2.601   5.924   7.991  1.8894  3.0741  1.4979
 6906TIP3    H242278   2.506   6.036   7.955 -0.1035  0.6837 -1.1633
 6907TIP3   OH242279   0.060   5.698   7.257 -0.0439 -0.0579  0.1140
 6907TIP3    H142280   0.002   5.768   7.229 -1.2481 -0.3917  1.5884
 6907TIP3    H242281   0.064   5.638   7.182 -1.0653  0.3221 -0.2587
 6908TIP3   OH242282   0.615   4.601   1.818  0.2788  0.0114  0.0299
 6908TIP3    H142283   0.550   4.563   1.758  1.9633 -0.6972 -1.4334
 6908TIP3    H242284   0.615   4.542   1.893 -0.5188 -0.1834 -0.1153
 6909TIP3   OH242285   0.581   0.910   7.916 -0.0062 -0.1438 -0.0789
 6909TIP3    H142286   0.548   0.831   7.874 -0.2410  0.3008 -0.7636
 6909TIP3    H242287   0.615   0.881   8.001  0.5136 -1.0759 -0.5906
 6910TIP3   OH242288   5.151   6.101   8.168 -0.1080  0.1314 -0.1305
 6910TIP3    H142289   5.114   6.135   8.087  0.7304 -0.4404 -0.7696
 6910TIP3    H242290   5.222   6.161   8.189 -0.6262  0.5578  0.4641
 6911TIP3   OH242291   2.418   4.729   7.957  0.3947 -0.4449 -0.0318
 6911TIP3    H142292   2.468   4.804   7.926 -0.3033  0.6344  1.3309
 6911TIP3    H242293   2.347   4.720   7.893 -0.3301  0.9868  0.5101
 6912TIP3   OH242294   5.494   1.444   8.607  0.1164 -0.3270  0.1517
 6912TIP3    H142295   5.507   1.430   8.701 -0.1004 -0.4335  0.1684
 6912TIP3    H242296   5.521   1.535   8.592 -0.5123 -0.0873  0.4493
 6913TIP3   OH242297   5.108   0.487   2.311 -0.2025  0.2943  0.1795
 6913TIP3    H142298   5.157   0.445   2.381 -0.9949 -0.6314  0.1978
 6913TIP3    H242299   5.173   0.536   2.261  0.6436 -0.5062  0.4924
 6914TIP3   OH242300   0.284   2.466   7.356  0.3217 -0.8528  0.1503
 6914TIP3    H142301   0.221   2.394   7.366  1.1175 -1.7745 -1.2033
 6914TIP3    H242302   0.266   2.501   7.269 -0.5938  1.1693  1.0999
 6915TIP3   OH242303   4.558   4.370   2.755 -0.3390  0.0801 -0.4335
 6915TIP3    H142304   4.463   4.386   2.755 -0.1642  1.2403 -0.1931
 6915TIP3    H242305   4.596   4.456   2.774  0.7424 -0.4979  0.0984
 6916TIP3   OH242306   2.969   2.286   8.433 -0.4183  0.3112 -0.4632
 6916TIP3    H142307   2.993   2.193   8.428  0.8606  0.6588 -1.2329
 6916TIP3    H242308   3.041   2.327   8.482 -1.8352  0.6452  1.4730
 6917TIP3   OH242309   1.770   0.230   8.217 -0.0734  0.0498 -0.2419
 6917TIP3    H142310   1.843   0.219   8.157 -0.0801 -0.6476 -0.1261
 6917TIP3    H242311   1.702   0.272   8.165  0.1999  0.1652 -0.5062
 6918TIP3   OH242312   0.856   0.882   8.063  0.0367 -0.5261 -0.0053
 6918TIP3    H142313   0.854   0.847   8.151  0.1289  0.8720  0.5866
 6918TIP3    H242314   0.923   0.830   8.018 -1.0624 -2.2443  0.2674
 6919TIP3   OH242315   5.327   0.001   1.835  0.3444 -0.3083  0.1076
 6919TIP3    H142316   5.389   0.064   1.797 -0.8286  1.0541  0.3817
 6919TIP3    H242317   5.251   0.053   1.859 -2.0319 -2.2916 -2.5357
 6920TIP3   OH242318   5.846   5.349   6.996  0.5825 -0.0862  0.0782
 6920TIP3    H142319   5.927   5.399   6.983  0.0952  0.4377 -1.0559
 6920TIP3    H242320   5.777   5.415   6.993 -0.0449 -0.7665 -1.0677
 6921TIP3   OH242321   5.692   1.072   2.223 -0.1646  0.7229  0.2324
 6921TIP3    H142322   5.709   0.987   2.263  0.4917  0.6404 -0.2155
 6921TIP3    H242323   5.602   1.093   2.249 -0.5462 -0.3847 -0.1429
 6922TIP3   OH242324   3.000   3.817   2.153  0.3891  0.7328 -0.0834
 6922TIP3    H142325   3.034   3.727   2.160  1.2502  1.1767  2.2317
 6922TIP3    H242326   3.071   3.872   2.183 -0.6163  2.1015 -0.1174
 6923TIP3   OH242327   6.453   0.957   0.699 -0.1367 -0.1432  0.7142
 6923TIP3    H142328   6.411   0.894   0.758  0.5456  0.1855  1.5655
 6923TIP3    H242329   6.439   0.921   0.611 -0.1785 -1.2237  1.1545
 6924TIP3   OH242330   3.406   1.071   0.052 -0.4030  0.1443  0.0689
 6924TIP3    H142331   3.412   1.020   0.133 -0.6405  0.6975  0.4500
 6924TIP3    H242332   3.380   1.159   0.082 -0.3563  0.3902 -0.5979
 6925TIP3   OH242333   3.415   4.847   0.052 -0.4794  0.2102  0.3828
 6925TIP3    H142334   3.476   4.793   0.001  0.7607 -1.2320  3.1349
 6925TIP3    H242335   3.329   4.824   0.018  0.2387 -1.0732 -0.6845
 6926TIP3   OH242336   5.655   3.428   1.925 -0.3967  0.4337 -0.5197
 6926TIP3    H142337   5.702   3.454   1.846 -1.9606  1.4221 -1.1554
 6926TIP3    H242338   5.703   3.351   1.956  1.5727  1.3339 -1.1678
 6927TIP3   OH242339   3.831   2.624   1.727 -0.2547 -0.3995 -0.2332
 6927TIP3    H142340   3.738   2.600   1.735 -0.5397  0.7649  0.2025
 6927TIP3    H242341   3.830   2.703   1.673  0.3401  0.3997  0.8705
 6928TIP3   OH242342   6.381   1.141   2.186 -0.0627 -0.5271 -0.4298
 6928TIP3    H142343   6.456   1.182   2.143  0.2734 -0.3538  0.3036
 6928TIP3    H242344   6.376   1.054   2.147  0.0162 -0.2503 -1.0675
 6929TIP3   OH242345   6.516   0.048   8.453  0.0714  0.3293  0.2729
 6929TIP3    H142346   6.499   0.130   8.407 -0.9718  0.2842  0.5642
 6929TIP3    H242347   6.575   0.073   8.525 -0.5153  0.8843  0.5632
 6930TIP3   OH242348   4.735   2.484   2.230 -0.1593 -0.4033 -0.2032
 6930TIP3    H142349   4.659   2.533   2.261 -1.5832 -1.7832 -1.3953
 6930TIP3    H242350   4.745   2.413   2.293 -0.8905 -1.1728 -0.9385
 6931TIP3   OH242351   3.097   6.378   7.600  0.1964 -0.0669 -0.0626
 6931TIP3    H142352   3.126   6.406   7.686  0.6820 -0.8801  0.0453
 6931TIP3    H242353   3.007   6.349   7.614 -0.8391  2.6589 -0.4401
 6932TIP3   OH242354   5.407   4.277   0.980 -0.1224 -0.0843 -0.0291
 6932TIP3    H142355   5.403   4.323   1.064  0.2008  1.8874 -1.0269
 6932TIP3    H242356   5.499   4.249   0.972  0.1142  0.6841 -0.1644
 6933TIP3   OH242357   3.816   1.453   1.464  0.5930  0.3093 -0.5471
 6933TIP3    H142358   3.896   1.458   1.516  0.4252 -1.7744  0.0005
 6933TIP3    H242359   3.845   1.471   1.374  1.9344 -1.4444 -0.5351
 6934TIP3   OH242360   5.786   0.844   2.388  0.6557  0.3767 -0.2490
 6934TIP3    H142361   5.730   0.857   2.465 -0.0277  2.2543 -1.0101
 6934TIP3    H242362   5.866   0.893   2.408  1.3927 -0.9285  0.1354
 6935TIP3   OH242363   6.138   2.913   0.793 -0.2772 -0.0045 -0.2002
 6935TIP3    H142364   6.175   2.898   0.706 -1.0910  1.1431 -0.7645
 6935TIP3    H242365   6.066   2.851   0.800  0.3088 -0.6767  0.0042
 6936TIP3   OH242366   4.937   3.843   7.058  0.4371 -0.4282  0.6802
 6936TIP3    H142367   4.953   3.908   6.990  0.3062 -0.3302  0.7417
 6936TIP3    H242368   4.842   3.838   7.064  0.3998  1.2305  2.4217
 6937TIP3   OH242369   1.402   2.005   0.091  0.1075 -0.3804 -0.8658
 6937TIP3    H142370   1.315   1.978   0.061  0.5193  0.1126 -2.6095
 6937TIP3    H242371   1.456   1.927   0.079 -0.1853 -0.8730  0.7832
 6938TIP3   OH242372   0.430   2.127   8.595  0.2882  0.7177  0.0501
 6938TIP3    H142373   0.480   2.112   8.675  1.7742  0.4817 -0.8897
 6938TIP3    H242374   0.495   2.153   8.530 -0.9380  1.3364 -0.9859
 6939TIP3   OH242375   5.256   1.913   1.266  0.1272 -0.1863 -0.0556
 6939TIP3    H142376   5.194   1.861   1.215  1.2846 -2.8803  1.1061
 6939TIP3    H242377   5.296   1.972   1.202  0.1471 -2.1134 -1.9270
 6940TIP3   OH242378   0.970   4.726   2.315  0.1051 -0.2951  0.2039
 6940TIP3    H142379   1.029   4.727   2.239  0.7327 -0.8580  0.6641
 6940TIP3    H242380   0.995   4.802   2.366  0.4357 -0.5272  0.3927
 6941TIP3   OH242381   1.547   3.542   1.040  0.2327  0.1077  0.1990
 6941TIP3    H142382   1.495   3.580   0.969 -0.6280  1.2329  1.3973
 6941TIP3    H242383   1.492   3.472   1.076  0.7036 -0.5192 -0.2595
 6942TIP3   OH242384   0.934   3.476   8.019 -0.1750 -0.2779 -1.1306
 6942TIP3    H142385   0.920   3.555   8.072 -0.9134 -1.7583  1.0405
 6942TIP3    H242386   0.849   3.432   8.020  0.5903 -1.8288 -0.9786
 6943TIP3   OH242387   0.704   6.286   8.112 -0.1271  0.5672 -0.1064
 6943TIP3    H142388   0.612   6.309   8.101 -0.6618 -1.6475 -0.7995
 6943TIP3    H242389   0.716   6.209   8.058  1.6807 -0.2880  1.3876
 6944TIP3   OH242390   0.720   0.715   2.241  0.7377 -0.1554  0.1984
 6944TIP3    H142391   0.650   0.756   2.293  0.4353  0.2440 -0.5076
 6944TIP3    H242392   0.731   0.628   2.280 -1.6906 -1.1004 -1.0012
 6945TIP3   OH242393   2.267   5.334   7.664  0.1911  0.3868  0.2534
 6945TIP3    H142394   2.315   5.359   7.585  0.0004  1.1536  0.3709
 6945TIP3    H242395   2.206   5.406   7.679 -1.1847 -0.6757 -0.0303
 6946TIP3   OH242396   4.313   3.481   1.214  0.1107 -0.8014 -0.0189
 6946TIP3    H142397   4.296   3.424   1.139  0.4604 -0.7257 -0.1546
 6946TIP3    H242398   4.403   3.510   1.203  0.0404 -0.4832  0.2272
 6947TIP3   OH242399   3.857   0.897   2.776 -0.5641 -0.3349  0.0309
 6947TIP3    H142400   3.783   0.886   2.717 -0.4985 -1.3526  0.1207
 6947TIP3    H242401   3.924   0.837   2.743  0.0171  0.1584  0.2783
 6948TIP3   OH242402   6.184   0.132   8.415 -0.2527 -0.1874  0.2428
 6948TIP3    H142403   6.258   0.186   8.387 -0.3214 -1.2869 -2.2751
 6948TIP3    H242404   6.107   0.189   8.403 -0.0788  0.0571  0.2701
 6949TIP3   OH242405   5.919   0.022   8.174 -0.2187 -0.4462 -0.3044
 6949TIP3    H142406   5.960  -0.062   8.191 -0.1874 -0.3609  0.0426
 6949TIP3    H242407   5.871   0.009   8.092 -1.2217 -1.1617  0.3676
 6950TIP3   OH242408   4.626   6.145   0.498 -0.2231 -0.6949  0.3333
 6950TIP3    H142409   4.556   6.181   0.443  0.3788  1.3907  0.8618
 6950TIP3    H242410   4.686   6.218   0.511  1.9637 -2.3773  0.0999
 6951TIP3   OH242411   3.293   3.613   1.867  0.1491  0.1336 -0.0429
 6951TIP3    H142412   3.203   3.595   1.893 -0.3257  1.9051 -0.3235
 6951TIP3    H242413   3.310   3.555   1.793 -0.3509 -1.0286  0.7290
 6952TIP3   OH242414   1.728   5.792   7.364 -0.2606  0.0117 -0.1802
 6952TIP3    H142415   1.762   5.726   7.424  1.5894 -0.0945 -1.2769
 6952TIP3    H242416   1.805   5.825   7.319 -1.2399  2.3308 -0.2850
 6953TIP3   OH242417   3.508   3.627   0.411 -0.5445 -0.5618 -0.5223
 6953TIP3    H142418   3.600   3.602   0.420 -0.8066 -1.3082  0.2314
 6953TIP3    H242419   3.508   3.722   0.414  0.3811 -0.4533 -2.3883
 6954TIP3   OH242420   0.086   3.757   1.054 -0.2078 -0.2574 -0.0383
 6954TIP3    H142421   0.073   3.743   0.960  0.2788  0.9849 -0.3072
 6954TIP3    H242422   0.155   3.694   1.078  0.3369  0.0680 -0.7224
 6955TIP3   OH242423   3.376   2.466   0.209  0.0654  0.5693  0.4409
 6955TIP3    H142424   3.290   2.507   0.200 -0.3558 -0.3635  0.0285
 6955TIP3    H242425   3.437   2.539   0.217 -0.7144  1.2552  0.2826
 6956TIP3   OH242426   2.874   6.165   2.990  0.0066  0.2104  0.3345
 6956TIP3    H142427   2.877   6.114   3.071  1.3672 -0.1950  0.0472
 6956TIP3    H242428   2.955   6.216   2.990 -0.4280  0.9371 -0.3273
 6957TIP3   OH242429   2.219   0.739   2.109  0.1942 -0.6246 -0.0286
 6957TIP3    H142430   2.162   0.664   2.092  1.2148 -1.3687 -0.2869
 6957TIP3    H242431   2.203   0.799   2.036 -1.7399  0.1420  0.9517
 6958TIP3   OH242432   4.885   1.392   1.227  0.3220 -0.7559 -0.1720
 6958TIP3    H142433   4.919   1.479   1.247  1.9036 -1.2872 -0.4199
 6958TIP3    H242434   4.830   1.370   1.302  0.7719  0.0208  0.4016
 6959TIP3   OH242435   3.300   2.865   8.450 -0.0575  0.1023  0.5375
 6959TIP3    H142436   3.373   2.854   8.510 -1.2463 -2.1551  1.7101
 6959TIP3    H242437   3.248   2.936   8.487 -0.2152 -0.5583  1.6084
 6960TIP3   OH242438   3.808   6.389   7.755 -0.4968  0.0178  0.3501
 6960TIP3    H142439   3.746   6.461   7.748 -2.3136 -1.3791  1.1034
 6960TIP3    H242440   3.754   6.310   7.746  1.5330 -1.2813 -1.4438
 6961TIP3   OH242441   5.641   1.434   7.614 -0.4486  0.8260 -0.2639
 6961TIP3    H142442   5.714   1.492   7.594 -0.3165  0.7324 -0.0588
 6961TIP3    H242443   5.681   1.360   7.660 -0.3299 -0.4087 -2.2463
 6962TIP3   OH242444   3.869   0.762   1.771  0.0430  0.0248  0.3895
 6962TIP3    H142445   3.938   0.825   1.751  1.3521 -0.8796  1.8826
 6962TIP3    H242446   3.911   0.676   1.759 -1.4394 -0.5964 -0.7021
 6963TIP3   OH242447   2.941   5.844   1.046 -0.0051  0.1768 -0.1797
 6963TIP3    H142448   2.943   5.878   1.136 -0.1751 -2.3582  0.8676
 6963TIP3    H242449   3.034   5.833   1.023  0.0690 -1.3792  0.6714
 6964TIP3   OH242450   5.164   3.276   8.640  0.0715  0.2895 -0.1462
 6964TIP3    H142451   5.148   3.182   8.634 -0.4881  0.3234  0.5640
 6964TIP3    H242452   5.077   3.316   8.630 -0.2593  0.5377  2.8362
 6965TIP3   OH242453   2.378   0.401   1.836 -0.1493  0.0679 -0.1203
 6965TIP3    H142454   2.297   0.451   1.847  0.3135  1.1851 -1.5526
 6965TIP3    H242455   2.433   0.428   1.910 -1.0496 -0.7093  0.8705
 6966TIP3   OH242456   0.303   1.455   8.348  0.1779  0.3720  0.0864
 6966TIP3    H142457   0.382   1.476   8.298 -0.0344  1.4264  0.1664
 6966TIP3    H242458   0.291   1.361   8.335  1.6525  0.1109  0.3904
 6967TIP3   OH242459   4.887   1.937   8.598  0.1993 -0.1319 -0.4859
 6967TIP3    H142460   4.796   1.909   8.608 -0.1282  0.4090 -1.7657
 6967TIP3    H242461   4.937   1.877   8.653 -0.9734 -0.1079  0.6550
 6968TIP3   OH242462   5.215   5.532   7.641 -0.4545  0.2578 -0.0388
 6968TIP3    H142463   5.263   5.502   7.563 -0.0182 -0.7503  0.6003
 6968TIP3    H242464   5.227   5.462   7.705 -1.4754  0.7115  0.6753
 6969TIP3   OH242465   3.969   0.156   7.439 -0.2535 -0.4837  0.1254
 6969TIP3    H142466   4.007   0.212   7.371 -2.8654 -0.0923 -1.1527
 6969TIP3    H242467   4.035   0.088   7.454  0.3488 -0.7749 -3.1143
 6970TIP3   OH242468   4.451   0.118   8.011 -0.0340  0.8157  0.4696
 6970TIP3    H142469   4.451   0.071   8.095 -0.4283 -1.1591 -0.5780
 6970TIP3    H242470   4.359   0.140   7.996 -0.2345 -0.4151 -0.2454
 6971TIP3   OH242471   1.166   4.630   8.881  0.0701  0.4060 -0.7496
 6971TIP3    H142472   1.113   4.553   8.863  1.1682 -1.3188  2.6236
 6971TIP3    H242473   1.255   4.605   8.856  0.6821 -0.0853  1.6591
 6972TIP3   OH242474   1.118   1.102   8.773  0.0380  0.1295  0.5457
 6972TIP3    H142475   1.079   1.094   8.686 -0.3145 -0.1312  0.7274
 6972TIP3    H242476   1.079   1.031   8.824  0.3446  0.1960  0.8808
 6973TIP3   OH242477   6.406   2.386   0.386 -0.4556 -0.4124  0.8644
 6973TIP3    H142478   6.486   2.438   0.396  1.0532 -2.1729 -1.1873
 6973TIP3    H242479   6.407   2.326   0.460 -0.6450  0.4452  1.5899
 6974TIP3   OH242480   3.325   3.595   8.271 -0.3096 -0.7810 -0.0098
 6974TIP3    H142481   3.284   3.510   8.258 -2.2655 -0.2688  2.2030
 6974TIP3    H242482   3.252   3.655   8.287  1.1010  1.0784 -0.1756
 6975TIP3   OH242483   0.801   3.092   0.163 -0.0538  0.4436 -0.1607
 6975TIP3    H142484   0.774   3.135   0.244  2.6678  0.5188  0.8121
 6975TIP3    H242485   0.818   3.002   0.189  0.8424  0.4708 -0.6356
 6976TIP3   OH242486   1.535   0.805   8.526 -0.4201  0.1479 -0.3302
 6976TIP3    H142487   1.535   0.735   8.461  1.7355  1.4842 -1.8818
 6976TIP3    H242488   1.507   0.883   8.477 -0.6497  0.8116  0.8247
 6977TIP3   OH242489   2.166   4.167   2.197  0.0579  0.2145 -0.0178
 6977TIP3    H142490   2.076   4.160   2.228  0.4427 -0.5709  0.9398
 6977TIP3    H242491   2.220   4.131   2.268  1.1277  0.6519 -0.5823
 6978TIP3   OH242492   6.780   1.296   1.821  0.3266 -0.0430  0.2396
 6978TIP3    H142493   6.875   1.287   1.822  0.2619 -0.8089  1.6040
 6978TIP3    H242494   6.762   1.367   1.883  0.0955  1.4294 -1.4427
 6979TIP3   OH242495   6.035   4.511   2.356 -0.1648  0.0715  0.7296
 6979TIP3    H142496   6.086   4.591   2.348 -1.3942  1.0540  2.1051
 6979TIP3    H242497   6.100   4.441   2.364  0.9261  0.9189 -0.4574
 6980TIP3   OH242498   2.304   3.280   2.556  0.9176  0.1333  0.1018
 6980TIP3    H142499   2.346   3.345   2.499  0.2170  0.3337 -0.1905
 6980TIP3    H242500   2.372   3.214   2.571  0.8811 -0.3169 -1.5751
 6981TIP3   OH242501   4.380   2.525   1.958 -0.5430 -0.5821 -0.2031
 6981TIP3    H142502   4.333   2.495   1.880 -0.1310  0.5363 -0.9152
 6981TIP3    H242503   4.362   2.459   2.024 -3.0275 -0.2421 -0.4636
 6982TIP3   OH242504   1.032   2.213   1.971 -0.5055 -0.5282  0.0021
 6982TIP3    H142505   1.060   2.287   1.917  1.2313 -0.6206  0.7203
 6982TIP3    H242506   0.999   2.149   1.909 -1.2049  0.4812 -0.7041
 6983TIP3   OH242507   5.152   0.839   1.404  0.4537 -0.0998 -0.2028
 6983TIP3    H142508   5.103   0.912   1.442  2.0923  1.2024 -0.5126
 6983TIP3    H242509   5.097   0.809   1.332  0.2993  1.6203 -0.8357
 6984TIP3   OH242510   1.505   1.861   0.825  0.1457  0.0869  0.5555
 6984TIP3    H142511   1.453   1.941   0.823  0.4065  0.2613 -1.0232
 6984TIP3    H242512   1.593   1.890   0.849  0.1263  0.2016  0.4888
 6985TIP3   OH242513   1.629   0.883   2.582 -0.5380  0.3650 -0.0236
 6985TIP3    H142514   1.626   0.931   2.664  2.2713  1.1947 -0.3033
 6985TIP3    H242515   1.544   0.838   2.577 -1.1469  1.0143  2.8290
 6986TIP3   OH242516   3.461   1.285   0.917  0.0902  0.0888  0.2120
 6986TIP3    H142517   3.514   1.249   0.989 -2.2397 -0.9191  1.5317
 6986TIP3    H242518   3.436   1.372   0.946 -0.8754 -0.3292  0.6651
 6987TIP3   OH242519   6.021   0.799   0.751 -0.4640 -0.1848  0.3002
 6987TIP3    H142520   6.039   0.860   0.822  0.6995 -2.1762  1.8232
 6987TIP3    H242521   5.948   0.746   0.783  0.3676 -1.4050  0.2259
 6988TIP3   OH242522   1.797   6.294   0.462 -0.0721 -0.5867  0.1942
 6988TIP3    H142523   1.752   6.317   0.380  0.3527  1.1094  0.3958
 6988TIP3    H242524   1.889   6.312   0.445 -0.0638  0.5401  1.2630
 6989TIP3   OH242525   3.523   0.923   1.382  0.3382  0.3181 -0.1743
 6989TIP3    H142526   3.563   0.879   1.456 -0.2730  0.6827  0.3874
 6989TIP3    H242527   3.459   0.983   1.421 -1.3076 -0.7737 -1.0413
 6990TIP3   OH242528   5.992   4.433   1.866  0.0727 -0.0971 -0.5431
 6990TIP3    H142529   5.946   4.472   1.940 -0.5653 -0.4880 -0.7233
 6990TIP3    H242530   6.049   4.368   1.905 -0.0953 -0.1420 -0.3697
 6991TIP3   OH242531   3.740   3.711   8.625  0.0719 -0.0096 -0.1072
 6991TIP3    H142532   3.686   3.637   8.598 -0.1465 -0.2365  0.8902
 6991TIP3    H242533   3.743   3.705   8.721  1.0420  0.5812 -0.0819
 6992TIP3   OH242534   4.838   3.282   2.318  0.0981  0.4403 -0.0320
 6992TIP3    H142535   4.876   3.324   2.395  1.0737  0.2431 -0.3918
 6992TIP3    H242536   4.744   3.279   2.336  0.5242 -2.3283  2.5521
 6993TIP3   OH242537   2.709   2.575   7.471  0.3551  0.7735  0.0415
 6993TIP3    H142538   2.629   2.523   7.479  0.8131  0.0492  0.0093
 6993TIP3    H242539   2.689   2.656   7.518  0.1985 -0.1065  1.5746
 6994TIP3   OH242540   6.237   5.611   8.620 -0.0268  0.0913 -1.0727
 6994TIP3    H142541   6.158   5.571   8.583 -0.3476  0.0825 -0.3901
 6994TIP3    H242542   6.240   5.698   8.582 -0.1616 -0.0427 -1.3920
 6995TIP3   OH242543   2.837   1.429   8.184 -0.4457  0.4499  0.2043
 6995TIP3    H142544   2.867   1.494   8.120 -1.3893  0.2793 -0.4306
 6995TIP3    H242545   2.845   1.346   8.138  0.4664  0.1299  0.9110
 6996TIP3   OH242546   2.729   5.031   2.207  0.2167  0.4539  0.7390
 6996TIP3    H142547   2.671   4.962   2.175 -2.5091  2.3646  1.1443
 6996TIP3    H242548   2.803   5.030   2.147 -1.3836 -0.6221 -1.3661
 6997TIP3   OH242549   6.583   1.892   2.029  0.5885  0.2884 -0.2565
 6997TIP3    H142550   6.515   1.832   2.058  2.3968 -2.5172 -1.4338
 6997TIP3    H242551   6.648   1.890   2.098  1.3996 -0.4357 -1.0168
 6998TIP3   OH242552   2.420   5.180   0.450  0.5623 -0.2536 -0.6615
 6998TIP3    H142553   2.329   5.164   0.424  0.9736 -0.1907 -2.2454
 6998TIP3    H242554   2.427   5.275   0.458  0.6961 -0.1961 -1.4004
 6999TIP3   OH242555   3.387   6.041   2.863 -0.5434 -0.1991 -0.0971
 6999TIP3    H142556   3.441   6.079   2.933 -0.8177 -0.9904  0.5656
 6999TIP3    H242557   3.431   5.959   2.841 -1.7065 -1.0838  0.7835
 7000TIP3   OH242558   3.532   0.123   8.355 -0.5426  0.0590  0.0498
 7000TIP3    H142559   3.558   0.215   8.350  1.6308 -0.4538  0.8127
 7000TIP3    H242560   3.511   0.110   8.448  2.6854 -0.9915  0.7579
 7001TIP3   OH242561   5.018   2.592   8.305  0.3911 -0.3500 -0.1099
 7001TIP3    H142562   5.009   2.506   8.265 -0.0954 -0.8572  1.0641
 7001TIP3    H242563   5.107   2.593   8.342  0.4613 -0.2688 -0.2759
 7002TIP3   OH242564   2.180   2.496   8.318 -0.7611  0.5230 -1.1348
 7002TIP3    H142565   2.137   2.484   8.402 -0.2279  0.2467 -0.8988
 7002TIP3    H242566   2.256   2.551   8.338  0.1556 -0.6873 -1.1871
 7003TIP3   OH242567   6.569   2.397   8.070  0.5249 -0.4528  0.0476
 7003TIP3    H142568   6.612   2.402   7.984 -1.5531 -1.0560 -1.0959
 7003TIP3    H242569   6.534   2.308   8.074  2.8654 -1.4258  2.7622
 7004TIP3   OH242570   2.436   4.908   8.290 -0.2271  0.7154 -0.1649
 7004TIP3    H142571   2.505   4.858   8.246 -0.0660 -0.2348  1.1151
 7004TIP3    H242572   2.374   4.929   8.220  1.1069  1.2041 -1.2601
 7005TIP3   OH242573   6.282   3.250   1.473  0.8229 -0.0742  0.1845
 7005TIP3    H142574   6.285   3.154   1.470 -1.2734 -0.1665 -0.6711
 7005TIP3    H242575   6.327   3.277   1.393  0.9550 -0.3563  0.1594
 7006TIP3   OH242576   4.293   1.244   6.808 -0.8721  0.0895 -0.6252
 7006TIP3    H142577   4.259   1.170   6.858 -0.9471  1.1510  0.9759
 7006TIP3    H242578   4.363   1.207   6.754 -0.8619 -1.1204  0.1861
 7007TIP3   OH242579   4.439   5.056   2.578 -0.4208  0.4703  0.6639
 7007TIP3    H142580   4.495   5.128   2.608  0.9291 -0.6954  1.0567
 7007TIP3    H242581   4.419   5.006   2.657 -0.8714  0.0777  0.3124
 7008TIP3   OH242582   6.657   1.735   1.813  0.1293  0.2176  0.3333
 7008TIP3    H142583   6.630   1.657   1.862 -0.4651 -0.5781 -1.2039
 7008TIP3    H242584   6.666   1.803   1.880  0.6497 -1.1562  1.7076
 7009TIP3   OH242585   6.023   6.027   8.334  0.3286 -0.2814  0.2722
 7009TIP3    H142586   6.073   5.946   8.319  0.7224  0.1772 -1.0852
 7009TIP3    H242587   6.030   6.042   8.428  3.4284  0.1592  0.0932
 7010TIP3   OH242588   2.319   6.219   7.994 -0.1153 -0.0843  0.1594
 7010TIP3    H142589   2.413   6.204   7.981  0.1015  0.7104  0.7031
 7010TIP3    H242590   2.311   6.234   8.089 -0.8684 -0.6665  0.1895
 7011TIP3   OH242591   0.224   1.352   1.026 -0.3654 -0.1297  0.7646
 7011TIP3    H142592   0.251   1.358   0.934 -5.3525  1.8104 -0.8953
 7011TIP3    H242593   0.166   1.277   1.029 -0.6171  0.1006  2.2439
 7012TIP3   OH242594   4.826   4.308   1.144  0.3102  0.5440 -0.1828
 7012TIP3    H142595   4.920   4.295   1.131  0.2683  0.4586 -0.4061
 7012TIP3    H242596   4.796   4.347   1.062  0.1020  0.3091 -0.2185
 7013TIP3   OH242597   6.317   5.870   2.262 -0.1402  0.4723  0.2427
 7013TIP3    H142598   6.310   5.793   2.318 -0.1676  2.6781  3.6281
 7013TIP3    H242599   6.395   5.856   2.209 -0.8065 -2.3002 -0.1521
 7014TIP3   OH242600   2.648   1.948   7.977 -0.1086 -0.1890  0.4850
 7014TIP3    H142601   2.654   1.940   8.072 -0.7038 -0.6833  0.4890
 7014TIP3    H242602   2.648   2.042   7.960 -1.8230 -0.0577  1.1080
 7015TIP3   OH242603   2.144   2.820   8.850 -0.1062  0.5647 -0.1494
 7015TIP3    H142604   2.088   2.781   8.782 -0.3907 -0.3675  0.5891
 7015TIP3    H242605   2.083   2.858   8.912  0.0992  0.0378  0.3781
 7016TIP3   OH242606   5.612   4.731   2.340  0.4393  0.3300  0.0984
 7016TIP3    H142607   5.691   4.748   2.289  1.1099 -2.5137  0.0197
 7016TIP3    H242608   5.542   4.724   2.275  0.8616 -0.8862 -0.2652
 7017TIP3   OH242609   2.714   2.782   7.689  0.1495 -0.2135  0.3496
 7017TIP3    H142610   2.802   2.784   7.726 -0.1104  0.6182  0.9655
 7017TIP3    H242611   2.657   2.778   7.766 -0.4081  1.4476  0.0617
 7018TIP3   OH242612   5.216   6.287   1.945 -0.0873  0.4946  0.0440
 7018TIP3    H142613   5.202   6.381   1.938 -0.2237  0.7275  2.6456
 7018TIP3    H242614   5.133   6.252   1.977  0.0454 -0.5046 -0.6284
 7019TIP3   OH242615   4.235   4.059   1.788 -0.2677  0.2670 -0.3860
 7019TIP3    H142616   4.292   4.063   1.865 -0.6086  0.5311 -0.1376
 7019TIP3    H242617   4.279   3.999   1.728 -0.4072 -0.6136  0.3606
 7020TIP3   OH242618   6.643   0.264   0.390  0.0632 -0.2287  0.1298
 7020TIP3    H142619   6.668   0.258   0.298  0.2948  0.9909  0.1060
 7020TIP3    H242620   6.715   0.220   0.437  1.1389  1.1987 -0.1146
 7021TIP3   OH242621   4.824   5.104   1.731  0.7105  0.0062  0.0943
 7021TIP3    H142622   4.829   5.027   1.673 -0.0146  0.2902 -0.3610
 7021TIP3    H242623   4.913   5.115   1.764  1.5133  0.7458 -2.1481
 7022TIP3   OH242624   6.029   1.574   8.746  0.4771 -0.4444  0.0093
 7022TIP3    H142625   5.990   1.642   8.800 -0.9880 -1.5774  0.4451
 7022TIP3    H242626   6.002   1.491   8.787  2.3269 -1.3075 -0.4105
 7023TIP3   OH242627   0.420   2.850   1.688 -0.1304 -0.1147  0.8625
 7023TIP3    H142628   0.384   2.879   1.772  0.4824 -0.4762  1.2600
 7023TIP3    H242629   0.347   2.857   1.626 -0.1605  1.7477  1.0497
 7024TIP3   OH242630   1.938   2.560   7.626  0.0843  0.2914  0.1639
 7024TIP3    H142631   2.014   2.613   7.604  1.0874 -1.5613 -1.0482
 7024TIP3    H242632   1.964   2.470   7.608 -2.0890 -0.5064  0.6054
 7025TIP3   OH242633   5.218   1.675   8.621  0.9045  0.0574  0.0421
 7025TIP3    H142634   5.159   1.749   8.603  0.1661 -0.8864 -1.6266
 7025TIP3    H242635   5.293   1.689   8.564  0.7508 -0.4803 -0.3003
 7026TIP3   OH242636   4.751   6.661   1.404  0.2988 -0.2421 -0.5592
 7026TIP3    H142637   4.778   6.571   1.421  0.1551  0.1356  2.0444
 7026TIP3    H242638   4.659   6.664   1.431  0.5189  0.8569  0.1075
 7027TIP3   OH242639   3.364   1.016   8.494 -0.5806 -0.1149  0.2738
 7027TIP3    H142640   3.392   1.080   8.428 -0.8888 -0.6814 -0.4285
 7027TIP3    H242641   3.428   1.024   8.564  0.3766 -0.2312 -0.5571
 7028TIP3   OH242642   4.661   4.832   0.789 -0.4174  0.1523  0.3197
 7028TIP3    H142643   4.755   4.850   0.795 -0.3484 -0.0963  0.0215
 7028TIP3    H242644   4.619   4.912   0.820 -0.1076 -0.4321  2.4022
 7029TIP3   OH242645   6.541   3.826   0.088  0.5099  0.1437  0.2702
 7029TIP3    H142646   6.621   3.833   0.139  1.6438 -1.3101 -1.1911
 7029TIP3    H242647   6.530   3.733   0.072 -0.6692  0.4230 -0.7892
 7030TIP3   OH242648   6.657   6.210   2.187  0.6937 -0.1522  0.2968
 7030TIP3    H142649   6.702   6.173   2.111 -0.3330 -0.2854 -0.2637
 7030TIP3    H242650   6.711   6.284   2.214  1.7710 -0.9043  0.2638
 7031TIP3   OH242651   3.346   2.391   1.224  0.0210  0.5522  0.3627
 7031TIP3    H142652   3.325   2.384   1.131 -0.2203  0.1588  0.4431
 7031TIP3    H242653   3.419   2.331   1.237 -0.3668  0.1124  0.5506
 7032TIP3   OH242654   4.973   2.691   1.554  0.3543  0.4683 -0.4922
 7032TIP3    H142655   4.962   2.782   1.528  0.9511  0.4304 -0.8804
 7032TIP3    H242656   4.984   2.643   1.472 -1.7466 -0.2203 -0.4229
 7033TIP3   OH242657   3.597   5.618   1.423 -0.2189  0.1375  0.0332
 7033TIP3    H142658   3.501   5.613   1.424 -0.1505 -2.9181  0.4053
 7033TIP3    H242659   3.616   5.711   1.411 -3.2163  0.8740  0.2252
 7034TIP3   OH242660   4.410   1.564   0.197  0.0502  0.0095 -0.6695
 7034TIP3    H142661   4.474   1.610   0.142  0.2493  0.7181  0.1436
 7034TIP3    H242662   4.355   1.633   0.233 -2.4983 -0.6944 -2.8957
 7035TIP3   OH242663   2.942   0.214   1.758 -0.0745  0.0913 -0.2262
 7035TIP3    H142664   2.889   0.258   1.691  0.2809 -0.2835 -0.7674
 7035TIP3    H242665   2.906   0.244   1.841 -0.2564  0.9028 -0.5837
 7036TIP3   OH242666   2.624   3.138   7.876  0.0922 -0.2095 -0.5730
 7036TIP3    H142667   2.558   3.131   7.807 -0.5761  0.0848  0.0264
 7036TIP3    H242668   2.589   3.084   7.947 -0.0447  0.8121  0.1577
 7037TIP3   OH242669   4.193   1.542   1.091 -0.1993 -0.5101  0.9574
 7037TIP3    H142670   4.178   1.578   1.004 -0.7219  1.0592  1.6399
 7037TIP3    H242671   4.234   1.457   1.077  3.5262  1.3654 -0.7875
 7038TIP3   OH242672   2.918   4.577   0.792  0.7021 -0.0036 -0.2861
 7038TIP3    H142673   3.010   4.584   0.769  0.8659  1.0914  0.6114
 7038TIP3    H242674   2.891   4.491   0.760  1.9290 -0.1753 -0.8914
 7039TIP3   OH242675   3.877   5.332   1.186  0.7604  0.5084 -0.2237
 7039TIP3    H142676   3.886   5.336   1.090  0.1348 -0.4078 -0.3373
 7039TIP3    H242677   3.936   5.262   1.212 -1.0367 -1.0847 -0.2617
 7040TIP3   OH242678   1.547   0.963   0.521  0.0679 -0.3365 -0.2114
 7040TIP3    H142679   1.627   1.005   0.556 -1.3011  1.7894  0.5941
 7040TIP3    H242680   1.567   0.870   0.521  2.7192  0.1513 -0.4858
 7041TIP3   OH242681   2.637   2.960   8.626 -0.2597 -0.4245  0.0005
 7041TIP3    H142682   2.727   2.959   8.594  0.0367  1.1942  0.6663
 7041TIP3    H242683   2.586   2.917   8.557  0.7448  0.4360 -1.3242
 7042TIP3   OH242684   1.022   1.487   0.227 -0.1759  0.0584 -0.1188
 7042TIP3    H142685   0.964   1.486   0.152 -0.2716 -0.5372 -0.0489
 7042TIP3    H242686   1.110   1.494   0.190 -0.3032  1.2042 -0.2124
 7043TIP3   OH242687   4.466   0.074   0.829  0.5433  0.2768 -0.0467
 7043TIP3    H142688   4.481   0.169   0.825  1.6876  0.1374  0.4496
 7043TIP3    H242689   4.465   0.054   0.922  3.6957 -0.6335 -0.0911
 7044TIP3   OH242690   3.574   0.162   7.824 -0.3253 -0.8027  0.5833
 7044TIP3    H142691   3.613   0.174   7.910 -0.7956  1.4722  0.5430
 7044TIP3    H242692   3.640   0.196   7.763 -1.2779  0.6351  0.3234
 7045TIP3   OH242693   3.491   5.168   8.576 -0.0485 -0.4651  0.0613
 7045TIP3    H142694   3.571   5.170   8.628 -1.4754 -0.9030  2.4636
 7045TIP3    H242695   3.420   5.175   8.641 -1.9659  1.1306 -2.0179
 7046TIP3   OH242696   3.400   4.883   1.116 -0.1881 -0.6809 -0.3104
 7046TIP3    H142697   3.418   4.977   1.106 -2.3261 -0.0888  0.9286
 7046TIP3    H242698   3.399   4.849   1.026  1.6832  0.2164 -0.7223
 7047TIP3   OH242699   1.246   4.002   1.799 -0.0035  0.0577  0.0117
 7047TIP3    H142700   1.221   3.954   1.879  2.9574 -2.8523 -0.5875
 7047TIP3    H242701   1.252   3.934   1.732  0.0407  2.0520 -2.1040
 7048TIP3   OH242702   4.368   5.589   2.726  0.1619 -0.4455  0.6692
 7048TIP3    H142703   4.379   5.610   2.819  0.1786 -0.2429  0.6217
 7048TIP3    H242704   4.389   5.670   2.681 -1.1597 -0.1479  0.5487
 7049TIP3   OH242705   5.796   2.684   2.025  0.3363 -0.1389 -0.1946
 7049TIP3    H142706   5.846   2.643   2.096  0.8868 -0.5019 -0.7840
 7049TIP3    H242707   5.843   2.766   2.007  0.2438 -0.0848 -0.1877
 7050TIP3   OH242708   6.271   1.621   1.715  0.7840  0.2253 -0.4085
 7050TIP3    H142709   6.195   1.657   1.761 -0.7533 -0.8460 -1.9794
 7050TIP3    H242710   6.344   1.631   1.777 -0.6986  0.9553  1.2976
 7051TIP3   OH242711   2.573   1.433   1.531  0.6700  0.2261 -0.0779
 7051TIP3    H142712   2.576   1.525   1.503 -0.6815  0.7388  1.2644
 7051TIP3    H242713   2.619   1.385   1.463  2.7583  2.0776 -0.0734
 7052TIP3   OH242714   4.883   6.032   2.443 -0.2887 -0.3363  0.0238
 7052TIP3    H142715   4.841   6.110   2.409  0.8467  0.1772 -0.2688
 7052TIP3    H242716   4.834   5.959   2.405 -0.8357  0.2382 -0.3810
 7053TIP3   OH242717   2.563   5.642   8.744  0.1715  0.2902 -0.2884
 7053TIP3    H142718   2.591   5.564   8.696 -1.2494 -0.3973 -0.0616
 7053TIP3    H242719   2.480   5.667   8.704  0.1762  1.1648  0.2209
 7054LIG     O142720   1.591   0.444   7.404  0.2669 -0.0927 -0.1263
 7054LIG     O242721   1.484   0.624   7.547  0.2833  0.2373  0.0395
 7054LIG     O342722   1.885   0.494   7.495  0.3263 -0.3016  0.6215
 7054LIG     O442723   1.301   0.679   7.684  0.8990 -0.3446 -0.1758
 7054LIG     O542724   1.617   0.489   7.758 -0.4266  0.0889  0.7126
 7054LIG     O642725   1.536   0.574   8.010  0.2885  0.1298 -0.2579
 7054LIG     O742726   1.253   0.624   8.039  0.5872  0.1309  0.0014
 7054LIG     O842727   1.137   0.898   7.774 -0.7446  0.0840 -0.0010
 7054LIG     O942728   1.022   0.749   7.899  0.2656  0.0671  0.0177
 7054LIG      N42729   1.507   0.546   6.921 -0.1421 -0.0918 -0.1552
 7054LIG     C142730   1.508   0.517   7.208 -0.6671 -0.6145 -0.1187
 7054LIG     C242731   1.428   0.642   7.141  0.3521  0.8935 -0.0297
 7054LIG     C342732   1.468   0.480   7.347 -0.1504  0.0915 -0.4074
 7054LIG     C442733   1.507   0.665   7.012 -0.2155 -0.1042  0.3655
 7054LIG     C542734   1.520   0.393   7.120  0.6337  0.8809  0.5542
 7054LIG     C642735   1.651   0.566   7.225 -0.3316  0.0475  0.4096
 7054LIG     C742736   1.658   0.712   7.032  0.0933 -0.5359  0.1053
 7054LIG     C842737   1.577   0.429   6.976 -0.0453 -0.0974 -0.5206
 7054LIG     C942738   1.406   0.598   7.433 -0.3229 -0.1249 -0.7682
 7054LIG    C1042739   1.722   0.662   7.152  0.4618  0.3479  0.2905
 7054LIG    C1142740   1.412   0.761   7.235 -0.4962 -0.1989  0.1207
 7054LIG    C1242741   1.693   0.521   7.347 -0.2562  0.7695 -0.2022
 7054LIG    C1342742   1.403   0.733   7.366 -0.5363  0.0070  0.0023
 7054LIG    C1442743   1.382   0.501   6.856 -0.1589  0.1710  0.0917
 7054LIG    C1542744   1.843   0.707   7.201 -0.0600 -0.1194  0.4717
 7054LIG    C1642745   1.831   0.551   7.384  0.1556  0.2491 -0.1483
 7054LIG    C1742746   1.901   0.646   7.316  0.8901  0.4610  0.4926
 7054LIG    C1842747   1.408   0.587   7.662 -0.9869  0.4947  0.0799
 7054LIG    C1942748   1.510   0.580   7.778 -0.3801  0.4961  0.0944
 7054LIG    C2042749   1.438   0.560   7.910 -0.5393 -0.0640  0.1600
 7054LIG    C2142750   1.323   0.659   7.924 -0.4457  0.1415  0.0530
 7054LIG    C2242751   1.227   0.665   7.802 -0.4517 -0.3971 -0.0736
 7054LIG    C2342752   1.119   0.769   7.830  0.9286 -0.0412 -0.0043
 7054LIG     H142753   1.326   0.608   7.113  0.7799 -2.1319  1.5382
 7054LIG     H242754   1.404   0.389   7.358  0.1671 -0.3704 -2.1758
 7054LIG     H342755   1.450   0.746   6.961 -2.1737 -0.2046  2.2380
 7054LIG     H442756   1.425   0.337   7.112  1.4815 -0.7319  1.2407
 7054LIG     H542757   1.577   0.310   7.166 -1.6936  0.5152  2.9593
 7054LIG     H642758   1.661   0.821   7.053  0.6144 -0.1879 -1.6767
 7054LIG     H742759   1.720   0.697   6.942 -1.1111 -0.9471 -0.6899
 7054LIG     H842760   1.688   0.435   6.986  0.0281  1.2467 -1.7564
 7054LIG     H942761   1.554   0.339   6.916  0.0617 -0.1298 -0.5141
 7054LIG    H1042762   1.305   0.567   7.465  0.7522 -0.2872  2.9650
 7054LIG    H1142763   1.454   0.857   7.200 -0.5201 -0.8419 -1.7830
 7054LIG    H1242764   1.371   0.813   7.435 -0.5349 -0.2462  0.2978
 7054LIG    H1342765   1.402   0.458   6.755  0.9813 -0.3910  0.5409
 7054LIG    H1442766   1.302   0.578   6.854  0.2257  0.5807  0.1462
 7054LIG    H1542767   1.350   0.413   6.916  0.6317  1.6810  2.8816
 7054LIG    H1642768   1.901   0.768   7.134  1.3218 -1.6396  0.2146
 7054LIG    H1742769   1.996   0.687   7.348  1.9721  2.2083 -4.0549
 7054LIG    H1842770   1.369   0.483   7.651 -0.6180  0.0899  2.1629
 7054LIG    H1942771   1.565   0.677   7.778 -0.4647  0.5440  0.2184
 7054LIG    H2042772   1.395   0.457   7.912 -1.1922  0.1508 -1.3403
 7054LIG    H2142773   1.977   0.517   7.510  0.5040  2.8208 -3.5125
 7054LIG    H2242774   1.373   0.757   7.935  1.2811 -0.8765  2.0392
 7054LIG    H2342775   1.173   0.568   7.799 -2.6575  0.7895 -1.3084
 7054LIG    H2442776   1.657   0.475   7.844  2.9650  0.3346 -0.6436
 7054LIG    H2542777   1.498   0.536   8.090 -0.2222 -0.5022 -0.7870
 7054LIG    H2642778   1.305   0.642   8.118  1.0629 -2.8070  0.4526
 7054LIG    H2742779   1.222   0.907   7.731 -1.4595 -0.3384 -1.5623
   6.79256   6.79256   8.88499
